
    -----------------------------------------------------------------------
          Psi4: An Open-Source Ab Initio Electronic Structure Package
                               Psi4 1.3.2 release

                         Git: Rev {HEAD} ecbda83 


    R. M. Parrish, L. A. Burns, D. G. A. Smith, A. C. Simmonett,
    A. E. DePrince III, E. G. Hohenstein, U. Bozkaya, A. Yu. Sokolov,
    R. Di Remigio, R. M. Richard, J. F. Gonthier, A. M. James,
    H. R. McAlexander, A. Kumar, M. Saitow, X. Wang, B. P. Pritchard,
    P. Verma, H. F. Schaefer III, K. Patkowski, R. A. King, E. F. Valeev,
    F. A. Evangelista, J. M. Turney, T. D. Crawford, and C. D. Sherrill,
    J. Chem. Theory Comput. 13(7) pp 3185--3197 (2017).
    (doi: 10.1021/acs.jctc.7b00174)


                         Additional Contributions by
    P. Kraus, H. Kruse, M. H. Lechner, M. C. Schieber, R. A. Shaw,
    A. Alenaizan, R. Galvelis, Z. L. Glick, S. Lehtola, and J. P. Misiewicz

    -----------------------------------------------------------------------


    Psi4 started on: Saturday, 06 November 2021 10:21PM

    Process ID: 53334
    Host:       node44.bme.utexas.edu
    PSIDATADIR: /home/bdw2292/miniconda3/envs/amoebamdpoltype/share/psi4
    Memory:     500.0 MiB
    Threads:    1
    
  ==> Input File <==

--------------------------------------------------------------------------
molecule { 
0 1
 C   -1.023706    2.168770    0.256784
 C   -0.416900    1.022743   -0.219029
 N    0.984708    0.896778   -0.015963
 C    1.802613   -0.217594    0.391016
 H    1.452910    1.369501   -0.790974
 C   -0.765910    3.535664   -0.164835
 N   -2.347872    3.598288    1.447012
 C   -2.095997    2.241042    1.312587
 C   -1.571321    4.346020    0.572911
 C   -1.123633   -0.131684   -0.834286
 C   -2.219682   -0.744882   -0.177197
 C   -0.693592   -0.656136   -2.078551
 C   -2.866451   -1.847117   -0.748865
 C   -1.342445   -1.759047   -2.647662
 C   -2.432298   -2.361904   -1.987061
 C    3.197651   -0.003354    0.540782
 C    1.301788   -1.511622    0.683938
 C    4.052838   -1.045666    0.923408
 C    2.161749   -2.549435    1.068850
 C    3.557599   -2.345676    1.183001
 H   -3.024810    3.949834    2.108926
 O   -2.687186    1.370380    1.964728
 H   -2.558875   -0.358621    0.786351
 H    0.152530   -0.198142   -2.592094
 H   -3.706631   -2.305258   -0.225194
 H   -0.996939   -2.150213   -3.605733
 H   -2.936116   -3.222451   -2.430619
 H    3.625505    0.985894    0.359834
 H    0.237078   -1.730375    0.623848
 H    5.120233   -0.835285    1.020921
 H    1.731786   -3.530349    1.283630
 N    4.430447   -3.405912    1.569590
 H   -0.060629    3.849738   -0.921046
 H   -1.669775    5.422951    0.560231
 H    5.378991   -3.305866    1.206894
 H    4.078104   -4.332363    1.326500
}
set optking { 
  frozen_dihedral = ("
    1 2 3 4
    10 2 3 4
    1 2 10 11
    1 2 10 12
    3 2 10 11
    16 4 3 2
    18 20 32 35
  ")
}
set {
  geom_maxiter 400
  g_convergence GAU_LOOSE
  dynamic_level 1
}
memory 8.333333333333334GB
set_num_threads(1)
psi4_io.set_default_path("/scratch/bdw2292/Psi4-7_1_Index_0_GrowFragment_0-farH_in17")
for _ in range(1):
  try:
    set opt_coordinates both
    optimize('wb97x-d/6-311G')
    break
  except OptimizationConvergenceError:
    break
  else:
    try:
      set opt_coordinates cartesian
      optimize('wb97x-d/6-311G')
      break
    except OptimizationConvergenceError:
      pass
clean()
--------------------------------------------------------------------------

  Memory set to   7.761 GiB by Python driver.
  Threads set to 1 by Python driver.
gradient() will perform analytic gradient computation.

*** tstart() called on node44.bme.utexas.edu
*** at Sat Nov  6 22:21:22 2021

   => Loading Basis Set <=

    Name: 6-311G
    Role: ORBITAL
    Keyword: BASIS
    atoms 1-2, 4, 6, 8-20     entry C          line    92 file /home/bdw2292/miniconda3/envs/amoebamdpoltype/share/psi4/basis/6-311g.gbs 
    atoms 3, 7, 32            entry N          line   109 file /home/bdw2292/miniconda3/envs/amoebamdpoltype/share/psi4/basis/6-311g.gbs 
    atoms 5, 21, 23-31, 33-36 entry H          line    21 file /home/bdw2292/miniconda3/envs/amoebamdpoltype/share/psi4/basis/6-311g.gbs 
    atoms 22                  entry O          line   126 file /home/bdw2292/miniconda3/envs/amoebamdpoltype/share/psi4/basis/6-311g.gbs 


         ---------------------------------------------------------
                                   SCF
               by Justin Turney, Rob Parrish, Andy Simmonett
                          and Daniel G. A. Smith
                              RKS Reference
                        1 Threads,   7947 MiB Core
         ---------------------------------------------------------

  ==> Geometry <==

    Molecular point group: c1
    Full point group: C1

    Geometry (in Angstrom), charge = 0, multiplicity = 1:

       Center              X                  Y                   Z               Mass       
    ------------   -----------------  -----------------  -----------------  -----------------
         C           -1.027727597687     2.138418461152     0.079768832668    12.000000000000
         C           -0.420921597687     0.992391461152    -0.396044167332    12.000000000000
         N            0.980686402313     0.866426461152    -0.192978167332    14.003074004430
         C            1.798591402313    -0.247945538848     0.214000832668    12.000000000000
         H            1.448888402313     1.339149461152    -0.967989167332     1.007825032230
         C           -0.769931597687     3.505312461152    -0.341850167332    12.000000000000
         N           -2.351893597687     3.567936461152     1.269996832668    14.003074004430
         C           -2.100018597687     2.210690461152     1.135571832668    12.000000000000
         C           -1.575342597687     4.315668461152     0.395895832668    12.000000000000
         C           -1.127654597687    -0.162035538848    -1.011301167332    12.000000000000
         C           -2.223703597687    -0.775233538848    -0.354212167332    12.000000000000
         C           -0.697613597687    -0.686487538848    -2.255566167332    12.000000000000
         C           -2.870472597687    -1.877468538848    -0.925880167332    12.000000000000
         C           -1.346466597687    -1.789398538848    -2.824677167332    12.000000000000
         C           -2.436319597687    -2.392255538848    -2.164076167332    12.000000000000
         C            3.193629402313    -0.033705538848     0.363766832668    12.000000000000
         C            1.297766402313    -1.541973538848     0.506922832668    12.000000000000
         C            4.048816402313    -1.076017538848     0.746392832668    12.000000000000
         C            2.157727402313    -2.579786538848     0.891834832668    12.000000000000
         C            3.553577402313    -2.376027538848     1.005985832668    12.000000000000
         H           -3.028831597687     3.919482461152     1.931910832668     1.007825032230
         O           -2.691207597687     1.340028461152     1.787712832668    15.994914619570
         H           -2.562896597687    -0.388972538848     0.609335832668     1.007825032230
         H            0.148508402313    -0.228493538848    -2.769109167332     1.007825032230
         H           -3.710652597687    -2.335609538848    -0.402209167332     1.007825032230
         H           -1.000960597687    -2.180564538848    -3.782748167332     1.007825032230
         H           -2.940137597687    -3.252802538848    -2.607634167332     1.007825032230
         H            3.621483402313     0.955542461152     0.182818832668     1.007825032230
         H            0.233056402313    -1.760726538848     0.446832832668     1.007825032230
         H            5.116211402313    -0.865636538848     0.843905832668     1.007825032230
         H            1.727764402313    -3.560700538848     1.106614832668     1.007825032230
         N            4.426425402313    -3.436263538848     1.392574832668    14.003074004430
         H           -0.064650597687     3.819386461152    -1.098061167332     1.007825032230
         H           -1.673796597687     5.392599461152     0.383215832668     1.007825032230
         H            5.374969402313    -3.336217538848     1.029878832668     1.007825032230
         H            4.074082402313    -4.362714538848     1.149484832668     1.007825032230

  Running in c1 symmetry.

  Rotational constants: A =      0.01392  B =      0.00697  C =      0.00541 [cm^-1]
  Rotational constants: A =    417.18613  B =    208.85276  C =    162.31285 [MHz]
  Nuclear repulsion = 1523.055212315054405

  Charge       = 0
  Multiplicity = 1
  Electrons    = 146
  Nalpha       = 73
  Nbeta        = 73

  ==> Algorithm <==

  SCF Algorithm Type is DF.
  DIIS enabled.
  MOM disabled.
  Fractional occupation disabled.
  Guess Type is SAD.
  Energy threshold   = 1.00e-08
  Density threshold  = 1.00e-08
  Integral threshold = 0.00e+00

  ==> Primary Basis <==

  Basis Set: 6-311G
    Blend: 6-311G
    Number of shells: 192
    Number of basis function: 318
    Number of Cartesian functions: 318
    Spherical Harmonics?: true
    Max angular momentum: 1

  ==> DFT Potential <==

   => Composite Functional: WB97X-D <= 

    wB97X-D Hyb-GGA Exchange-Correlation Functional

    J.-D. Chai and M. Head-Gordon, Phys. Chem. Chem. Phys. 10, 6615 (2008)

    Deriv               =              1
    GGA                 =           TRUE
    Meta                =          FALSE

    Exchange Hybrid     =           TRUE
    MP2 Hybrid          =          FALSE

   => Exchange-Correlation Functionals <=

    1.0000   wB97D range-separated functional

   => Exact (HF) Exchange <=

    0.7780            HF,LR [omega = 0.2000]
    0.2220               HF 

   => Molecular Quadrature <=

    Radial Scheme          =       TREUTLER
    Pruning Scheme         =           FLAT
    Nuclear Scheme         =       TREUTLER

    BS radius alpha        =              1
    Pruning alpha          =              1
    Radial Points          =             75
    Spherical Points       =            302
    Total Points           =         806599
    Total Blocks           =           5739
    Max Points             =            256
    Max Functions          =            222

   => WB97X-D: Empirical Dispersion <=

    Chai and Head-Gordon Dispersion Correction
    Chai, J.-D.; Head-Gordon, M. (2010), J. Chem. Phys., 132: 6615-6620

        s6 =       1.000000

   => Loading Basis Set <=

    Name: (6-311G AUX)
    Role: JKFIT
    Keyword: DF_BASIS_SCF
    atoms 1-2, 4, 6, 8-20     entry C          line   125 file /home/bdw2292/miniconda3/envs/amoebamdpoltype/share/psi4/basis/cc-pvtz-jkfit.gbs 
    atoms 3, 7, 32            entry N          line   177 file /home/bdw2292/miniconda3/envs/amoebamdpoltype/share/psi4/basis/cc-pvtz-jkfit.gbs 
    atoms 5, 21, 23-31, 33-36 entry H          line    51 file /home/bdw2292/miniconda3/envs/amoebamdpoltype/share/psi4/basis/cc-pvtz-jkfit.gbs 
    atoms 22                  entry O          line   229 file /home/bdw2292/miniconda3/envs/amoebamdpoltype/share/psi4/basis/cc-pvtz-jkfit.gbs 

  ==> Pre-Iterations <==

   -------------------------------------------------------
    Irrep   Nso     Nmo     Nalpha   Nbeta   Ndocc  Nsocc
   -------------------------------------------------------
     A        318     318       0       0       0       0
   -------------------------------------------------------
    Total     318     318      73      73      73       0
   -------------------------------------------------------

  ==> Integral Setup <==

  ==> DiskDFJK: Density-Fitted J/K Matrices <==

    J tasked:                  Yes
    K tasked:                  Yes
    wK tasked:                 Yes
    Omega:               2.000E-01
    OpenMP threads:              1
    Integrals threads:           1
    Memory [MiB]:             2599
    Algorithm:                Core
    Integral Cache:           NONE
    Schwarz Cutoff:          1E-12
    Fitting Condition:       1E-10

   => Auxiliary Basis Set <=

  Basis Set: (6-311G AUX)
    Blend: CC-PVTZ-JKFIT
    Number of shells: 675
    Number of basis function: 2109
    Number of Cartesian functions: 2541
    Spherical Harmonics?: true
    Max angular momentum: 4

  Cached 100.0% of DFT collocation blocks in 3.282 [GiB].

  Minimum eigenvalue in the overlap matrix is 2.5699655075E-04.
  Using Symmetric Orthogonalization.

  SCF Guess: Superposition of Atomic Densities via on-the-fly atomic UHF.

  ==> Iterations <==

                           Total Energy        Delta E     RMS |[F,P]|

   @DF-RKS iter SAD:  -895.06907296422321   -8.95069e+02   0.00000e+00 
   @DF-RKS iter   1:  -895.22306978176664   -1.53997e-01   3.67818e-03 DIIS
   @DF-RKS iter   2:  -895.40752317243289   -1.84453e-01   3.40882e-03 DIIS
   @DF-RKS iter   3:  -895.84042676196395   -4.32904e-01   9.86622e-04 DIIS
   @DF-RKS iter   4:  -895.88129736931455   -4.08706e-02   2.06115e-04 DIIS
   @DF-RKS iter   5:  -895.88321682472656   -1.91946e-03   7.64461e-05 DIIS
   @DF-RKS iter   6:  -895.88357416070573   -3.57336e-04   2.00143e-05 DIIS
   @DF-RKS iter   7:  -895.88364545297270   -7.12923e-05   1.16981e-05 DIIS
   @DF-RKS iter   8:  -895.88367224918636   -2.67962e-05   5.34198e-06 DIIS
   @DF-RKS iter   9:  -895.88368289049265   -1.06413e-05   3.58525e-06 DIIS
   @DF-RKS iter  10:  -895.88368490818948   -2.01770e-06   1.02645e-06 DIIS
   @DF-RKS iter  11:  -895.88368519204175   -2.83852e-07   5.64916e-07 DIIS
   @DF-RKS iter  12:  -895.88368526190891   -6.98672e-08   1.94923e-07 DIIS
   @DF-RKS iter  13:  -895.88368527733905   -1.54301e-08   1.07379e-07 DIIS
   @DF-RKS iter  14:  -895.88368527898410   -1.64505e-09   5.58697e-08 DIIS
   @DF-RKS iter  15:  -895.88368527962996   -6.45855e-10   1.71844e-08 DIIS
   @DF-RKS iter  16:  -895.88368527969578   -6.58247e-11   8.36252e-09 DIIS
  Energy and wave function converged.


  ==> Post-Iterations <==

    Orbital Energies [Eh]
    ---------------------

    Doubly Occupied:                                                      

       1A    -19.214198     2A    -14.472591     3A    -14.458608  
       4A    -14.436675     5A    -10.398517     6A    -10.372265  
       7A    -10.340314     8A    -10.335580     9A    -10.333015  
      10A    -10.317533    11A    -10.306127    12A    -10.305713  
      13A    -10.301719    14A    -10.300106    15A    -10.297169  
      16A    -10.296019    17A    -10.292697    18A    -10.291475  
      19A    -10.290915    20A    -10.290020    21A    -10.289688  
      22A     -1.151201    23A     -1.066468    24A     -1.054631  
      25A     -1.017799    26A     -0.966783    27A     -0.941680  
      28A     -0.906831    29A     -0.871009    30A     -0.852638  
      31A     -0.848661    32A     -0.835288    33A     -0.814131  
      34A     -0.767342    35A     -0.717216    36A     -0.710560  
      37A     -0.708337    38A     -0.693104    39A     -0.689916  
      40A     -0.648056    41A     -0.627554    42A     -0.617405  
      43A     -0.606728    44A     -0.597530    45A     -0.585892  
      46A     -0.569602    47A     -0.558006    48A     -0.547250  
      49A     -0.534016    50A     -0.527981    51A     -0.525302  
      52A     -0.522954    53A     -0.518377    54A     -0.514132  
      55A     -0.507997    56A     -0.500554    57A     -0.487185  
      58A     -0.480844    59A     -0.466832    60A     -0.458863  
      61A     -0.448213    62A     -0.431260    63A     -0.428519  
      64A     -0.412282    65A     -0.410275    66A     -0.365619  
      67A     -0.346262    68A     -0.335855    69A     -0.335290  
      70A     -0.328697    71A     -0.325727    72A     -0.271864  
      73A     -0.241872  

    Virtual:                                                              

      74A     -0.039985    75A      0.054418    76A      0.060429  
      77A      0.067009    78A      0.084051    79A      0.107248  
      80A      0.119751    81A      0.121210    82A      0.129679  
      83A      0.134482    84A      0.142837    85A      0.153111  
      86A      0.154446    87A      0.163258    88A      0.166795  
      89A      0.182869    90A      0.187996    91A      0.196584  
      92A      0.204545    93A      0.215970    94A      0.224580  
      95A      0.230457    96A      0.242058    97A      0.254479  
      98A      0.275192    99A      0.285651   100A      0.300291  
     101A      0.312100   102A      0.313772   103A      0.322088  
     104A      0.342588   105A      0.345146   106A      0.347863  
     107A      0.351550   108A      0.360722   109A      0.371146  
     110A      0.376827   111A      0.386935   112A      0.388915  
     113A      0.402582   114A      0.416705   115A      0.425666  
     116A      0.426905   117A      0.431849   118A      0.445403  
     119A      0.454241   120A      0.459852   121A      0.466923  
     122A      0.471680   123A      0.479068   124A      0.482302  
     125A      0.483949   126A      0.488774   127A      0.496093  
     128A      0.498370   129A      0.501903   130A      0.504697  
     131A      0.510761   132A      0.516077   133A      0.517625  
     134A      0.522017   135A      0.536044   136A      0.542705  
     137A      0.545800   138A      0.550856   139A      0.552797  
     140A      0.561530   141A      0.568059   142A      0.574957  
     143A      0.584067   144A      0.594188   145A      0.597549  
     146A      0.602178   147A      0.616105   148A      0.624793  
     149A      0.630200   150A      0.633928   151A      0.639431  
     152A      0.647736   153A      0.657931   154A      0.663061  
     155A      0.675548   156A      0.687320   157A      0.688624  
     158A      0.692937   159A      0.698742   160A      0.708085  
     161A      0.712939   162A      0.713660   163A      0.725201  
     164A      0.730818   165A      0.737955   166A      0.739235  
     167A      0.744806   168A      0.751741   169A      0.758091  
     170A      0.759313   171A      0.765774   172A      0.775389  
     173A      0.782551   174A      0.790690   175A      0.809529  
     176A      0.822835   177A      0.830375   178A      0.839824  
     179A      0.851527   180A      0.852686   181A      0.857259  
     182A      0.863720   183A      0.867183   184A      0.880866  
     185A      0.896613   186A      0.898485   187A      0.902571  
     188A      0.912431   189A      0.925557   190A      0.932665  
     191A      0.942134   192A      0.951589   193A      0.967636  
     194A      0.978398   195A      0.992114   196A      0.999673  
     197A      1.007639   198A      1.013771   199A      1.028859  
     200A      1.045316   201A      1.055125   202A      1.066639  
     203A      1.075787   204A      1.099931   205A      1.116653  
     206A      1.122417   207A      1.152998   208A      1.160580  
     209A      1.192655   210A      1.212546   211A      1.256297  
     212A      1.271832   213A      1.317965   214A      1.357094  
     215A      1.378966   216A      1.430705   217A      1.493937  
     218A      1.637112   219A      1.830217   220A      2.270025  
     221A      2.307571   222A      2.320782   223A      2.352567  
     224A      2.358229   225A      2.371650   226A      2.373724  
     227A      2.386726   228A      2.412223   229A      2.428829  
     230A      2.443987   231A      2.471847   232A      2.490438  
     233A      2.561330   234A      2.618058   235A      2.626874  
     236A      2.632226   237A      2.647922   238A      2.670318  
     239A      2.673587   240A      2.676867   241A      2.697737  
     242A      2.732794   243A      2.757240   244A      2.779382  
     245A      2.791148   246A      2.812365   247A      2.814287  
     248A      2.820593   249A      2.828128   250A      2.838058  
     251A      2.848265   252A      2.860049   253A      2.874437  
     254A      2.894947   255A      2.911204   256A      2.915198  
     257A      2.959113   258A      2.970282   259A      2.974034  
     260A      3.014085   261A      3.024276   262A      3.044183  
     263A      3.065672   264A      3.110459   265A      3.138458  
     266A      3.146665   267A      3.166080   268A      3.174044  
     269A      3.197077   270A      3.212007   271A      3.228008  
     272A      3.244390   273A      3.253778   274A      3.274006  
     275A      3.295178   276A      3.303217   277A      3.317995  
     278A      3.332462   279A      3.340813   280A      3.357951  
     281A      3.367008   282A      3.377624   283A      3.432218  
     284A      3.503848   285A      3.536947   286A      3.814619  
     287A      3.834707   288A      3.962093   289A      4.076527  
     290A      4.095148   291A      4.106329   292A      4.146340  
     293A      4.222648   294A      4.299079   295A      4.997453  
     296A      5.114213   297A      5.194958   298A     23.234782  
     299A     23.261494   300A     23.343188   301A     23.475887  
     302A     23.478683   303A     23.487529   304A     23.507771  
     305A     23.536207   306A     23.589942   307A     23.711596  
     308A     23.720372   309A     23.747043   310A     23.762678  
     311A     23.796619   312A     23.854271   313A     23.985247  
     314A     23.991611   315A     35.512153   316A     35.539851  
     317A     35.612157   318A     50.075606  

    Final Occupation by Irrep:
              A 
    DOCC [    73 ]

  @DF-RKS Final Energy:  -895.88368527969578

   => Energetics <=

    Nuclear Repulsion Energy =           1523.0552123150544048
    One-Electron Energy =               -4239.0736262693508252
    Two-Electron Energy =                1907.7435817894729553
    DFT Exchange-Correlation Energy =     -87.5834509453584360
    Empirical Dispersion Energy =          -0.0254021695141490
    VV10 Nonlocal Energy =                  0.0000000000000000
    Total Energy =                       -895.8836852796957828

Computation Completed


Properties will be evaluated at   0.000000,   0.000000,   0.000000 [a0]

Properties computed using the SCF density matrix

  Nuclear Dipole Moment: [e a0]
     X:     6.3183      Y:    -6.4146      Z:    -3.6957

  Electronic Dipole Moment: [e a0]
     X:    -5.3874      Y:     6.6602      Z:     2.2157

  Dipole Moment: [e a0]
     X:     0.9310      Y:     0.2456      Z:    -1.4801     Total:     1.7657

  Dipole Moment: [D]
     X:     2.3662      Y:     0.6242      Z:    -3.7619     Total:     4.4878


*** tstop() called on node44.bme.utexas.edu at Sat Nov  6 22:30:32 2021
Module time:
	user time   =     534.45 seconds =       8.91 minutes
	system time =      14.99 seconds =       0.25 minutes
	total time  =        550 seconds =       9.17 minutes
Total time:
	user time   =     534.45 seconds =       8.91 minutes
	system time =      14.99 seconds =       0.25 minutes
	total time  =        550 seconds =       9.17 minutes

*** tstart() called on node44.bme.utexas.edu
*** at Sat Nov  6 22:30:32 2021


         ------------------------------------------------------------
                                   SCF GRAD                          
                          Rob Parrish, Justin Turney,                
                       Andy Simmonett, and Alex Sokolov              
         ------------------------------------------------------------

  ==> Geometry <==

    Molecular point group: c1
    Full point group: C1

    Geometry (in Angstrom), charge = 0, multiplicity = 1:

       Center              X                  Y                   Z               Mass       
    ------------   -----------------  -----------------  -----------------  -----------------
         C           -1.027727597687     2.138418461152     0.079768832668    12.000000000000
         C           -0.420921597687     0.992391461152    -0.396044167332    12.000000000000
         N            0.980686402313     0.866426461152    -0.192978167332    14.003074004430
         C            1.798591402313    -0.247945538848     0.214000832668    12.000000000000
         H            1.448888402313     1.339149461152    -0.967989167332     1.007825032230
         C           -0.769931597687     3.505312461152    -0.341850167332    12.000000000000
         N           -2.351893597687     3.567936461152     1.269996832668    14.003074004430
         C           -2.100018597687     2.210690461152     1.135571832668    12.000000000000
         C           -1.575342597687     4.315668461152     0.395895832668    12.000000000000
         C           -1.127654597687    -0.162035538848    -1.011301167332    12.000000000000
         C           -2.223703597687    -0.775233538848    -0.354212167332    12.000000000000
         C           -0.697613597687    -0.686487538848    -2.255566167332    12.000000000000
         C           -2.870472597687    -1.877468538848    -0.925880167332    12.000000000000
         C           -1.346466597687    -1.789398538848    -2.824677167332    12.000000000000
         C           -2.436319597687    -2.392255538848    -2.164076167332    12.000000000000
         C            3.193629402313    -0.033705538848     0.363766832668    12.000000000000
         C            1.297766402313    -1.541973538848     0.506922832668    12.000000000000
         C            4.048816402313    -1.076017538848     0.746392832668    12.000000000000
         C            2.157727402313    -2.579786538848     0.891834832668    12.000000000000
         C            3.553577402313    -2.376027538848     1.005985832668    12.000000000000
         H           -3.028831597687     3.919482461152     1.931910832668     1.007825032230
         O           -2.691207597687     1.340028461152     1.787712832668    15.994914619570
         H           -2.562896597687    -0.388972538848     0.609335832668     1.007825032230
         H            0.148508402313    -0.228493538848    -2.769109167332     1.007825032230
         H           -3.710652597687    -2.335609538848    -0.402209167332     1.007825032230
         H           -1.000960597687    -2.180564538848    -3.782748167332     1.007825032230
         H           -2.940137597687    -3.252802538848    -2.607634167332     1.007825032230
         H            3.621483402313     0.955542461152     0.182818832668     1.007825032230
         H            0.233056402313    -1.760726538848     0.446832832668     1.007825032230
         H            5.116211402313    -0.865636538848     0.843905832668     1.007825032230
         H            1.727764402313    -3.560700538848     1.106614832668     1.007825032230
         N            4.426425402313    -3.436263538848     1.392574832668    14.003074004430
         H           -0.064650597687     3.819386461152    -1.098061167332     1.007825032230
         H           -1.673796597687     5.392599461152     0.383215832668     1.007825032230
         H            5.374969402313    -3.336217538848     1.029878832668     1.007825032230
         H            4.074082402313    -4.362714538848     1.149484832668     1.007825032230

  Nuclear repulsion = 1523.055212315054405

  ==> Basis Set <==

  Basis Set: 6-311G
    Blend: 6-311G
    Number of shells: 192
    Number of basis function: 318
    Number of Cartesian functions: 318
    Spherical Harmonics?: true
    Max angular momentum: 1

  ==> DFJKGrad: Density-Fitted SCF Gradients <==

    Gradient:                    1
    J tasked:                  Yes
    K tasked:                  Yes
    wK tasked:                 Yes
    Omega:               2.000E-01
    OpenMP threads:              1
    Integrals threads:           1
    Memory [MiB]:             5960
    Schwarz Cutoff:          0E+00
    Fitting Condition:       1E-10

   => Auxiliary Basis Set <=

  Basis Set: (6-311G AUX)
    Blend: CC-PVTZ-JKFIT
    Number of shells: 675
    Number of basis function: 2109
    Number of Cartesian functions: 2541
    Spherical Harmonics?: true
    Max angular momentum: 4

  ==> DFT Potential <==

   => Composite Functional: WB97X-D <= 

    wB97X-D Hyb-GGA Exchange-Correlation Functional

    J.-D. Chai and M. Head-Gordon, Phys. Chem. Chem. Phys. 10, 6615 (2008)

    Deriv               =              1
    GGA                 =           TRUE
    Meta                =          FALSE

    Exchange Hybrid     =           TRUE
    MP2 Hybrid          =          FALSE

   => Exchange-Correlation Functionals <=

    1.0000   wB97D range-separated functional

   => Exact (HF) Exchange <=

    0.7780            HF,LR [omega = 0.2000]
    0.2220               HF 

   => Molecular Quadrature <=

    Radial Scheme          =       TREUTLER
    Pruning Scheme         =           FLAT
    Nuclear Scheme         =       TREUTLER

    BS radius alpha        =              1
    Pruning alpha          =              1
    Radial Points          =             75
    Spherical Points       =            302
    Total Points           =         806599
    Total Blocks           =           5739
    Max Points             =            256
    Max Functions          =            222


  -Total Gradient:
     Atom            X                  Y                   Z
    ------   -----------------  -----------------  -----------------
       1        0.022261709178    -0.010392570392     0.006633163507
       2       -0.004958120481     0.034067823398    -0.026281708713
       3       -0.027259804733    -0.013807779400     0.051310674754
       4        0.008578586903     0.017521930357    -0.003380908173
       5       -0.010177983755    -0.010976389464    -0.014001842559
       6       -0.016598056399     0.001122977198    -0.025348704436
       7       -0.002827611141    -0.003266555836    -0.009184317620
       8        0.010801951719    -0.006807270434     0.038650983865
       9       -0.000548651154    -0.010957777716     0.001525159965
      10        0.014235750134     0.013537135699    -0.019632167702
      11        0.003478692261     0.001428156030     0.004168949953
      12       -0.001199368319    -0.001702941707    -0.007480062135
      13       -0.005113907899     0.000439588498     0.007986949359
      14        0.005266521445    -0.000512286573    -0.005223172951
      15       -0.003123082988    -0.005373128780    -0.003143275803
      16        0.007673494206     0.003477083084     0.001746263082
      17       -0.004280708375    -0.005514160464    -0.001093108174
      18        0.004990629624     0.002510319265     0.000573611157
      19       -0.006121606662    -0.005143273973    -0.001169246371
      20        0.003672526859    -0.002640970151     0.001091362221
      21       -0.004900731163     0.002160217589     0.005815549092
      22       -0.000890522063     0.012387097663    -0.010592284318
      23       -0.003754684913     0.001153215141     0.006549566384
      24        0.003712273343     0.002858910936    -0.002733230535
      25       -0.005063526400    -0.002242369195     0.003415637560
      26        0.002290838609    -0.002436771736    -0.005632556689
      27       -0.003483088747    -0.005192597915    -0.002487160594
      28        0.004655749390     0.005441563845    -0.001083401870
      29       -0.006134556091    -0.003275247545     0.001179360704
      30        0.005992678969     0.002392641524    -0.000039845560
      31       -0.003550845971    -0.005430668716     0.000953257416
      32        0.002066837443    -0.000536909671     0.021374753885
      33        0.002638845795     0.001446641121    -0.002671569009
      34        0.001330834772     0.004050940625     0.004374506929
      35        0.006603293380    -0.001963733509    -0.008403430407
      36       -0.000362571324    -0.007793173611    -0.007803731045


*** tstop() called on node44.bme.utexas.edu at Sat Nov  6 22:34:40 2021
Module time:
	user time   =     245.85 seconds =       4.10 minutes
	system time =       3.03 seconds =       0.05 minutes
	total time  =        248 seconds =       4.13 minutes
Total time:
	user time   =     780.30 seconds =      13.00 minutes
	system time =      18.02 seconds =       0.30 minutes
	total time  =        798 seconds =      13.30 minutes

			-----------------------------------------
			 OPTKING 2.0: for geometry optimizations 
			  - R.A. King,  Bethel University        
			-----------------------------------------
	At level 1: Red. Int., RFO, no backsteps, dynamic trust

	Internal coordinates to be generated automatically.
	Detected frag 1 with atoms:  1 2 3 4 5 6 7 8 9 10 11 12 13 14 15 16 17 18 19 20
	 21 22 23 24 25 26 27 28 29 30 31 32 33 34 35 36
	---Fragment 1 Bond Connectivity---
	 1 : 2 6 8
	 2 : 1 3 10
	 3 : 2 4 5
	 4 : 3 16 17
	 5 : 3
	 6 : 1 9 33
	 7 : 8 9 21
	 8 : 1 7 22
	 9 : 6 7 34
	 10 : 2 11 12
	 11 : 10 13 23
	 12 : 10 14 24
	 13 : 11 15 25
	 14 : 12 15 26
	 15 : 13 14 27
	 16 : 4 18 28
	 17 : 4 19 29
	 18 : 16 20 30
	 19 : 17 20 31
	 20 : 18 19 32
	 21 : 7
	 22 : 8
	 23 : 11
	 24 : 12
	 25 : 13
	 26 : 14
	 27 : 15
	 28 : 16
	 29 : 17
	 30 : 18
	 31 : 19
	 32 : 20 35 36
	 33 : 6
	 34 : 9
	 35 : 32
	 36 : 32

	Assuming in current code that numbering for constraints corresponds to unified fragment.
	Frozen dihedral atom list: 
	     1     2     3     4
	    10     2     3     4
	     1     2    10    11
	     1     2    10    12
	     3     2    10    11
	    16     4     3     2
	    18    20    32    35
	---Fragment 1 Geometry and Gradient---
	 C          -1.9421236912        4.0410252332        0.1507412471
	 C          -0.7954265399        1.8753480708       -0.7484150098
	 N           1.8532287153        1.6373087194       -0.3646758845
	 C           3.3988451620       -0.4685491625        0.4044029644
	 H           2.7380022667        2.5306257226       -1.8292344187
	 C          -1.4549598550        6.6240805357       -0.6460031922
	 N          -4.4444347758        6.7424227446        2.3999461939
	 C          -3.9684600080        4.1775995197        2.1459197595
	 C          -2.9769660634        8.1554314399        0.7481346980
	 C          -2.1309583537       -0.3062027910       -1.9110822366
	 C          -4.2021907838       -1.4649790717       -0.6693639866
	 C          -1.3182986410       -1.2972734370       -4.2624023141
	 C          -5.4244070603       -3.5479013476       -1.7496599413
	 C          -2.5444531067       -3.3814731677       -5.3378662391
	 C          -4.6039767937       -4.5207077905       -4.0895112709
	 C           6.0350849166       -0.0636942373        0.6874196873
	 C           2.4524230752       -2.9139076811        0.9579453205
	 C           7.6511541326       -2.0333784546        1.4104780357
	 C           4.0775138438       -4.8750900206        1.6853235829
	 C           6.7152880560       -4.4900413150        1.9010377098
	 H          -5.7236621998        7.4067484051        3.6507823725
	 O          -5.0856453064        2.5322867919        3.3782876447
	 H          -4.8431726575       -0.7350515687        1.1514778422
	 H           0.2806402077       -0.4317902099       -5.2328579378
	 H          -7.0121171563       -4.4136623644       -0.7600651714
	 H          -1.8915413920       -4.1206697773       -7.1483580378
	 H          -5.5560548308       -6.1469059386       -4.9277144116
	 H           6.8436117983        1.8057135528        0.3454775243
	 H           0.4404127722       -3.3272909402        0.8443916776
	 H           9.6682383503       -1.6358159826        1.5947508994
	 H           3.2650015297       -6.7287488332        2.0911989601
	 N           8.3647317251       -6.4935969833        2.6315850429
	 H          -0.1221719235        7.2175943789       -2.0750348753
	 H          -3.1630171594       10.1905360859        0.7241729707
	 H          10.1572201031       -6.3045374434        1.9461889361
	 H           7.6988999529       -8.2443356420        2.1722115191
	             0.0222617092       -0.0103925704        0.0066331635
	            -0.0049581205        0.0340678234       -0.0262817087
	            -0.0272598047       -0.0138077794        0.0513106748
	             0.0085785869        0.0175219304       -0.0033809082
	            -0.0101779838       -0.0109763895       -0.0140018426
	            -0.0165980564        0.0011229772       -0.0253487044
	            -0.0028276111       -0.0032665558       -0.0091843176
	             0.0108019517       -0.0068072704        0.0386509839
	            -0.0005486512       -0.0109577777        0.0015251600
	             0.0142357501        0.0135371357       -0.0196321677
	             0.0034786923        0.0014281560        0.0041689500
	            -0.0011993683       -0.0017029417       -0.0074800621
	            -0.0051139079        0.0004395885        0.0079869494
	             0.0052665214       -0.0005122866       -0.0052231730
	            -0.0031230830       -0.0053731288       -0.0031432758
	             0.0076734942        0.0034770831        0.0017462631
	            -0.0042807084       -0.0055141605       -0.0010931082
	             0.0049906296        0.0025103193        0.0005736112
	            -0.0061216067       -0.0051432740       -0.0011692464
	             0.0036725269       -0.0026409702        0.0010913622
	            -0.0049007312        0.0021602176        0.0058155491
	            -0.0008905221        0.0123870977       -0.0105922843
	            -0.0037546849        0.0011532151        0.0065495664
	             0.0037122733        0.0028589109       -0.0027332305
	            -0.0050635264       -0.0022423692        0.0034156376
	             0.0022908386       -0.0024367717       -0.0056325567
	            -0.0034830887       -0.0051925979       -0.0024871606
	             0.0046557494        0.0054415638       -0.0010834019
	            -0.0061345561       -0.0032752475        0.0011793607
	             0.0059926790        0.0023926415       -0.0000398456
	            -0.0035508460       -0.0054306687        0.0009532574
	             0.0020668374       -0.0005369097        0.0213747539
	             0.0026388458        0.0014466411       -0.0026715690
	             0.0013308348        0.0040509406        0.0043745069
	             0.0066032934       -0.0019637335       -0.0084034304
	            -0.0003625713       -0.0077931736       -0.0078037310

	Previous optimization step data not found.  Starting new optimization.

	---Fragment 1 Intrafragment Coordinates---
	 - Coordinate -           - BOHR/RAD -       - ANG/DEG -
	 R(1,2)           =         2.610279	       1.381300
	 R(1,6)           =         2.746690	       1.453486
	 R(1,8)           =         2.847003	       1.506569
	 R(2,3)           =         2.686874	       1.421833
	 R(2,10)          =         2.809734	       1.486847
	 R(3,4)           =         2.723059	       1.440981
	 R(3,5)           =         1.930226	       1.021431
	 R(4,16)          =         2.682120	       1.419317
	 R(4,17)          =         2.679907	       1.418146
	 R(6,9)           =         2.570050	       1.360012
	 R(6,33)          =         2.042233	       1.080703
	 R(7,8)           =         2.620954	       1.386949
	 R(7,9)           =         2.622697	       1.387871
	 R(7,21)          =         1.908492	       1.009931
	 R(8,22)          =         2.339634	       1.238081
	 R(9,34)          =         2.043732	       1.081496
	 R(10,11)         =         2.678550	       1.417428
	 R(10,12)         =         2.677936	       1.417103
	 R(11,13)         =         2.645641	       1.400013
	 R(11,23)         =         2.063763	       1.092096
	 R(12,14)         =         2.646501	       1.400468
	 R(12,24)         =         2.060934	       1.090600
	 R(13,15)         =         2.663524	       1.409476
	 R(13,25)         =         2.061471	       1.090884
	 R(14,15)         =         2.664185	       1.409826
	 R(14,26)         =         2.061695	       1.091002
	 R(15,27)         =         2.062415	       1.091383
	 R(16,18)         =         2.648424	       1.401486
	 R(16,28)         =         2.065266	       1.092892
	 R(17,19)         =         2.648818	       1.401694
	 R(17,29)         =         2.057174	       1.088610
	 R(18,20)         =         2.674264	       1.415159
	 R(18,30)         =         2.064132	       1.092292
	 R(19,20)         =         2.674443	       1.415255
	 R(19,31)         =         2.064210	       1.092333
	 R(20,32)         =         2.696034	       1.426680
	 R(32,35)         =         1.928348	       1.020438
	 R(32,36)         =         1.928585	       1.020563
	 B(1,2,3)         =         2.045819	     117.216797
	 B(1,2,10)        =         2.186962	     125.303709
	 B(1,6,9)         =         1.873349	     107.335009
	 B(1,6,33)        =         2.204376	     126.301415
	 B(1,8,7)         =         1.817410	     104.129925
	 B(1,8,22)        =         2.312115	     132.474450
	 B(2,1,6)         =         2.217310	     127.042524
	 B(2,1,8)         =         2.206660	     126.432300
	 B(2,3,4)         =         2.302824	     131.942095
	 B(2,3,5)         =         1.878103	     107.607350
	 B(2,10,11)       =         2.107860	     120.771464
	 B(2,10,12)       =         2.101838	     120.426462
	 B(3,2,10)        =         2.047525	     117.314517
	 B(3,4,16)        =         2.061178	     118.096821
	 B(3,4,17)        =         2.169466	     124.301264
	 B(4,3,5)         =         1.888120	     108.181295
	 B(4,16,18)       =         2.113332	     121.085020
	 B(4,16,28)       =         2.098964	     120.261773
	 B(4,17,19)       =         2.112566	     121.041112
	 B(4,17,29)       =         2.114560	     121.155336
	 B(6,1,8)         =         1.859186	     106.523484
	 B(6,9,7)         =         1.930487	     110.608733
	 B(6,9,34)        =         2.266442	     129.857555
	 B(7,8,22)        =         2.153647	     123.394875
	 B(7,9,34)        =         2.086256	     119.533686
	 B(8,7,9)         =         1.943966	     111.381061
	 B(8,7,21)        =         2.124549	     121.727700
	 B(9,6,33)        =         2.205447	     126.362825
	 B(9,7,21)        =         2.214656	     126.890445
	 B(10,11,13)      =         2.104277	     120.566178
	 B(10,11,23)      =         2.089978	     119.746909
	 B(10,12,14)      =         2.103269	     120.508417
	 B(10,12,24)      =         2.086872	     119.568956
	 B(11,10,12)      =         2.073267	     118.789449
	 B(11,13,15)      =         2.098974	     120.262329
	 B(11,13,25)      =         2.083384	     119.369093
	 B(12,14,15)      =         2.099601	     120.298292
	 B(12,14,26)      =         2.085749	     119.504609
	 B(13,11,23)      =         2.088910	     119.685739
	 B(13,15,14)      =         2.086982	     119.575244
	 B(13,15,27)      =         2.097653	     120.186686
	 B(14,12,24)      =         2.093033	     119.921959
	 B(14,15,27)      =         2.098549	     120.238029
	 B(15,13,25)      =         2.100822	     120.368219
	 B(15,14,26)      =         2.097833	     120.196968
	 B(16,4,17)       =         2.052233	     117.584308
	 B(16,18,20)      =         2.117347	     121.315067
	 B(16,18,30)      =         2.068513	     118.517092
	 B(17,19,20)      =         2.118414	     121.376184
	 B(17,19,31)      =         2.068468	     118.514468
	 B(18,16,28)      =         2.070887	     118.653111
	 B(18,20,19)      =         2.051742	     117.556139
	 B(18,20,32)      =         2.115640	     121.217222
	 B(19,17,29)      =         2.056039	     117.802354
	 B(19,20,32)      =         2.115632	     121.216778
	 B(20,18,30)      =         2.097323	     120.167746
	 B(20,19,31)      =         2.096302	     120.109280
	 B(20,32,35)      =         1.981798	     113.548677
	 B(20,32,36)      =         1.981064	     113.506582
	 B(35,32,36)      =         1.902083	     108.981329
	*D(1,2,3,4)       =         2.400517	     137.539488
	 D(1,2,3,5)       =        -1.500432	     -85.968423
	*D(1,2,10,11)     =        -0.899548	     -51.540317
	*D(1,2,10,12)     =         2.264876	     129.767822
	 D(1,6,9,7)       =        -0.006200	      -0.355214
	 D(1,6,9,34)      =         3.134346	     179.584815
	 D(1,8,7,9)       =         0.022882	       1.311050
	 D(1,8,7,21)      =        -3.123998	    -178.991874
	 D(2,1,6,9)       =        -3.129669	    -179.316825
	 D(2,1,6,33)      =         0.006686	       0.383091
	 D(2,1,8,7)       =         3.123715	     178.975675
	 D(2,1,8,22)      =        -0.023405	      -1.340984
	*D(2,3,4,16)      =        -3.109645	    -178.169533
	 D(2,3,4,17)      =         0.004607	       0.263978
	 D(2,10,11,13)    =        -3.121004	    -178.820337
	 D(2,10,11,23)    =         0.013689	       0.784304
	 D(2,10,12,14)    =         3.120815	     178.809525
	 D(2,10,12,24)    =        -0.015583	      -0.892822
	 D(3,2,1,6)       =         1.094231	      62.694802
	 D(3,2,1,8)       =        -2.056753	    -117.843293
	*D(3,2,10,11)     =         2.158011	     123.644936
	 D(3,2,10,12)     =        -0.960750	     -55.046925
	 D(3,4,16,18)     =        -3.132581	    -179.483672
	 D(3,4,16,28)     =         0.011010	       0.630814
	 D(3,4,17,19)     =         3.136589	     179.713298
	 D(3,4,17,29)     =        -0.012109	      -0.693774
	*D(4,3,2,10)      =        -0.663972	     -38.042810
	 D(4,16,18,20)    =        -0.007534	      -0.431692
	 D(4,16,18,30)    =         3.136018	     179.680602
	 D(4,17,19,20)    =         0.002939	       0.168391
	 D(4,17,19,31)    =        -3.140313	    -179.926667
	 D(5,3,2,10)      =         1.718264	      98.449279
	 D(5,3,4,16)      =         0.794384	      45.514830
	 D(5,3,4,17)      =        -2.374549	    -136.051658
	 D(6,1,2,10)      =        -2.131321	    -122.115705
	 D(6,1,8,7)       =        -0.025697	      -1.472326
	 D(6,1,8,22)      =         3.110369	     178.211016
	 D(6,9,7,8)       =        -0.011458	      -0.656519
	 D(6,9,7,21)      =         3.135757	     179.665635
	 D(7,9,6,33)      =         3.140635	     179.945107
	 D(8,1,2,10)      =         1.000880	      57.346200
	 D(8,1,6,9)       =         0.019805	       1.134751
	 D(8,1,6,33)      =        -3.127025	    -179.165333
	 D(8,7,9,34)      =         3.131058	     179.396392
	 D(9,7,8,22)      =        -3.113828	    -178.409202
	 D(10,11,13,15)   =         0.001519	       0.087018
	 D(10,11,13,25)   =         3.139321	     179.869857
	 D(10,12,14,15)   =        -0.000983	      -0.056319
	 D(10,12,14,26)   =        -3.140284	    -179.925009
	 D(11,10,12,14)   =         0.001606	       0.092015
	 D(11,10,12,24)   =        -3.134792	    -179.610332
	 D(11,13,15,14)   =        -0.000858	      -0.049187
	 D(11,13,15,27)   =         3.139445	     179.876958
	 D(12,10,11,13)   =        -0.001875	      -0.107403
	 D(12,10,11,23)   =         3.132818	     179.497238
	 D(12,14,15,13)   =         0.000592	       0.033893
	 D(12,14,15,27)   =        -3.139711	    -179.892213
	 D(13,15,14,26)   =         3.139876	     179.901669
	 D(14,15,13,25)   =        -3.138623	    -179.829840
	 D(15,13,11,23)   =        -3.133178	    -179.517864
	 D(15,14,12,24)   =         3.135396	     179.644979
	 D(16,4,17,19)    =        -0.032215	      -1.845806
	 D(16,4,17,29)    =         3.102273	     177.747122
	 D(16,18,20,19)   =        -0.022090	      -1.265664
	 D(16,18,20,32)   =         3.139208	     179.863360
	 D(17,4,16,18)    =         0.034493	       1.976317
	 D(17,4,16,28)    =        -3.105101	    -177.909196
	 D(17,19,20,18)   =         0.024380	       1.396869
	 D(17,19,20,32)   =        -3.136918	    -179.732149
	 D(18,20,19,31)   =        -3.115527	    -178.506576
	*D(18,20,32,35)   =        -0.501019	     -28.706283
	 D(18,20,32,36)   =        -2.686227	    -153.909444
	 D(19,20,18,30)   =         3.117511	     178.620209
	 D(19,20,32,35)   =         2.661001	     152.464127
	 D(19,20,32,36)   =         0.475794	      27.260966
	 D(20,18,16,28)   =         3.132091	     179.455623
	 D(20,19,17,29)   =        -3.131780	    -179.437789
	 D(21,7,8,22)     =         0.022478	       1.287874
	 D(21,7,9,34)     =        -0.004912	      -0.281454
	 D(23,11,13,25)   =         0.004625	       0.264975
	 D(24,12,14,26)   =        -0.003904	      -0.223711
	 D(25,13,15,27)   =         0.001681	       0.096305
	 D(26,14,15,27)   =        -0.000426	      -0.024437
	 D(28,16,18,30)   =        -0.007541	      -0.432083
	 D(29,17,19,31)   =         0.008153	       0.467153
	 D(30,18,20,32)   =        -0.004377	      -0.250768
	 D(31,19,20,32)   =         0.006360	       0.364406
	 D(33,6,9,34)     =        -0.002005	      -0.114864
	 R(4,12)          =         6.687100	       3.538661
	 R(8,11)          =         6.310241	       3.339236
	 R(10,17)         =         6.003235	       3.176775
	 R(10,22)         =         6.690638	       3.540533
	 R(11,17)         =         7.002244	       3.705428
	 R(11,22)         =         5.756918	       3.046430
	 R(12,17)         =         6.639569	       3.513509

	Current energy   :      -895.8836852797

	Generating empirical Hessian (Schlegel '84) for each fragment.
	Taking RFO optimization step.
	Going to follow RFO solution 1.
	Using RFO vector 1.

	Determining step-restricting scale parameter for RS-RFO.
	Maximum step size allowed    0.50000

	 Iter      |step|        alpha        rfo_root  
	------------------------------------------------
	    0     0.72339       1.00000           1
	    1     0.57025       1.71375           1
	    2     0.51110       2.18367           1
	    3     0.50036       2.28805           1
	    4     0.50000       2.29168           1
	------------------------------------------------
	Norm of target step-size    0.50000
	Projected energy change by RFO approximation:        -0.0378125346

	Back-transformation to cartesian coordinates...
	Could not converge backtransformation.
	Using first guess instead.

	Back-transformation to cartesian coordinates to adjust frozen coordinates...

	--- Internal Coordinate Step in ANG or DEG, aJ/ANG or AJ/DEG ---
	 ---------------------------------------------------------------------------
	   Coordinate                Previous        Force       Change         New 
	   ----------                --------       ------       ------       ------
	    1 R(1,2)          =      1.381300     0.100868     0.015112     1.396412
	    2 R(1,6)          =      1.453486    -0.025440     0.012892     1.466377
	    3 R(1,8)          =      1.506569    -0.068194     0.003432     1.510001
	    4 R(2,3)          =      1.421833     0.104985     0.014572     1.436404
	    5 R(2,10)         =      1.486847    -0.011404     0.004253     1.491100
	    6 R(3,4)          =      1.440981    -0.072489    -0.009505     1.431476
	    7 R(3,5)          =      1.021431    -0.007234     0.002763     1.024195
	    8 R(4,16)         =      1.419317    -0.158496    -0.019724     1.399593
	    9 R(4,17)         =      1.418146    -0.140854    -0.017268     1.400878
	   10 R(6,9)          =      1.360012    -0.032761    -0.000647     1.359365
	   11 R(6,33)         =      1.080703    -0.033098     0.007655     1.088358
	   12 R(7,8)          =      1.386949     0.041217     0.011274     1.398223
	   13 R(7,9)          =      1.387871    -0.003683     0.013017     1.400888
	   14 R(7,21)         =      1.009931    -0.064624    -0.004773     1.005158
	   15 R(8,22)         =      1.238081     0.127503     0.017340     1.255422
	   16 R(9,34)         =      1.081496    -0.031821     0.000025     1.081521
	   17 R(10,11)        =      1.417428    -0.087832    -0.009428     1.408000
	   18 R(10,12)        =      1.417103    -0.109014    -0.011627     1.405476
	   19 R(11,13)        =      1.400013    -0.064428    -0.006825     1.393188
	   20 R(11,23)        =      1.092096    -0.060566    -0.008460     1.083636
	   21 R(12,14)        =      1.400468    -0.087010    -0.009892     1.390576
	   22 R(12,24)        =      1.090600    -0.044255    -0.006060     1.084540
	   23 R(13,15)        =      1.409476    -0.116353    -0.013946     1.395531
	   24 R(13,25)        =      1.090884    -0.053365    -0.007214     1.083670
	   25 R(14,15)        =      1.409826    -0.121203    -0.014783     1.395043
	   26 R(14,26)        =      1.091002    -0.053936    -0.007314     1.083688
	   27 R(15,27)        =      1.091383    -0.055285    -0.007758     1.083625
	   28 R(16,18)        =      1.401486    -0.103876    -0.012125     1.389361
	   29 R(16,28)        =      1.092892    -0.057034    -0.007699     1.085193
	   30 R(17,19)        =      1.401694    -0.092016    -0.010641     1.391053
	   31 R(17,29)        =      1.088610    -0.054322    -0.007880     1.080730
	   32 R(18,20)        =      1.415159    -0.128526    -0.015161     1.399999
	   33 R(18,30)        =      1.092292    -0.052010    -0.007598     1.084694
	   34 R(19,20)        =      1.415255    -0.134566    -0.016121     1.399134
	   35 R(19,31)        =      1.092333    -0.053279    -0.007108     1.085224
	   36 R(20,32)        =      1.426680    -0.116554    -0.014544     1.412135
	   37 R(32,35)        =      1.020438    -0.073539    -0.008800     1.011638
	   38 R(32,36)        =      1.020563    -0.074689    -0.006296     1.014267
	   39 B(1,2,3)        =    117.216797    -0.000610    -1.153756   116.063042
	   40 B(1,2,10)       =    125.303709    -0.000443    -0.799731   124.503978
	   41 B(1,6,9)        =    107.335009     0.000483     0.697820   108.032829
	   42 B(1,6,33)       =    126.301415    -0.000263    -0.113750   126.187665
	   43 B(1,8,7)        =    104.129925    -0.000065    -0.706723   103.423203
	   44 B(1,8,22)       =    132.474450     0.000156     1.015537   133.489987
	   45 B(2,1,6)        =    127.042524    -0.000368    -2.180808   124.861715
	   46 B(2,1,8)        =    126.432300     0.000444     2.067303   128.499603
	   47 B(2,3,4)        =    131.942095    -0.001372    -3.035610   128.906485
	   48 B(2,3,5)        =    107.607350     0.001143     4.096024   111.703374
	   49 B(2,10,11)      =    120.771464     0.000662     2.492545   123.264009
	   50 B(2,10,12)      =    120.426462    -0.000722    -2.289896   118.136567
	   51 B(3,2,10)       =    117.314517     0.001055     1.956503   119.271020
	   52 B(3,4,16)       =    118.096821    -0.000957    -2.142609   115.954212
	   53 B(3,4,17)       =    124.301264     0.000800     1.716258   126.017522
	   54 B(4,3,5)        =    108.181295     0.000275     1.099886   109.281181
	   55 B(4,16,18)      =    121.085020     0.000033    -0.010628   121.074392
	   56 B(4,16,28)      =    120.261773    -0.000180    -0.502932   119.758842
	   57 B(4,17,19)      =    121.041112    -0.000101    -0.241370   120.799742
	   58 B(4,17,29)      =    121.155336    -0.000132    -0.419092   120.736244
	   59 B(6,1,8)        =    106.523484    -0.000075     0.109127   106.632611
	   60 B(6,9,7)        =    110.608733    -0.000475    -1.058647   109.550086
	   61 B(6,9,34)       =    129.857555     0.000084    -0.343730   129.513825
	   62 B(7,8,22)       =    123.394875    -0.000089    -0.413850   122.981026
	   63 B(7,9,34)       =    119.533686     0.000392     1.398921   120.932607
	   64 B(8,7,9)        =    111.381061     0.000131     0.910045   112.291106
	   65 B(8,7,21)       =    121.727700    -0.000019    -0.655787   121.071914
	   66 B(9,6,33)       =    126.362825    -0.000220    -0.592805   125.770020
	   67 B(9,7,21)       =    126.890445    -0.000112    -0.263596   126.626849
	   68 B(10,11,13)     =    120.566178    -0.000194    -0.205952   120.360226
	   69 B(10,11,23)     =    119.746909    -0.000065    -0.399961   119.346948
	   70 B(10,12,14)     =    120.508417    -0.000014     0.191942   120.700359
	   71 B(10,12,24)     =    119.568956     0.000023    -0.029543   119.539413
	   72 B(11,10,12)     =    118.789449     0.000060    -0.202557   118.586893
	   73 B(11,13,15)     =    120.262329     0.000085     0.241127   120.503456
	   74 B(11,13,25)     =    119.369093    -0.000000    -0.002408   119.366684
	   75 B(12,14,15)     =    120.298292     0.000047     0.060376   120.358668
	   76 B(12,14,26)     =    119.504609    -0.000016    -0.009297   119.495312
	   77 B(13,11,23)     =    119.685739     0.000259     0.606076   120.291815
	   78 B(13,15,14)     =    119.575244     0.000016    -0.086068   119.489176
	   79 B(13,15,27)     =    120.186686     0.000025     0.152025   120.338712
	   80 B(14,12,24)     =    119.921959    -0.000009    -0.161999   119.759960
	   81 B(14,15,27)     =    120.238029    -0.000041    -0.066032   120.171997
	   82 B(15,13,25)     =    120.368219    -0.000085    -0.238679   120.129540
	   83 B(15,14,26)     =    120.196968    -0.000031    -0.051587   120.145381
	   84 B(16,4,17)      =    117.584308     0.000157     0.422088   118.006396
	   85 B(16,18,20)     =    121.315067    -0.000137    -0.323158   120.991909
	   86 B(16,18,30)     =    118.517092     0.000170     0.450094   118.967186
	   87 B(17,19,20)     =    121.376184    -0.000074    -0.200113   121.176071
	   88 B(17,19,31)     =    118.514468     0.000125     0.368423   118.882891
	   89 B(18,16,28)     =    118.653111     0.000147     0.512503   119.165613
	   90 B(18,20,19)     =    117.556139     0.000122     0.354027   117.910165
	   91 B(18,20,32)     =    121.217222    -0.000077    -0.177905   121.039316
	   92 B(19,17,29)     =    117.802354     0.000232     0.658935   118.461289
	   93 B(19,20,32)     =    121.216778    -0.000048    -0.204976   121.011801
	   94 B(20,18,30)     =    120.167746    -0.000033    -0.128659   120.039087
	   95 B(20,19,31)     =    120.109280    -0.000050    -0.168258   119.941021
	   96 B(20,32,35)     =    113.548677     0.000150     0.854104   114.402781
	   97 B(20,32,36)     =    113.506582     0.000122     0.806910   114.313492
	   98 B(35,32,36)     =    108.981329     0.000158     1.116296   110.097625
	   99 *D(1,2,3,4)     =    137.539488     0.000000     0.000408   137.539896
	  100 D(1,2,3,5)      =    -85.968423     0.000109     4.580884   -81.387539
	  101 *D(1,2,10,11)   =    -51.540317    -0.000000     0.000398   -51.539919
	  102 *D(1,2,10,12)   =    129.767822    -0.000000    -0.000041   129.767781
	  103 D(1,6,9,7)      =     -0.355214     0.000058     2.236398     1.881184
	  104 D(1,6,9,34)     =    179.584815     0.000046     1.610295   181.195110
	  105 D(1,8,7,9)      =      1.311050     0.000035     1.140933     2.451983
	  106 D(1,8,7,21)     =   -178.991874     0.000007     0.359595  -178.632278
	  107 D(2,1,6,9)      =   -179.316825     0.000005    -0.223464  -179.540289
	  108 D(2,1,6,33)     =      0.383091     0.000039     1.148605     1.531696
	  109 D(2,1,8,7)      =    178.975675    -0.000037    -1.085973   177.889702
	  110 D(2,1,8,22)     =     -1.340984     0.000063     3.026254     1.685270
	  111 *D(2,3,4,16)    =   -178.169533     0.000000    -0.000005  -178.169537
	  112 D(2,3,4,17)     =      0.263978     0.000003    -0.177732     0.086246
	  113 D(2,10,11,13)   =   -178.820337    -0.000002    -0.090890  -178.911227
	  114 D(2,10,11,23)   =      0.784304    -0.000001    -0.060251     0.724053
	  115 D(2,10,12,14)   =    178.809525     0.000012     0.357654   179.167179
	  116 D(2,10,12,24)   =     -0.892822     0.000009     0.248816    -0.644006
	  117 D(3,2,1,6)      =     62.694802    -0.000398   -11.729553    50.965249
	  118 D(3,2,1,8)      =   -117.843293    -0.000352   -10.172597  -128.015890
	  119 *D(3,2,10,11)   =    123.644936     0.000000    -0.000430   123.644506
	  120 D(3,2,10,12)    =    -55.046925     0.000000    -0.000869   -55.047794
	  121 D(3,4,16,18)    =   -179.483672    -0.000001    -0.254397  -179.738069
	  122 D(3,4,16,28)    =      0.630814     0.000008     0.025090     0.655904
	  123 D(3,4,17,19)    =    179.713298     0.000014     0.572016   180.285313
	  124 D(3,4,17,29)    =     -0.693774     0.000007     0.369362    -0.324412
	  125 *D(4,3,2,10)    =    -38.042810    -0.000000    -0.000439   -38.043248
	  126 D(4,16,18,20)   =     -0.431692     0.000002    -0.010466    -0.442157
	  127 D(4,16,18,30)   =    179.680602     0.000012     0.367698   180.048300
	  128 D(4,17,19,20)   =      0.168391    -0.000016    -0.468929    -0.300539
	  129 D(4,17,19,31)   =   -179.926667    -0.000014    -0.421465  -180.348132
	  130 D(5,3,2,10)     =     98.449279     0.000109     4.580037   103.029316
	  131 D(5,3,4,16)     =     45.514830    -0.000170    -5.478815    40.036016
	  132 D(5,3,4,17)     =   -136.051658    -0.000167    -5.656542  -141.708201
	  133 D(6,1,2,10)     =   -122.115705    -0.000381   -11.594958  -133.710663
	  134 D(6,1,8,7)      =     -1.472326     0.000001     0.234531    -1.237794
	  135 D(6,1,8,22)     =    178.211016     0.000101     4.346759   182.557774
	  136 D(6,9,7,8)      =     -0.656519    -0.000061    -2.204094    -2.860613
	  137 D(6,9,7,21)     =    179.665635    -0.000031    -1.369045   178.296590
	  138 D(7,9,6,33)     =    179.945107     0.000024     0.869751   180.814858
	  139 D(8,1,2,10)     =     57.346200    -0.000335   -10.038002    47.308198
	  140 D(8,1,6,9)      =      1.134751    -0.000035    -1.507218    -0.372466
	  141 D(8,1,6,33)     =   -179.165333    -0.000000    -0.135149  -179.300482
	  142 D(8,7,9,34)     =    179.396392    -0.000049    -1.639960   177.756432
	  143 D(9,7,8,22)     =   -178.409202    -0.000053    -2.420872  -180.830074
	  144 D(10,11,13,15)  =      0.087018    -0.000001    -0.071738     0.015279
	  145 D(10,11,13,25)  =    179.869857    -0.000001    -0.059826   179.810031
	  146 D(10,12,14,15)  =     -0.056319    -0.000010    -0.335342    -0.391661
	  147 D(10,12,14,26)  =   -179.925009    -0.000006    -0.176197  -180.101206
	  148 D(11,10,12,14)  =      0.092015     0.000011     0.320395     0.412410
	  149 D(11,10,12,24)  =   -179.610332     0.000007     0.211557  -179.398776
	  150 D(11,13,15,14)  =     -0.049187     0.000002     0.061947     0.012760
	  151 D(11,13,15,27)  =    179.876958     0.000000     0.012547   179.889504
	  152 D(12,10,11,13)  =     -0.107403    -0.000005    -0.117086    -0.224489
	  153 D(12,10,11,23)  =    179.497238    -0.000004    -0.086447   179.410791
	  154 D(12,14,15,13)  =      0.033893     0.000004     0.140498     0.174392
	  155 D(12,14,15,27)  =   -179.892213     0.000005     0.189651  -179.702562
	  156 D(13,15,14,26)  =    179.901669    -0.000001    -0.019628   179.882042
	  157 D(14,15,13,25)  =   -179.829840     0.000002     0.049416  -179.780424
	  158 D(15,13,11,23)  =   -179.517864    -0.000002    -0.098673  -179.616537
	  159 D(15,14,12,24)  =    179.644979    -0.000006    -0.225869   179.419110
	  160 D(16,4,17,19)   =     -1.845806     0.000013     0.354792    -1.491014
	  161 D(16,4,17,29)   =    177.747122     0.000006     0.152138   177.899261
	  162 D(16,18,20,19)  =     -1.265664    -0.000004    -0.086377    -1.352041
	  163 D(16,18,20,32)  =    179.863360     0.000032     1.025516   180.888876
	  164 D(17,4,16,18)   =      1.976317    -0.000006    -0.116516     1.859802
	  165 D(17,4,16,28)   =   -177.909196     0.000003     0.162971  -177.746226
	  166 D(17,19,20,18)  =      1.396869     0.000011     0.323023     1.719893
	  167 D(17,19,20,32)  =   -179.732149    -0.000025    -0.788228  -180.520376
	  168 D(18,20,19,31)  =   -178.506576     0.000009     0.274560  -178.232016
	  169 *D(18,20,32,35) =    -28.706283    -0.000000     0.000001   -28.706282
	  170 D(18,20,32,36)  =   -153.909444    -0.000102    -3.041911  -156.951356
	  171 D(19,20,18,30)  =    178.620209    -0.000014    -0.467927   178.152282
	  172 D(19,20,32,35)  =    152.464127     0.000037     1.140150   153.604277
	  173 D(19,20,32,36)  =     27.260966    -0.000066    -1.901762    25.359204
	  174 D(20,18,16,28)  =    179.455623    -0.000006    -0.289456   179.166168
	  175 D(20,19,17,29)  =   -179.437789    -0.000009    -0.266626  -179.704415
	  176 D(21,7,8,22)    =      1.287874    -0.000081    -3.202209    -1.914335
	  177 D(21,7,9,34)    =     -0.281454    -0.000020    -0.804911    -1.086365
	  178 D(23,11,13,25)  =      0.264975    -0.000002    -0.086760     0.178215
	  179 D(24,12,14,26)  =     -0.223711    -0.000002    -0.066724    -0.290435
	  180 D(25,13,15,27)  =      0.096305     0.000000     0.000016     0.096321
	  181 D(26,14,15,27)  =     -0.024437     0.000001     0.029525     0.005088
	  182 D(28,16,18,30)  =     -0.432083     0.000004     0.088708    -0.343375
	  183 D(29,17,19,31)  =      0.467153    -0.000007    -0.219161     0.247992
	  184 D(30,18,20,32)  =     -0.250768     0.000022     0.643966     0.393198
	  185 D(31,19,20,32)  =      0.364406    -0.000027    -0.836691    -0.472285
	  186 D(33,6,9,34)    =     -0.114864     0.000011     0.243648     0.128784
	  187 R(4,12)         =      3.538661    -0.023351    -0.019365     3.519295
	  188 R(8,11)         =      3.339236     0.030974     0.019373     3.358609
	  189 R(10,17)        =      3.176775    -0.031744    -0.012831     3.163945
	  190 R(10,22)        =      3.540533    -0.041628    -0.014035     3.526498
	  191 R(11,17)        =      3.705428    -0.009828    -0.007895     3.697532
	  192 R(11,22)        =      3.046430    -0.010314    -0.001809     3.044621
	  193 R(12,17)        =      3.513509    -0.008984    -0.008242     3.505267
	 ---------------------------------------------------------------------------
	Successfully symmetrized geometry.

  ==> Convergence Check <==

  Measures of convergence in internal coordinates in au.
  Criteria marked as inactive (o), active & met (*), and active & unmet ( ).
  --------------------------------------------------------------------------------------------- ~
   Step     Total Energy     Delta E     MAX Force     RMS Force      MAX Disp      RMS Disp    ~
  --------------------------------------------------------------------------------------------- ~
    Convergence Criteria             o    2.50e-03 *    1.70e-03 *    1.00e-02 *    6.70e-03 *  ~
  --------------------------------------------------------------------------------------------- ~
      1    -895.88368528   -8.96e+02 o    2.28e-02      6.36e-03      2.05e-01      3.57e-02    ~
  ---------------------------------------------------------------------------------------------

	Writing optimization data to binary file.
	Structure for next step:
	Cartesian Geometry (in Angstrom)
	    C    -1.0735507483   2.0807787814   0.1652186465
	    C    -0.4441225468   0.9498011697  -0.3588759530
	    N     0.9777414342   0.8741745032  -0.1695584866
	    C     1.7762657070  -0.2536688266   0.2038748469
	    H     1.4826434549   1.4303780088  -0.8657529557
	    C    -0.6517809727   3.4637326518  -0.0793452418
	    N    -2.4229022570   3.5202768910   1.3152083960
	    C    -2.2699105439   2.1498252088   1.0839457392
	    C    -1.4935884051   4.2868248326   0.6001783465
	    C    -1.1570497943  -0.1957093227  -0.9936349752
	    C    -2.2306132721  -0.8714168043  -0.3826165829
	    C    -0.7144887489  -0.6361446963  -2.2528086072
	    C    -2.8389446088  -1.9497976447  -1.0213654253
	    C    -1.3295468233  -1.7109051188  -2.8854966991
	    C    -2.3930825242  -2.3747200349  -2.2736249323
	    C     3.1470031054  -0.0120155958   0.3506478926
	    C     1.3047781060  -1.5469615852   0.4637826172
	    C     4.0211038008  -1.0321269159   0.7051108520
	    C     2.1807711028  -2.5650731633   0.8258778909
	    C     3.5560505961  -2.3323651116   0.9355505556
	    H    -3.1458213588   3.8665136576   1.9217150087
	    O    -2.9875786720   1.2794843592   1.6348925992
	    H    -2.5755600978  -0.5482530731   0.5924957718
	    H     0.1176500508  -0.1330874411  -2.7331257677
	    H    -3.6619537250  -2.4601609845  -0.5350263934
	    H    -0.9734687877  -2.0331361725  -3.8569673977
	    H    -2.8670360490  -3.2149289965  -2.7672437929
	    H     3.5376388504   0.9879732743   0.1923164211
	    H     0.2503315928  -1.7742584750   0.3970299164
	    H     5.0768457375  -0.8064592451   0.8101974719
	    H     1.7811414511  -3.5540549873   1.0256858815
	    N     4.4409072423  -3.3657819522   1.3139744188
	    H     0.1773555500   3.7808791169  -0.7090075072
	    H    -1.5097002513   5.3671580178   0.6482227994
	    H     5.3870998465  -3.2508786227   0.9749630643
	    H     4.1063570154  -4.2999000746   1.1036485757
			--------------------------
			 OPTKING Finished Execution 
			--------------------------

    Structure for next step:
    Molecular point group: c1
    Full point group: C1

    Geometry (in Angstrom), charge = 0, multiplicity = 1:

    C           -1.052169694064     2.089524845594     0.173162072340
    C           -0.422741490045     0.958547229442    -0.350932529202
    N            0.999122496516     0.882920562628    -0.161615062055
    C            1.797646772439    -0.244922771549     0.211818272891
    H            1.504024519145     1.439124070466    -0.857809533938
    C           -0.630399916791     3.472478721406    -0.071401816898
    N           -2.401521208038     3.529022960871     1.323151826407
    C           -2.248529494395     2.158571273247     1.091889168695
    C           -1.472207352492     4.295570905483     0.608121774056
    C           -1.135668740401    -0.186963267436    -0.985691553949
    C           -2.209232222380    -0.862670751704    -0.374673159244
    C           -0.693107693276    -0.627398642821    -2.244865190858
    C           -2.817563561470    -1.941051596338    -1.013422004074
    C           -1.308165770035    -1.702159069548    -2.877553285208
    C           -2.371701475121    -2.365973988212    -2.265681516012
    C            3.168384176227    -0.003269539862     0.358591319203
    C            1.326159169620    -1.538215535293     0.471726044270
    C            4.042484875082    -1.023380863901     0.713054279964
    C            2.202152169788    -2.556327117412     0.833821319323
    C            3.577431668560    -2.323619064807     0.943493984435
    H           -3.124440312677     3.875259728834     1.929658441472
    O           -2.966197625302     1.288230420246     1.642836030807
    H           -2.554179049445    -0.539507019225     0.600439199297
    H            0.139031109763    -0.124341385620    -2.725182353232
    H           -3.640572680948    -2.451414938174    -0.527082970345
    H           -0.952087733043    -2.024390124511    -3.849023987663
    H           -2.845655001817    -3.206182953137    -2.759300378590
    H            3.559019922805     0.996719334235     0.200259847007
    H            0.271712652251    -1.765512425968     0.404973343186
    H            5.098226815937    -0.797713192304     0.818140900299
    H            1.802522516530    -3.545308945251     1.033629310691
    N            4.462288318230    -3.357035909468     1.321917849136
    H            0.198736609145     3.789625187810    -0.701064084798
    H           -1.488319198812     5.375904094916     0.656166227185
    H            5.408480926093    -3.242132579467     0.982906493356
    H            4.127738090017    -4.291154035449     1.111592005200

gradient() will perform analytic gradient computation.

*** tstart() called on node44.bme.utexas.edu
*** at Sat Nov  6 22:34:43 2021

   => Loading Basis Set <=

    Name: 6-311G
    Role: ORBITAL
    Keyword: BASIS
    atoms 1-2, 4, 6, 8-20     entry C          line    92 file /home/bdw2292/miniconda3/envs/amoebamdpoltype/share/psi4/basis/6-311g.gbs 
    atoms 3, 7, 32            entry N          line   109 file /home/bdw2292/miniconda3/envs/amoebamdpoltype/share/psi4/basis/6-311g.gbs 
    atoms 5, 21, 23-31, 33-36 entry H          line    21 file /home/bdw2292/miniconda3/envs/amoebamdpoltype/share/psi4/basis/6-311g.gbs 
    atoms 22                  entry O          line   126 file /home/bdw2292/miniconda3/envs/amoebamdpoltype/share/psi4/basis/6-311g.gbs 


         ---------------------------------------------------------
                                   SCF
               by Justin Turney, Rob Parrish, Andy Simmonett
                          and Daniel G. A. Smith
                              RKS Reference
                        1 Threads,   7947 MiB Core
         ---------------------------------------------------------

  ==> Geometry <==

    Molecular point group: c1
    Full point group: C1

    Geometry (in Angstrom), charge = 0, multiplicity = 1:

       Center              X                  Y                   Z               Mass       
    ------------   -----------------  -----------------  -----------------  -----------------
         C           -1.052169694064     2.089524845594     0.173162072340    12.000000000000
         C           -0.422741490045     0.958547229442    -0.350932529202    12.000000000000
         N            0.999122496516     0.882920562628    -0.161615062055    14.003074004430
         C            1.797646772439    -0.244922771549     0.211818272891    12.000000000000
         H            1.504024519145     1.439124070466    -0.857809533938     1.007825032230
         C           -0.630399916791     3.472478721406    -0.071401816898    12.000000000000
         N           -2.401521208038     3.529022960871     1.323151826407    14.003074004430
         C           -2.248529494395     2.158571273247     1.091889168695    12.000000000000
         C           -1.472207352492     4.295570905483     0.608121774056    12.000000000000
         C           -1.135668740401    -0.186963267436    -0.985691553949    12.000000000000
         C           -2.209232222380    -0.862670751704    -0.374673159244    12.000000000000
         C           -0.693107693276    -0.627398642821    -2.244865190858    12.000000000000
         C           -2.817563561470    -1.941051596338    -1.013422004074    12.000000000000
         C           -1.308165770035    -1.702159069548    -2.877553285208    12.000000000000
         C           -2.371701475121    -2.365973988212    -2.265681516012    12.000000000000
         C            3.168384176227    -0.003269539862     0.358591319203    12.000000000000
         C            1.326159169620    -1.538215535293     0.471726044270    12.000000000000
         C            4.042484875082    -1.023380863901     0.713054279964    12.000000000000
         C            2.202152169788    -2.556327117412     0.833821319323    12.000000000000
         C            3.577431668560    -2.323619064807     0.943493984435    12.000000000000
         H           -3.124440312677     3.875259728834     1.929658441472     1.007825032230
         O           -2.966197625302     1.288230420246     1.642836030807    15.994914619570
         H           -2.554179049445    -0.539507019225     0.600439199297     1.007825032230
         H            0.139031109763    -0.124341385620    -2.725182353232     1.007825032230
         H           -3.640572680948    -2.451414938174    -0.527082970345     1.007825032230
         H           -0.952087733043    -2.024390124511    -3.849023987663     1.007825032230
         H           -2.845655001817    -3.206182953137    -2.759300378590     1.007825032230
         H            3.559019922805     0.996719334235     0.200259847007     1.007825032230
         H            0.271712652251    -1.765512425968     0.404973343186     1.007825032230
         H            5.098226815937    -0.797713192304     0.818140900299     1.007825032230
         H            1.802522516530    -3.545308945251     1.033629310691     1.007825032230
         N            4.462288318230    -3.357035909468     1.321917849136    14.003074004430
         H            0.198736609145     3.789625187810    -0.701064084798     1.007825032230
         H           -1.488319198812     5.375904094916     0.656166227185     1.007825032230
         H            5.408480926093    -3.242132579467     0.982906493356     1.007825032230
         H            4.127738090017    -4.291154035449     1.111592005200     1.007825032230

  Running in c1 symmetry.

  Rotational constants: A =      0.01385  B =      0.00704  C =      0.00541 [cm^-1]
  Rotational constants: A =    415.25738  B =    211.06228  C =    162.07052 [MHz]
  Nuclear repulsion = 1525.856248488609026

  Charge       = 0
  Multiplicity = 1
  Electrons    = 146
  Nalpha       = 73
  Nbeta        = 73

  ==> Algorithm <==

  SCF Algorithm Type is DF.
  DIIS enabled.
  MOM disabled.
  Fractional occupation disabled.
  Guess Type is READ.
  Energy threshold   = 1.00e-08
  Density threshold  = 1.00e-08
  Integral threshold = 0.00e+00

  ==> Primary Basis <==

  Basis Set: 6-311G
    Blend: 6-311G
    Number of shells: 192
    Number of basis function: 318
    Number of Cartesian functions: 318
    Spherical Harmonics?: true
    Max angular momentum: 1

  ==> DFT Potential <==

   => Composite Functional: WB97X-D <= 

    wB97X-D Hyb-GGA Exchange-Correlation Functional

    J.-D. Chai and M. Head-Gordon, Phys. Chem. Chem. Phys. 10, 6615 (2008)

    Deriv               =              1
    GGA                 =           TRUE
    Meta                =          FALSE

    Exchange Hybrid     =           TRUE
    MP2 Hybrid          =          FALSE

   => Exchange-Correlation Functionals <=

    1.0000   wB97D range-separated functional

   => Exact (HF) Exchange <=

    0.7780            HF,LR [omega = 0.2000]
    0.2220               HF 

   => Molecular Quadrature <=

    Radial Scheme          =       TREUTLER
    Pruning Scheme         =           FLAT
    Nuclear Scheme         =       TREUTLER

    BS radius alpha        =              1
    Pruning alpha          =              1
    Radial Points          =             75
    Spherical Points       =            302
    Total Points           =         806518
    Total Blocks           =           5762
    Max Points             =            256
    Max Functions          =            222

   => WB97X-D: Empirical Dispersion <=

    Chai and Head-Gordon Dispersion Correction
    Chai, J.-D.; Head-Gordon, M. (2010), J. Chem. Phys., 132: 6615-6620

        s6 =       1.000000

   => Loading Basis Set <=

    Name: (6-311G AUX)
    Role: JKFIT
    Keyword: DF_BASIS_SCF
    atoms 1-2, 4, 6, 8-20     entry C          line   125 file /home/bdw2292/miniconda3/envs/amoebamdpoltype/share/psi4/basis/cc-pvtz-jkfit.gbs 
    atoms 3, 7, 32            entry N          line   177 file /home/bdw2292/miniconda3/envs/amoebamdpoltype/share/psi4/basis/cc-pvtz-jkfit.gbs 
    atoms 5, 21, 23-31, 33-36 entry H          line    51 file /home/bdw2292/miniconda3/envs/amoebamdpoltype/share/psi4/basis/cc-pvtz-jkfit.gbs 
    atoms 22                  entry O          line   229 file /home/bdw2292/miniconda3/envs/amoebamdpoltype/share/psi4/basis/cc-pvtz-jkfit.gbs 

   => Loading Basis Set <=

    Name: 6-311G
    Role: ORBITAL
    Keyword: BASIS
    atoms 1-2, 4, 6, 8-20     entry C          line    92 file /home/bdw2292/miniconda3/envs/amoebamdpoltype/share/psi4/basis/6-311g.gbs 
    atoms 3, 7, 32            entry N          line   109 file /home/bdw2292/miniconda3/envs/amoebamdpoltype/share/psi4/basis/6-311g.gbs 
    atoms 5, 21, 23-31, 33-36 entry H          line    21 file /home/bdw2292/miniconda3/envs/amoebamdpoltype/share/psi4/basis/6-311g.gbs 
    atoms 22                  entry O          line   126 file /home/bdw2292/miniconda3/envs/amoebamdpoltype/share/psi4/basis/6-311g.gbs 

  Reading orbitals from file 180, no projection.

  ==> Pre-Iterations <==

   -------------------------------------------------------
    Irrep   Nso     Nmo     Nalpha   Nbeta   Ndocc  Nsocc
   -------------------------------------------------------
     A        318     318       0       0       0       0
   -------------------------------------------------------
    Total     318     318      73      73      73       0
   -------------------------------------------------------

  ==> Integral Setup <==

  ==> DiskDFJK: Density-Fitted J/K Matrices <==

    J tasked:                  Yes
    K tasked:                  Yes
    wK tasked:                 Yes
    Omega:               2.000E-01
    OpenMP threads:              1
[...]
	   43 B(1,8,7)        =    104.506845    -0.000022    -0.026596   104.480249
	   44 B(1,8,22)       =    131.616745    -0.000015    -0.110152   131.506593
	   45 B(2,1,6)        =    127.406195    -0.000029    -0.010142   127.396053
	   46 B(2,1,8)        =    125.836872     0.000013    -0.012318   125.824554
	   47 B(2,3,4)        =    130.320150     0.000013     0.017448   130.337598
	   48 B(2,3,5)        =    114.021460    -0.000008    -0.028120   113.993339
	   49 B(2,10,11)      =    120.912165    -0.000008    -0.083046   120.829119
	   50 B(2,10,12)      =    119.534270     0.000002     0.010529   119.544799
	   51 B(3,2,10)       =    117.270806     0.000004    -0.070111   117.200695
	   52 B(3,4,16)       =    117.065580     0.000005    -0.028419   117.037162
	   53 B(3,4,17)       =    124.674877     0.000003     0.061752   124.736629
	   54 B(4,3,5)        =    113.210463    -0.000005    -0.013715   113.196748
	   55 B(4,16,18)      =    121.338338     0.000005     0.021505   121.359843
	   56 B(4,16,28)      =    119.585298    -0.000003    -0.019983   119.565315
	   57 B(4,17,19)      =    120.414143    -0.000000     0.003792   120.417935
	   58 B(4,17,29)      =    120.844716     0.000006     0.032473   120.877189
	   59 B(6,1,8)        =    106.474971     0.000016     0.029352   106.504323
	   60 B(6,9,7)        =    109.744593    -0.000012    -0.029236   109.715358
	   61 B(6,9,34)       =    129.519155     0.000002    -0.001066   129.518089
	   62 B(7,8,22)       =    123.866023     0.000038     0.137683   124.003706
	   63 B(7,9,34)       =    120.713871     0.000010     0.026564   120.740435
	   64 B(8,7,9)        =    111.279374     0.000018     0.030346   111.309720
	   65 B(8,7,21)       =    122.252511    -0.000019    -0.054420   122.198091
	   66 B(9,6,33)       =    125.262568    -0.000001    -0.015426   125.247142
	   67 B(9,7,21)       =    126.467133     0.000000     0.025032   126.492164
	   68 B(10,11,13)     =    120.143341     0.000001    -0.038488   120.104854
	   69 B(10,11,23)     =    119.326602     0.000002     0.027411   119.354013
	   70 B(10,12,14)     =    120.262540    -0.000001    -0.038125   120.224416
	   71 B(10,12,24)     =    119.275096    -0.000001     0.017450   119.292546
	   72 B(11,10,12)     =    119.539909     0.000005     0.072497   119.612405
	   73 B(11,13,15)     =    120.144663    -0.000006    -0.020395   120.124267
	   74 B(11,13,25)     =    119.777980     0.000003     0.007492   119.785472
	   75 B(12,14,15)     =    119.961033     0.000003     0.006368   119.967401
	   76 B(12,14,26)     =    119.893525    -0.000003    -0.008106   119.885419
	   77 B(13,11,23)     =    120.529414    -0.000003     0.011616   120.541030
	   78 B(13,15,14)     =    119.942951    -0.000002     0.016232   119.959184
	   79 B(13,15,27)     =    120.001552     0.000001    -0.005285   119.996267
	   80 B(14,12,24)     =    120.459733     0.000002     0.019903   120.479636
	   81 B(14,15,27)     =    120.054702     0.000002    -0.011032   120.043669
	   82 B(15,13,25)     =    120.074507     0.000003     0.012988   120.087494
	   83 B(15,14,26)     =    120.145412    -0.000000     0.001766   120.147179
	   84 B(16,4,17)      =    118.200107    -0.000008    -0.027316   118.172791
	   85 B(16,18,20)     =    120.664082     0.000003     0.003846   120.667928
	   86 B(16,18,30)     =    119.632069     0.000001     0.010863   119.642932
	   87 B(17,19,20)     =    121.532027     0.000006     0.020063   121.552090
	   88 B(17,19,31)     =    118.853530    -0.000000     0.003662   118.857191
	   89 B(18,16,28)     =    119.075796    -0.000001    -0.001632   119.074165
	   90 B(18,20,19)     =    117.811902    -0.000005    -0.019926   117.791976
	   91 B(18,20,32)     =    120.770709    -0.000001     0.000040   120.770749
	   92 B(19,17,29)     =    118.739131    -0.000006    -0.036036   118.703095
	   93 B(19,20,32)     =    121.358071     0.000006     0.019613   121.377685
	   94 B(20,18,30)     =    119.703238    -0.000004    -0.014841   119.688397
	   95 B(20,19,31)     =    119.613304    -0.000005    -0.023722   119.589583
	   96 B(20,32,35)     =    119.341916     0.000004     0.054899   119.396816
	   97 B(20,32,36)     =    118.851481     0.000005     0.057147   118.908629
	   98 B(35,32,36)     =    115.937397    -0.000004     0.035210   115.972608
	   99 *D(1,2,3,4)     =    137.498099    -0.000000     0.000000   137.498100
	  100 D(1,2,3,5)      =    -23.262393     0.000000     0.097007   -23.165386
	  101 *D(1,2,10,11)   =    -51.580726    -0.000000     0.000000   -51.580726
	  102 *D(1,2,10,12)   =    129.769767     0.000000     0.000000   129.769767
	  103 D(1,6,9,7)      =     -0.785415    -0.000000     0.009053    -0.776363
	  104 D(1,6,9,34)     =    177.472011    -0.000001    -0.130413   177.341598
	  105 D(1,8,7,9)      =     -0.507167     0.000001     0.299329    -0.207838
	  106 D(1,8,7,21)     =    179.831718     0.000000    -0.092792   179.738926
	  107 D(2,1,6,9)      =    174.602894     0.000001     0.244329   174.847222
	  108 D(2,1,6,33)     =    -10.002121     0.000000     0.122065    -9.880056
	  109 D(2,1,8,7)      =   -174.227272    -0.000001    -0.352459  -174.579731
	  110 D(2,1,8,22)     =      4.604225    -0.000000    -0.296745     4.307480
	  111 *D(2,3,4,16)    =   -178.169253    -0.000000     0.000000  -178.169253
	  112 D(2,3,4,17)     =     -1.032081     0.000000     0.147766    -0.884316
	  113 D(2,10,11,13)   =   -177.833343     0.000001     0.146005  -177.687338
	  114 D(2,10,11,23)   =      2.456834    -0.000000    -0.027685     2.429149
	  115 D(2,10,12,14)   =    178.291774    -0.000000    -0.091804   178.199970
	  116 D(2,10,12,24)   =     -1.121000    -0.000000    -0.011262    -1.132262
	  117 D(3,2,1,6)      =     -6.741729    -0.000002    -0.255112    -6.996841
	  118 D(3,2,1,8)      =    166.320147    -0.000002    -0.168231   166.151915
	  119 *D(3,2,10,11)   =    123.686872     0.000000    -0.000000   123.686872
	  120 D(3,2,10,12)    =    -54.962635     0.000000    -0.000000   -54.962636
	  121 D(3,4,16,18)    =    177.827065     0.000000     0.080708   177.907773
	  122 D(3,4,16,28)    =     -1.896339     0.000000     0.106349    -1.789990
	  123 D(3,4,17,19)    =   -178.902413    -0.000000    -0.077565  -178.979978
	  124 D(3,4,17,29)    =      1.619882    -0.000000    -0.108100     1.511782
	  125 *D(4,3,2,10)    =    -37.999995    -0.000000    -0.000000   -37.999995
	  126 D(4,16,18,20)   =      1.316260    -0.000000     0.007306     1.323567
	  127 D(4,16,18,30)   =   -178.398614     0.000000     0.036694  -178.361920
	  128 D(4,17,19,20)   =      1.320657    -0.000000    -0.031715     1.288942
	  129 D(4,17,19,31)   =   -179.069184    -0.000000    -0.031286  -179.100470
	  130 D(5,3,2,10)     =    161.239513     0.000000     0.097007   161.336520
	  131 D(5,3,4,16)     =    -17.285433    -0.000000    -0.098652   -17.384085
	  132 D(5,3,4,17)     =    159.851739    -0.000000     0.049114   159.900853
	  133 D(6,1,2,10)     =    168.451737    -0.000002    -0.259927   168.191810
	  134 D(6,1,8,7)      =      0.029900    -0.000001    -0.282288    -0.252389
	  135 D(6,1,8,22)     =    178.861397    -0.000000    -0.226574   178.634823
	  136 D(6,9,7,8)      =      0.840835    -0.000000    -0.204065     0.636771
	  137 D(6,9,7,21)     =   -179.515540     0.000001     0.208346  -179.307194
	  138 D(7,9,6,33)     =   -176.256433     0.000000     0.127854  -176.128579
	  139 D(8,1,2,10)     =    -18.486387    -0.000002    -0.173047   -18.659434
	  140 D(8,1,6,9)      =      0.464250     0.000001     0.172815     0.637066
	  141 D(8,1,6,33)     =    175.859236     0.000000     0.050551   175.909787
	  142 D(8,7,9,34)     =   -177.595646     0.000000    -0.078447  -177.674093
	  143 D(9,7,8,22)     =   -179.455112     0.000000     0.252501  -179.202611
	  144 D(10,11,13,15)  =     -0.591404    -0.000001    -0.097561    -0.688965
	  145 D(10,11,13,25)  =   -179.977677    -0.000001    -0.106835  -180.084512
	  146 D(10,12,14,15)  =     -0.288761    -0.000000    -0.013159    -0.301920
	  147 D(10,12,14,26)  =    179.648878     0.000000     0.059997   179.708875
	  148 D(11,10,12,14)  =     -0.376452    -0.000000    -0.089691    -0.466143
	  149 D(11,10,12,24)  =   -179.789226    -0.000000    -0.009150  -179.798375
	  150 D(11,13,15,14)  =     -0.078043     0.000000    -0.005157    -0.083200
	  151 D(11,13,15,27)  =   -179.753802     0.000000     0.011766  -179.742036
	  152 D(12,10,11,13)  =      0.816089     0.000001     0.145176     0.961265
	  153 D(12,10,11,23)  =   -178.893734    -0.000000    -0.028515  -178.922249
	  154 D(12,14,15,13)  =      0.517400     0.000000     0.060925     0.578325
	  155 D(12,14,15,27)  =   -179.807014     0.000000     0.044013  -179.763001
	  156 D(13,15,14,26)  =   -179.420080    -0.000000    -0.012419  -179.432498
	  157 D(14,15,13,25)  =    179.306399     0.000000     0.004110   179.310510
	  158 D(15,13,11,23)  =    179.114891     0.000000     0.078259   179.193150
	  159 D(15,14,12,24)  =    179.116998    -0.000001    -0.094685   179.022313
	  160 D(16,4,17,19)   =     -1.795099     0.000000     0.071750    -1.723349
	  161 D(16,4,17,29)   =    178.727196    -0.000000     0.041215   178.768411
	  162 D(16,18,20,19)  =     -1.785917     0.000000     0.033681    -1.752237
	  163 D(16,18,20,32)  =   -179.022439     0.000001     0.039493  -178.982946
	  164 D(17,4,16,18)   =      0.498389     0.000000    -0.059698     0.438691
	  165 D(17,4,16,28)   =   -179.225015     0.000000    -0.034057  -179.259072
	  166 D(17,19,20,18)  =      0.485109     0.000000    -0.021265     0.463845
	  167 D(17,19,20,32)  =    177.704500    -0.000000    -0.027694   177.676805
	  168 D(18,20,19,31)  =   -179.122146     0.000000    -0.021803  -179.143949
	  169 *D(18,20,32,35) =    -28.706035    -0.000000     0.000000   -28.706035
	  170 D(18,20,32,36)  =    179.340982    -0.000003    -0.340273   179.000709
	  171 D(19,20,18,30)  =    177.928755    -0.000000     0.004353   177.933108
	  172 D(19,20,32,35)  =    154.156396     0.000001     0.007147   154.163543
	  173 D(19,20,32,36)  =      2.203414    -0.000002    -0.333126     1.870287
	  174 D(20,18,16,28)  =   -178.958957    -0.000000    -0.018261  -178.977219
	  175 D(20,19,17,29)  =   -179.190762    -0.000000    -0.001487  -179.192249
	  176 D(21,7,8,22)    =      0.883773    -0.000000    -0.139619     0.744154
	  177 D(21,7,9,34)    =      2.047978     0.000001     0.333964     2.381942
	  178 D(23,11,13,25)  =     -0.271383     0.000000     0.068985    -0.202398
	  179 D(24,12,14,26)  =     -0.945363    -0.000000    -0.021530    -0.966892
	  180 D(25,13,15,27)  =     -0.369360     0.000000     0.021033    -0.348327
	  181 D(26,14,15,27)  =      0.255506    -0.000000    -0.029331     0.226175
	  182 D(28,16,18,30)  =      1.326168    -0.000000     0.011126     1.337294
	  183 D(29,17,19,31)  =      0.419398    -0.000000    -0.001058     0.418339
	  184 D(30,18,20,32)  =      0.692233     0.000000     0.010166     0.702399
	  185 D(31,19,20,32)  =     -1.902756    -0.000000    -0.028232    -1.930988
	  186 D(33,6,9,34)    =      2.000993     0.000000    -0.011612     1.989381
	  187 R(4,12)         =      3.447713    -0.003193    -0.003311     3.444401
	  188 R(8,11)         =      3.316286    -0.000512     0.000545     3.316831
	  189 R(10,17)        =      3.083040     0.000171    -0.001711     3.081329
	  190 R(10,22)        =      3.070663     0.000917    -0.000933     3.069729
	  191 R(11,17)        =      3.587059     0.001481    -0.001717     3.585342
	  192 R(11,22)        =      3.043538    -0.000506     0.003129     3.046667
	  193 R(12,17)        =      3.432727    -0.001129    -0.003674     3.429053
	 ---------------------------------------------------------------------------
	Successfully symmetrized geometry.

  ==> Convergence Check <==

  Measures of convergence in internal coordinates in au.
  Criteria marked as inactive (o), active & met (*), and active & unmet ( ).
  ---------------------------------------------------------------------------------------------
   Step     Total Energy     Delta E     MAX Force     RMS Force      MAX Disp      RMS Disp   
  ---------------------------------------------------------------------------------------------
    Convergence Criteria             o    2.50e-03 *    1.70e-03 *    1.00e-02 *    6.70e-03 *
  ---------------------------------------------------------------------------------------------
     13    -895.97080881   -6.26e-05 o    1.38e-03 *    1.51e-04 *    6.94e-03 *    1.84e-03 *  ~
  ---------------------------------------------------------------------------------------------


  **** Optimization is complete! (in 13 steps) ****

  ==> Optimization Summary <==

  Measures of convergence in internal coordinates in au.
  --------------------------------------------------------------------------------------------------------------- ~
   Step         Total Energy             Delta E       MAX Force       RMS Force        MAX Disp        RMS Disp  ~
  --------------------------------------------------------------------------------------------------------------- ~
      1    -895.883685279696   -895.883685279696      0.02280310      0.00635857      0.20471932      0.03574061  ~
      2    -895.909870037077     -0.026184757381      0.01799711      0.00362243      0.22056438      0.03479784  ~
      3    -895.922776604040     -0.012906566962      0.01840250      0.00471254      0.54502847      0.10283022  ~
      4    -895.771163386843      0.151613217196      0.08704086      0.02346350      0.15227902      0.04341151  ~
      5    -895.910788213679     -0.139624826836      0.03929615      0.00986053      0.15181707      0.03541266  ~
      6    -895.941498224255     -0.030710010576      0.01210250      0.00239383      0.23404253      0.04600038  ~
      7    -895.950887949414     -0.009389725160      0.04682337      0.00449207      0.24270317      0.04410484  ~
      8    -895.961172300587     -0.010284351173      0.03542019      0.00345009      0.25309679      0.04718169  ~
      9    -895.967223167508     -0.006050866921      0.02460866      0.00240592      0.17763240      0.03834115  ~
     10    -895.969718049735     -0.002494882227      0.01297306      0.00135584      0.07095389      0.01792924  ~
     11    -895.970658029631     -0.000939979896      0.00237330      0.00042018      0.04512513      0.00842985  ~
     12    -895.970746242484     -0.000088212853      0.00224488      0.00029124      0.02491987      0.00444105  ~
     13    -895.970808811438     -0.000062568953      0.00138085      0.00015119      0.00694294      0.00184180  ~
  --------------------------------------------------------------------------------------------------------------- ~

	Writing optimization data to binary file.
	Final energy is   -895.9708088114377
	Final (previous) structure:
	Cartesian Geometry (in Angstrom)
	    C    -0.3256317597   1.8323817663   1.3406640251
	    C    -0.3325363244   0.9152892735   0.3254748110
	    N     0.6976526393   0.9318665691  -0.5990951560
	    C     1.4301924483  -0.1383426499  -1.1780511590
	    H     1.1656904808   1.8202027571  -0.6754335670
	    C     0.7347363800   2.7851084047   1.6706119574
	    N    -1.0219651234   3.2208558544   3.0031493834
	    C    -1.4660176301   2.1460105816   2.2350807952
	    C     0.2861682404   3.5801938554   2.6647336476
	    C    -1.3321761581  -0.1735014455   0.2092863381
	    C    -1.5901728751  -1.0283403341   1.2833256452
	    C    -2.0055278948  -0.3646533084  -1.0010440780
	    C    -2.4977244617  -2.0716826709   1.1426209726
	    C    -2.9204758090  -1.4036997409  -1.1378454715
	    C    -3.1637840992  -2.2620318861  -0.0676174754
	    C     2.4562936686   0.2002816920  -2.0687417663
	    C     1.2355175116  -1.4889505754  -0.8777633567
	    C     3.2563283666  -0.7716362818  -2.6505018563
	    C     2.0204723343  -2.4647150005  -1.4821622286
	    C     3.0402373088  -2.1307277941  -2.3817377315
	    H    -1.5953154033   3.6507171172   3.7030325153
	    O    -2.5989582327   1.6431356467   2.3362705835
	    H    -1.0810840146  -0.8664300009   2.2229172121
	    H    -1.7998913704   0.2978081835  -1.8311511522
	    H    -2.6932891542  -2.7298116719   1.9782247346
	    H    -3.4421996835  -1.5426274182  -2.0749933013
	    H    -3.8725451576  -3.0723023870  -0.1733117855
	    H     2.6352525048   1.2421903108  -2.3077529801
	    H     0.4717334678  -1.7957856978  -0.1823358201
	    H     4.0585844908  -0.4771716541  -3.3152016440
	    H     1.8377896157  -3.5048429856  -1.2424859168
	    N     3.8546624069  -3.1070502984  -2.9485542139
	    H     1.7289021358   2.8068428211   1.2579370853
	    H     0.7930112312   4.3688041884   3.1918494703
	    H     4.2880320204  -2.9311631605  -3.8351369554
	    H     3.6805801389  -4.0694417807  -2.7288798847
	Saving final (previous) structure.
			--------------------------
			 OPTKING Finished Execution 
			--------------------------

    Final optimized geometry and variables:
    Molecular point group: c1
    Full point group: C1

    Geometry (in Angstrom), charge = 0, multiplicity = 1:

    C           -0.325631760946     1.832381773466     1.340664030322
    C           -0.332536325674     0.915289277119     0.325474812314
    N            0.697652642059     0.931866572792    -0.599095158352
    C            1.430192453926    -0.138342650420    -1.178051163639
    H            1.165690485418     1.820202764264    -0.675433569698
    C            0.734736382885     2.785108415601     1.670611963983
    N           -1.021965127415     3.220855867037     3.003149395210
    C           -1.466017635858     2.146010590026     2.235080803940
    C            0.286168241500     3.580193869509     2.664733658074
    C           -1.332176163362    -0.173501446152     0.209286338888
    C           -1.590172881398    -1.028340338124     1.283325650236
    C           -2.005527902728    -0.364653309833    -1.001044081892
    C           -2.497724471521    -2.071682679036     1.142620977136
    C           -2.920475820503    -1.403699746443    -1.137845475991
    C           -3.163784111604    -2.262031894943    -0.067617475712
    C            2.456293678271     0.200281692813    -2.068741774408
    C            1.235517516457    -1.488950581233    -0.877763360148
    C            3.256328379380    -0.771636284882    -2.650501866723
    C            2.020472342227    -2.464715010156    -1.482162234383
    C            3.040237320784    -2.130727802472    -2.381737740837
    H           -1.595315409522     3.650717131560     3.703032529829
    O           -2.598958242909     1.643135653206     2.336270592705
    H           -1.081084018823    -0.866430004274     2.222917220842
    H           -1.799891377487     0.297808184634    -1.831151159365
    H           -2.693289164807    -2.729811682611     1.978224742391
    H           -3.442199696988    -1.542627424312    -2.074993309427
    H           -3.872545172861    -3.072302399095    -0.173311786210
    H            2.635252515188     1.242190315633    -2.307752989147
    H            0.471733469639    -1.795785704858    -0.182335820800
    H            4.058584506745    -0.477171655985    -3.315201657023
    H            1.837789622927    -3.504842999339    -1.242485921673
    N            3.854662422079    -3.107050310641    -2.948554225459
    H            1.728902142638     2.806842832156     1.257937090203
    H            0.793011234281     4.368804205580     3.191849482863
    H            4.288032037261    -2.931163172006    -3.835136970463
    H            3.680580153409    -4.069441796701    -2.728879895444

	Removing binary optimization data file.
	Cleaning optimization helper files.

    Psi4 stopped on: Sunday, 07 November 2021 01:01AM
    Psi4 wall time for execution: 2:40:03.73

*** Psi4 exiting successfully. Buy a developer a beer!
