
    -----------------------------------------------------------------------
          Psi4: An Open-Source Ab Initio Electronic Structure Package
                               Psi4 1.3.2 release

                         Git: Rev {HEAD} ecbda83 


    R. M. Parrish, L. A. Burns, D. G. A. Smith, A. C. Simmonett,
    A. E. DePrince III, E. G. Hohenstein, U. Bozkaya, A. Yu. Sokolov,
    R. Di Remigio, R. M. Richard, J. F. Gonthier, A. M. James,
    H. R. McAlexander, A. Kumar, M. Saitow, X. Wang, B. P. Pritchard,
    P. Verma, H. F. Schaefer III, K. Patkowski, R. A. King, E. F. Valeev,
    F. A. Evangelista, J. M. Turney, T. D. Crawford, and C. D. Sherrill,
    J. Chem. Theory Comput. 13(7) pp 3185--3197 (2017).
    (doi: 10.1021/acs.jctc.7b00174)


                         Additional Contributions by
    P. Kraus, H. Kruse, M. H. Lechner, M. C. Schieber, R. A. Shaw,
    A. Alenaizan, R. Galvelis, Z. L. Glick, S. Lehtola, and J. P. Misiewicz

    -----------------------------------------------------------------------


    Psi4 started on: Sunday, 07 November 2021 09:15AM

    Process ID: 81071
    Host:       node44.bme.utexas.edu
    PSIDATADIR: /home/bdw2292/miniconda3/envs/amoebamdpoltype/share/psi4
    Memory:     500.0 MiB
    Threads:    1
    
  ==> Input File <==

--------------------------------------------------------------------------
molecule { 
0 1
 C   -0.714046    1.498799   -0.195090
 C   -0.762204    0.242049    0.367892
 N    0.306078   -0.121894    1.228443
 C    1.649354   -0.437267    0.826804
 H   -0.015816   -0.758585    1.957759
 C   -0.795407    2.774359    0.493898
 N   -0.583455    3.187961   -1.717328
 C   -0.581515    1.801201   -1.662907
 C   -0.710758    3.746752   -0.452855
 C   -1.892373   -0.716563    0.216628
 C   -3.211229   -0.269448    0.490882
 C   -1.700197   -2.069555   -0.155591
 C   -4.298729   -1.145203    0.388266
 C   -2.790140   -2.943944   -0.256188
 C   -4.095966   -2.488017    0.013567
 C    1.980015   -1.469507   -0.081708
 C    2.703373    0.330901    1.376351
 C    3.316948   -1.732182   -0.413434
 C    4.037817    0.066375    1.041220
 C    4.376589   -0.977833    0.146650
 H   -0.499561    3.682184   -2.593996
 O   -0.491912    1.079960   -2.657253
 H   -3.379617    0.767100    0.787960
 H   -0.699668   -2.440648   -0.365942
 H   -5.304033   -0.780269    0.603438
 H   -2.620904   -3.982956   -0.543100
 H   -4.944021   -3.170160   -0.066219
 H    1.201000   -2.069892   -0.547703
 H    2.479606    1.144045    2.070138
 H    3.531496   -2.535404   -1.121914
 H    4.821124    0.684519    1.485248
 N    5.735098   -1.244056   -0.197180
 H   -0.900045    2.917371    1.559573
 H   -0.729802    4.822703   -0.345306
 H    5.908608   -2.216152   -0.454350
 H    6.400061   -0.968105    0.525982
}
set optking { 
  frozen_dihedral = ("
    16 4 3 2
    1 2 10 11
    1 2 10 12
    3 2 10 11
    1 2 3 4
    10 2 3 4
    18 20 32 35
  ")
}
set {
  geom_maxiter 400
  g_convergence GAU_LOOSE
  dynamic_level 1
}
memory 8.333333333333334GB
set_num_threads(1)
psi4_io.set_default_path("/scratch/bdw2292/Psi4-7_1_Index_0_GrowFragment_0-farH_in17")
for _ in range(1):
  try:
    set opt_coordinates both
    optimize('wb97x-d/6-311G')
    break
  except OptimizationConvergenceError:
    break
  else:
    try:
      set opt_coordinates cartesian
      optimize('wb97x-d/6-311G')
      break
    except OptimizationConvergenceError:
      pass
clean()
--------------------------------------------------------------------------

  Memory set to   7.761 GiB by Python driver.
  Threads set to 1 by Python driver.
gradient() will perform analytic gradient computation.

*** tstart() called on node44.bme.utexas.edu
*** at Sun Nov  7 09:15:59 2021

   => Loading Basis Set <=

    Name: 6-311G
    Role: ORBITAL
    Keyword: BASIS
    atoms 1-2, 4, 6, 8-20     entry C          line    92 file /home/bdw2292/miniconda3/envs/amoebamdpoltype/share/psi4/basis/6-311g.gbs 
    atoms 3, 7, 32            entry N          line   109 file /home/bdw2292/miniconda3/envs/amoebamdpoltype/share/psi4/basis/6-311g.gbs 
    atoms 5, 21, 23-31, 33-36 entry H          line    21 file /home/bdw2292/miniconda3/envs/amoebamdpoltype/share/psi4/basis/6-311g.gbs 
    atoms 22                  entry O          line   126 file /home/bdw2292/miniconda3/envs/amoebamdpoltype/share/psi4/basis/6-311g.gbs 


         ---------------------------------------------------------
                                   SCF
               by Justin Turney, Rob Parrish, Andy Simmonett
                          and Daniel G. A. Smith
                              RKS Reference
                        1 Threads,   7947 MiB Core
         ---------------------------------------------------------

  ==> Geometry <==

    Molecular point group: c1
    Full point group: C1

    Geometry (in Angstrom), charge = 0, multiplicity = 1:

       Center              X                  Y                   Z               Mass       
    ------------   -----------------  -----------------  -----------------  -----------------
         C           -0.829463462514     1.526310390169    -0.110642316632    12.000000000000
         C           -0.877621462514     0.269560390169     0.452339683368    12.000000000000
         N            0.190660537486    -0.094382609831     1.312890683368    14.003074004430
         C            1.533936537486    -0.409755609831     0.911251683368    12.000000000000
         H           -0.131233462514    -0.731073609831     2.042206683368     1.007825032230
         C           -0.910824462514     2.801870390169     0.578345683368    12.000000000000
         N           -0.698872462514     3.215472390169    -1.632880316632    14.003074004430
         C           -0.696932462514     1.828712390169    -1.578459316632    12.000000000000
         C           -0.826175462514     3.774263390169    -0.368407316632    12.000000000000
         C           -2.007790462514    -0.689051609831     0.301075683368    12.000000000000
         C           -3.326646462514    -0.241936609831     0.575329683368    12.000000000000
         C           -1.815614462514    -2.042043609831    -0.071143316632    12.000000000000
         C           -4.414146462514    -1.117691609831     0.472713683368    12.000000000000
         C           -2.905557462514    -2.916432609831    -0.171740316632    12.000000000000
         C           -4.211383462514    -2.460505609831     0.098014683368    12.000000000000
         C            1.864597537486    -1.441995609831     0.002739683368    12.000000000000
         C            2.587955537486     0.358412390169     1.460798683368    12.000000000000
         C            3.201530537486    -1.704670609831    -0.328986316632    12.000000000000
         C            3.922399537486     0.093886390169     1.125667683368    12.000000000000
         C            4.261171537486    -0.950321609831     0.231097683368    12.000000000000
         H           -0.614978462514     3.709695390169    -2.509548316632     1.007825032230
         O           -0.607329462514     1.107471390169    -2.572805316632    15.994914619570
         H           -3.495034462514     0.794611390169     0.872407683368     1.007825032230
         H           -0.815085462514    -2.413136609831    -0.281494316632     1.007825032230
         H           -5.419450462514    -0.752757609831     0.687885683368     1.007825032230
         H           -2.736321462514    -3.955444609831    -0.458652316632     1.007825032230
         H           -5.059438462514    -3.142648609831     0.018228683368     1.007825032230
         H            1.085582537486    -2.042380609831    -0.463255316632     1.007825032230
         H            2.364188537486     1.171556390169     2.154585683368     1.007825032230
         H            3.416078537486    -2.507892609831    -1.037466316632     1.007825032230
         H            4.705706537486     0.712030390169     1.569695683368     1.007825032230
         N            5.619680537486    -1.216544609831    -0.112732316632    14.003074004430
         H           -1.015462462514     2.944882390169     1.644020683368     1.007825032230
         H           -0.845219462514     4.850214390169    -0.260858316632     1.007825032230
         H            5.793190537486    -2.188640609831    -0.369902316632     1.007825032230
         H            6.284643537486    -0.940593609831     0.610429683368     1.007825032230

  Running in c1 symmetry.

  Rotational constants: A =      0.01381  B =      0.00704  C =      0.00542 [cm^-1]
  Rotational constants: A =    413.96255  B =    211.04796  C =    162.55332 [MHz]
  Nuclear repulsion = 1519.525601630418805

  Charge       = 0
  Multiplicity = 1
  Electrons    = 146
  Nalpha       = 73
  Nbeta        = 73

  ==> Algorithm <==

  SCF Algorithm Type is DF.
  DIIS enabled.
  MOM disabled.
  Fractional occupation disabled.
  Guess Type is SAD.
  Energy threshold   = 1.00e-08
  Density threshold  = 1.00e-08
  Integral threshold = 0.00e+00

  ==> Primary Basis <==

  Basis Set: 6-311G
    Blend: 6-311G
    Number of shells: 192
    Number of basis function: 318
    Number of Cartesian functions: 318
    Spherical Harmonics?: true
    Max angular momentum: 1

  ==> DFT Potential <==

   => Composite Functional: WB97X-D <= 

    wB97X-D Hyb-GGA Exchange-Correlation Functional

    J.-D. Chai and M. Head-Gordon, Phys. Chem. Chem. Phys. 10, 6615 (2008)

    Deriv               =              1
    GGA                 =           TRUE
    Meta                =          FALSE

    Exchange Hybrid     =           TRUE
    MP2 Hybrid          =          FALSE

   => Exchange-Correlation Functionals <=

    1.0000   wB97D range-separated functional

   => Exact (HF) Exchange <=

    0.7780            HF,LR [omega = 0.2000]
    0.2220               HF 

   => Molecular Quadrature <=

    Radial Scheme          =       TREUTLER
    Pruning Scheme         =           FLAT
    Nuclear Scheme         =       TREUTLER

    BS radius alpha        =              1
    Pruning alpha          =              1
    Radial Points          =             75
    Spherical Points       =            302
    Total Points           =         806723
    Total Blocks           =           5771
    Max Points             =            256
    Max Functions          =            225

   => WB97X-D: Empirical Dispersion <=

    Chai and Head-Gordon Dispersion Correction
    Chai, J.-D.; Head-Gordon, M. (2010), J. Chem. Phys., 132: 6615-6620

        s6 =       1.000000

   => Loading Basis Set <=

    Name: (6-311G AUX)
    Role: JKFIT
    Keyword: DF_BASIS_SCF
    atoms 1-2, 4, 6, 8-20     entry C          line   125 file /home/bdw2292/miniconda3/envs/amoebamdpoltype/share/psi4/basis/cc-pvtz-jkfit.gbs 
    atoms 3, 7, 32            entry N          line   177 file /home/bdw2292/miniconda3/envs/amoebamdpoltype/share/psi4/basis/cc-pvtz-jkfit.gbs 
    atoms 5, 21, 23-31, 33-36 entry H          line    51 file /home/bdw2292/miniconda3/envs/amoebamdpoltype/share/psi4/basis/cc-pvtz-jkfit.gbs 
    atoms 22                  entry O          line   229 file /home/bdw2292/miniconda3/envs/amoebamdpoltype/share/psi4/basis/cc-pvtz-jkfit.gbs 

  ==> Pre-Iterations <==

   -------------------------------------------------------
    Irrep   Nso     Nmo     Nalpha   Nbeta   Ndocc  Nsocc
   -------------------------------------------------------
     A        318     318       0       0       0       0
   -------------------------------------------------------
    Total     318     318      73      73      73       0
   -------------------------------------------------------

  ==> Integral Setup <==

  ==> DiskDFJK: Density-Fitted J/K Matrices <==

    J tasked:                  Yes
    K tasked:                  Yes
    wK tasked:                 Yes
    Omega:               2.000E-01
    OpenMP threads:              1
    Integrals threads:           1
    Memory [MiB]:             2617
    Algorithm:                Core
    Integral Cache:           NONE
    Schwarz Cutoff:          1E-12
    Fitting Condition:       1E-10

   => Auxiliary Basis Set <=

  Basis Set: (6-311G AUX)
    Blend: CC-PVTZ-JKFIT
    Number of shells: 675
    Number of basis function: 2109
    Number of Cartesian functions: 2541
    Spherical Harmonics?: true
    Max angular momentum: 4

  Cached 100.0% of DFT collocation blocks in 3.264 [GiB].

  Minimum eigenvalue in the overlap matrix is 2.4399022697E-04.
  Using Symmetric Orthogonalization.

  SCF Guess: Superposition of Atomic Densities via on-the-fly atomic UHF.

  ==> Iterations <==

                           Total Energy        Delta E     RMS |[F,P]|

   @DF-RKS iter SAD:  -895.04038414258298   -8.95040e+02   0.00000e+00 
   @DF-RKS iter   1:  -895.23634089071061   -1.95957e-01   3.68089e-03 DIIS
   @DF-RKS iter   2:  -895.42107612313077   -1.84735e-01   3.41696e-03 DIIS
   @DF-RKS iter   3:  -895.85799235044908   -4.36916e-01   9.50006e-04 DIIS
   @DF-RKS iter   4:  -895.89539943418242   -3.74071e-02   2.00685e-04 DIIS
   @DF-RKS iter   5:  -895.89718111319530   -1.78168e-03   8.08945e-05 DIIS
   @DF-RKS iter   6:  -895.89755711160387   -3.75998e-04   2.05443e-05 DIIS
   @DF-RKS iter   7:  -895.89762545360259   -6.83420e-05   1.44969e-05 DIIS
   @DF-RKS iter   8:  -895.89765192698781   -2.64734e-05   5.47718e-06 DIIS
   @DF-RKS iter   9:  -895.89766315026111   -1.12233e-05   3.53238e-06 DIIS
   @DF-RKS iter  10:  -895.89766481691447   -1.66665e-06   9.46437e-07 DIIS
   @DF-RKS iter  11:  -895.89766500037865   -1.83464e-07   4.76218e-07 DIIS
   @DF-RKS iter  12:  -895.89766503916746   -3.87888e-08   1.85044e-07 DIIS
   @DF-RKS iter  13:  -895.89766504881948   -9.65201e-09   9.01411e-08 DIIS
   @DF-RKS iter  14:  -895.89766504999329   -1.17382e-09   4.62696e-08 DIIS
   @DF-RKS iter  15:  -895.89766505045611   -4.62819e-10   1.20555e-08 DIIS
   @DF-RKS iter  16:  -895.89766505048181   -2.56932e-11   7.32254e-09 DIIS
  Energy and wave function converged.


  ==> Post-Iterations <==

    Orbital Energies [Eh]
    ---------------------

    Doubly Occupied:                                                      

       1A    -19.187409     2A    -14.465039     3A    -14.450810  
       4A    -14.446336     5A    -10.373296     6A    -10.359332  
       7A    -10.348713     8A    -10.336052     9A    -10.318390  
      10A    -10.311327    11A    -10.310138    12A    -10.310054  
      13A    -10.308214    14A    -10.306334    15A    -10.305515  
      16A    -10.305389    17A    -10.300109    18A    -10.298241  
      19A    -10.296606    20A    -10.282952    21A    -10.273867  
      22A     -1.128899    23A     -1.053858    24A     -1.043669  
      25A     -1.026778    26A     -0.972900    27A     -0.945205  
      28A     -0.897389    29A     -0.866488    30A     -0.860778  
      31A     -0.855952    32A     -0.832405    33A     -0.806685  
      34A     -0.758019    35A     -0.721607    36A     -0.712302  
      37A     -0.708530    38A     -0.700939    39A     -0.673648  
      40A     -0.645300    41A     -0.629917    42A     -0.619878  
      43A     -0.605278    44A     -0.596808    45A     -0.587576  
      46A     -0.572448    47A     -0.560227    48A     -0.539067  
      49A     -0.536871    50A     -0.534452    51A     -0.525104  
      52A     -0.521264    53A     -0.512712    54A     -0.504935  
      55A     -0.503652    56A     -0.491608    57A     -0.481955  
      58A     -0.471083    59A     -0.467762    60A     -0.463112  
      61A     -0.450336    62A     -0.440913    63A     -0.433666  
      64A     -0.398540    65A     -0.393013    66A     -0.368209  
      67A     -0.343976    68A     -0.340778    69A     -0.336239  
      70A     -0.324054    71A     -0.312429    72A     -0.287540  
      73A     -0.234097  

    Virtual:                                                              

      74A     -0.024350    75A      0.050735    76A      0.056682  
      77A      0.063036    78A      0.068863    79A      0.113702  
      80A      0.117751    81A      0.131662    82A      0.134982  
      83A      0.140896    84A      0.146004    85A      0.146907  
      86A      0.157730    87A      0.170063    88A      0.173149  
      89A      0.178324    90A      0.186126    91A      0.194293  
      92A      0.198863    93A      0.211664    94A      0.217483  
      95A      0.223420    96A      0.229237    97A      0.268032  
      98A      0.271661    99A      0.291985   100A      0.297847  
     101A      0.308599   102A      0.324904   103A      0.331967  
     104A      0.336325   105A      0.339468   106A      0.351426  
     107A      0.356425   108A      0.359527   109A      0.373379  
     110A      0.379009   111A      0.385118   112A      0.393735  
     113A      0.406075   114A      0.420302   115A      0.427408  
     116A      0.437330   117A      0.439128   118A      0.446985  
     119A      0.455714   120A      0.461221   121A      0.467406  
     122A      0.470613   123A      0.474798   124A      0.482133  
     125A      0.486305   126A      0.489528   127A      0.496819  
     128A      0.500258   129A      0.506046   130A      0.508868  
     131A      0.510607   132A      0.512436   133A      0.518321  
     134A      0.527328   135A      0.534885   136A      0.537605  
     137A      0.540858   138A      0.552419   139A      0.557078  
     140A      0.561783   141A      0.565008   142A      0.581436  
     143A      0.586584   144A      0.589692   145A      0.599217  
     146A      0.610040   147A      0.611047   148A      0.613615  
     149A      0.618965   150A      0.627208   151A      0.637553  
     152A      0.643903   153A      0.654914   154A      0.658365  
     155A      0.669425   156A      0.684575   157A      0.687252  
     158A      0.693080   159A      0.699963   160A      0.701925  
     161A      0.709544   162A      0.716644   163A      0.721103  
     164A      0.729472   165A      0.734047   166A      0.739557  
     167A      0.741066   168A      0.748313   169A      0.758017  
     170A      0.768239   171A      0.776672   172A      0.780276  
     173A      0.790618   174A      0.791865   175A      0.796834  
     176A      0.826295   177A      0.840656   178A      0.847280  
     179A      0.851910   180A      0.856423   181A      0.865922  
     182A      0.869864   183A      0.880236   184A      0.882196  
     185A      0.895192   186A      0.901096   187A      0.908769  
     188A      0.915772   189A      0.927970   190A      0.940231  
     191A      0.953460   192A      0.961929   193A      0.965936  
     194A      0.972362   195A      0.975338   196A      0.996702  
     197A      1.002276   198A      1.009161   199A      1.030813  
     200A      1.049896   201A      1.063789   202A      1.067047  
     203A      1.079181   204A      1.101761   205A      1.113417  
     206A      1.116010   207A      1.140723   208A      1.159618  
     209A      1.169366   210A      1.209717   211A      1.230852  
     212A      1.296596   213A      1.319037   214A      1.346169  
     215A      1.373415   216A      1.426333   217A      1.479289  
     218A      1.609458   219A      1.840998   220A      2.262631  
     221A      2.266247   222A      2.300428   223A      2.328892  
     224A      2.344889   225A      2.355741   226A      2.365587  
     227A      2.390948   228A      2.402499   229A      2.421156  
     230A      2.430586   231A      2.476164   232A      2.505401  
     233A      2.575697   234A      2.612115   235A      2.624817  
     236A      2.639701   237A      2.651412   238A      2.661294  
     239A      2.666793   240A      2.683953   241A      2.689380  
     242A      2.716502   243A      2.742961   244A      2.771850  
     245A      2.793292   246A      2.802234   247A      2.815435  
     248A      2.825187   249A      2.828303   250A      2.840312  
     251A      2.850962   252A      2.855179   253A      2.861359  
     254A      2.883464   255A      2.903712   256A      2.954319  
     257A      2.964860   258A      2.992549   259A      3.001726  
     260A      3.009426   261A      3.013483   262A      3.049286  
     263A      3.075906   264A      3.120903   265A      3.143025  
     266A      3.157857   267A      3.165108   268A      3.175285  
     269A      3.191938   270A      3.211242   271A      3.228568  
     272A      3.256778   273A      3.261146   274A      3.278971  
     275A      3.293334   276A      3.299287   277A      3.325255  
     278A      3.327484   279A      3.344063   280A      3.351302  
     281A      3.362833   282A      3.390808   283A      3.454717  
     284A      3.497233   285A      3.542086   286A      3.826058  
     287A      3.831492   288A      3.973098   289A      4.069052  
     290A      4.087736   291A      4.119085   292A      4.170088  
     293A      4.246525   294A      4.288668   295A      5.016036  
     296A      5.097296   297A      5.133472   298A     23.226016  
     299A     23.260208   300A     23.363937   301A     23.466348  
     302A     23.476783   303A     23.487525   304A     23.503133  
     305A     23.535542   306A     23.616535   307A     23.712627  
     308A     23.724156   309A     23.732967   310A     23.758206  
     311A     23.793036   312A     23.876990   313A     23.979801  
     314A     23.983729   315A     35.522950   316A     35.528789  
     317A     35.587114   318A     50.094301  

    Final Occupation by Irrep:
              A 
    DOCC [    73 ]

  @DF-RKS Final Energy:  -895.89766505048181

   => Energetics <=

    Nuclear Repulsion Energy =           1519.5256016304188051
    One-Electron Energy =               -4232.3321331890983856
    Two-Electron Energy =                1904.5162336952696478
    DFT Exchange-Correlation Energy =     -87.5825299037914817
    Empirical Dispersion Energy =          -0.0248372832803923
    VV10 Nonlocal Energy =                  0.0000000000000000
    Total Energy =                       -895.8976650504818053

Computation Completed


Properties will be evaluated at   0.000000,   0.000000,   0.000000 [a0]

Properties computed using the SCF density matrix

  Nuclear Dipole Moment: [e a0]
     X:     3.2795      Y:    -4.2109      Z:     3.9434

  Electronic Dipole Moment: [e a0]
     X:    -2.8239      Y:     3.4761      Z:    -2.2350

  Dipole Moment: [e a0]
     X:     0.4555      Y:    -0.7348      Z:     1.7084     Total:     1.9147

  Dipole Moment: [D]
     X:     1.1578      Y:    -1.8678      Z:     4.3423     Total:     4.8667


*** tstop() called on node44.bme.utexas.edu at Sun Nov  7 09:25:01 2021
Module time:
	user time   =     529.13 seconds =       8.82 minutes
	system time =      13.36 seconds =       0.22 minutes
	total time  =        542 seconds =       9.03 minutes
Total time:
	user time   =     529.13 seconds =       8.82 minutes
	system time =      13.36 seconds =       0.22 minutes
	total time  =        542 seconds =       9.03 minutes

*** tstart() called on node44.bme.utexas.edu
*** at Sun Nov  7 09:25:01 2021


         ------------------------------------------------------------
                                   SCF GRAD                          
                          Rob Parrish, Justin Turney,                
                       Andy Simmonett, and Alex Sokolov              
         ------------------------------------------------------------

  ==> Geometry <==

    Molecular point group: c1
    Full point group: C1

    Geometry (in Angstrom), charge = 0, multiplicity = 1:

       Center              X                  Y                   Z               Mass       
    ------------   -----------------  -----------------  -----------------  -----------------
         C           -0.829463462514     1.526310390169    -0.110642316632    12.000000000000
         C           -0.877621462514     0.269560390169     0.452339683368    12.000000000000
         N            0.190660537486    -0.094382609831     1.312890683368    14.003074004430
         C            1.533936537486    -0.409755609831     0.911251683368    12.000000000000
         H           -0.131233462514    -0.731073609831     2.042206683368     1.007825032230
         C           -0.910824462514     2.801870390169     0.578345683368    12.000000000000
         N           -0.698872462514     3.215472390169    -1.632880316632    14.003074004430
         C           -0.696932462514     1.828712390169    -1.578459316632    12.000000000000
         C           -0.826175462514     3.774263390169    -0.368407316632    12.000000000000
         C           -2.007790462514    -0.689051609831     0.301075683368    12.000000000000
         C           -3.326646462514    -0.241936609831     0.575329683368    12.000000000000
         C           -1.815614462514    -2.042043609831    -0.071143316632    12.000000000000
         C           -4.414146462514    -1.117691609831     0.472713683368    12.000000000000
         C           -2.905557462514    -2.916432609831    -0.171740316632    12.000000000000
         C           -4.211383462514    -2.460505609831     0.098014683368    12.000000000000
         C            1.864597537486    -1.441995609831     0.002739683368    12.000000000000
         C            2.587955537486     0.358412390169     1.460798683368    12.000000000000
         C            3.201530537486    -1.704670609831    -0.328986316632    12.000000000000
         C            3.922399537486     0.093886390169     1.125667683368    12.000000000000
         C            4.261171537486    -0.950321609831     0.231097683368    12.000000000000
         H           -0.614978462514     3.709695390169    -2.509548316632     1.007825032230
         O           -0.607329462514     1.107471390169    -2.572805316632    15.994914619570
         H           -3.495034462514     0.794611390169     0.872407683368     1.007825032230
         H           -0.815085462514    -2.413136609831    -0.281494316632     1.007825032230
         H           -5.419450462514    -0.752757609831     0.687885683368     1.007825032230
         H           -2.736321462514    -3.955444609831    -0.458652316632     1.007825032230
         H           -5.059438462514    -3.142648609831     0.018228683368     1.007825032230
         H            1.085582537486    -2.042380609831    -0.463255316632     1.007825032230
         H            2.364188537486     1.171556390169     2.154585683368     1.007825032230
         H            3.416078537486    -2.507892609831    -1.037466316632     1.007825032230
         H            4.705706537486     0.712030390169     1.569695683368     1.007825032230
         N            5.619680537486    -1.216544609831    -0.112732316632    14.003074004430
         H           -1.015462462514     2.944882390169     1.644020683368     1.007825032230
         H           -0.845219462514     4.850214390169    -0.260858316632     1.007825032230
         H            5.793190537486    -2.188640609831    -0.369902316632     1.007825032230
         H            6.284643537486    -0.940593609831     0.610429683368     1.007825032230

  Nuclear repulsion = 1519.525601630418805

  ==> Basis Set <==

  Basis Set: 6-311G
    Blend: 6-311G
    Number of shells: 192
    Number of basis function: 318
    Number of Cartesian functions: 318
    Spherical Harmonics?: true
    Max angular momentum: 1

  ==> DFJKGrad: Density-Fitted SCF Gradients <==

    Gradient:                    1
    J tasked:                  Yes
    K tasked:                  Yes
    wK tasked:                 Yes
    Omega:               2.000E-01
    OpenMP threads:              1
    Integrals threads:           1
    Memory [MiB]:             5960
    Schwarz Cutoff:          0E+00
    Fitting Condition:       1E-10

   => Auxiliary Basis Set <=

  Basis Set: (6-311G AUX)
    Blend: CC-PVTZ-JKFIT
    Number of shells: 675
    Number of basis function: 2109
    Number of Cartesian functions: 2541
    Spherical Harmonics?: true
    Max angular momentum: 4

  ==> DFT Potential <==

   => Composite Functional: WB97X-D <= 

    wB97X-D Hyb-GGA Exchange-Correlation Functional

    J.-D. Chai and M. Head-Gordon, Phys. Chem. Chem. Phys. 10, 6615 (2008)

    Deriv               =              1
    GGA                 =           TRUE
    Meta                =          FALSE

    Exchange Hybrid     =           TRUE
    MP2 Hybrid          =          FALSE

   => Exchange-Correlation Functionals <=

    1.0000   wB97D range-separated functional

   => Exact (HF) Exchange <=

    0.7780            HF,LR [omega = 0.2000]
    0.2220               HF 

   => Molecular Quadrature <=

    Radial Scheme          =       TREUTLER
    Pruning Scheme         =           FLAT
    Nuclear Scheme         =       TREUTLER

    BS radius alpha        =              1
    Pruning alpha          =              1
    Radial Points          =             75
    Spherical Points       =            302
    Total Points           =         806723
    Total Blocks           =           5771
    Max Points             =            256
    Max Functions          =            225


  -Total Gradient:
     Atom            X                  Y                   Z
    ------   -----------------  -----------------  -----------------
       1        0.004877970223    -0.013802010819     0.020788711774
       2       -0.020179559089     0.022077753933    -0.007335104697
       3        0.040868347114     0.021500823417    -0.013302392269
       4       -0.024269264945    -0.019219408499     0.006896045447
       5       -0.003683791642    -0.002551851256     0.001535833249
       6       -0.029816333345    -0.001506961769     0.003200752979
       7       -0.008394480959    -0.004444906128     0.006130404023
       8        0.035105604703    -0.009033990746    -0.023030549065
       9        0.001346855178    -0.011626948378    -0.005706974840
      10        0.000058133525     0.003967692130     0.007694429203
      11       -0.004472976177     0.001427257541     0.005491224829
      12        0.006012983095    -0.001410789619    -0.006467716884
      13       -0.002711083305     0.006076882796     0.001063345946
      14        0.002790184434    -0.003424330679    -0.001784175533
      15       -0.006194719041    -0.006115952906    -0.000730648579
      16       -0.001700631036    -0.008680091567    -0.005388373393
      17       -0.000541799711     0.008025690710     0.006917862264
      18       -0.000955823591    -0.002693635369    -0.002669633467
      19        0.001148393828     0.002585511231     0.000664858517
      20        0.002935830760    -0.000776089452     0.000177405612
      21        0.000871825337     0.002818714765    -0.007440759446
      22       -0.007561040881     0.018697633628     0.011865415160
      23       -0.003242476514     0.005596835796     0.002850440812
      24        0.005430263709    -0.003018798081    -0.000603516527
      25       -0.005812769593     0.002732011412     0.001331117770
      26        0.001662299360    -0.006313635607    -0.001025008490
      27       -0.005385478900    -0.004163362245    -0.000429497472
      28       -0.003750683167    -0.004604662376    -0.002379265032
      29        0.001212199770     0.005941350359     0.005855226840
      30       -0.000065921942    -0.005288838254    -0.004065910448
      31        0.003118513938     0.004389677419     0.003558288657
      32        0.009719701882     0.011660452428    -0.019711677136
      33       -0.000607405046     0.001236153951     0.003335295793
      34        0.004548931594     0.003906815871    -0.001268963753
      35        0.002586112201    -0.010099076681     0.004541497769
      36        0.005065781230    -0.003615005967     0.009400438826


*** tstop() called on node44.bme.utexas.edu at Sun Nov  7 09:29:07 2021
Module time:
	user time   =     242.93 seconds =       4.05 minutes
	system time =       2.76 seconds =       0.05 minutes
	total time  =        246 seconds =       4.10 minutes
Total time:
	user time   =     772.07 seconds =      12.87 minutes
	system time =      16.12 seconds =       0.27 minutes
	total time  =        788 seconds =      13.13 minutes

			-----------------------------------------
			 OPTKING 2.0: for geometry optimizations 
			  - R.A. King,  Bethel University        
			-----------------------------------------
	At level 1: Red. Int., RFO, no backsteps, dynamic trust

	Internal coordinates to be generated automatically.
	Detected frag 1 with atoms:  1 2 3 4 5 6 7 8 9 10 11 12 13 14 15 16 17 18 19 20
	 21 22 23 24 25 26 27 28 29 30 31 32 33 34 35 36
	---Fragment 1 Bond Connectivity---
	 1 : 2 6 8
	 2 : 1 3 10
	 3 : 2 4 5
	 4 : 3 16 17
	 5 : 3
	 6 : 1 9 33
	 7 : 8 9 21
	 8 : 1 7 22
	 9 : 6 7 34
	 10 : 2 11 12
	 11 : 10 13 23
	 12 : 10 14 24
	 13 : 11 15 25
	 14 : 12 15 26
	 15 : 13 14 27
	 16 : 4 18 28
	 17 : 4 19 29
	 18 : 16 20 30
	 19 : 17 20 31
	 20 : 18 19 32
	 21 : 7
	 22 : 8
	 23 : 11
	 24 : 12
	 25 : 13
	 26 : 14
	 27 : 15
	 28 : 16
	 29 : 17
	 30 : 18
	 31 : 19
	 32 : 20 35 36
	 33 : 6
	 34 : 9
	 35 : 32
	 36 : 32

	Assuming in current code that numbering for constraints corresponds to unified fragment.
	Frozen dihedral atom list: 
	    16     4     3     2
	     1     2    10    11
	     1     2    10    12
	     3     2    10    11
	     1     2     3     4
	    10     2     3     4
	    18    20    32    35
	---Fragment 1 Geometry and Gradient---
	 C          -1.5674587752        2.8843086199       -0.2090836763
	 C          -1.6584642060        0.5093953117        0.8547981172
	 N           0.3602961988       -0.1783572836        2.4810038242
	 C           2.8987199497       -0.7743258810        1.7220161129
	 H          -0.2479953026       -1.3815289001        3.8592113231
	 C          -1.7212087825        5.2947676764        1.0929149474
	 N          -1.3206775508        6.0763621814       -3.0856965941
	 C          -1.3170114821        3.4557655797       -2.9828558086
	 C          -1.5612453557        7.1323241328       -0.6961889310
	 C          -3.7941740915       -1.3021188289        0.5689505846
	 C          -6.2864507304       -0.4571939323        1.0872155334
	 C          -3.4310140836       -3.8589031588       -0.1344413841
	 C          -8.3415278918       -2.1121310353        0.8932993973
	 C          -5.4907078459       -5.5112588959       -0.3245421631
	 C          -7.9583613534       -4.6496817327        0.1852209078
	 C           3.5235786801       -2.7249767767        0.0051772512
	 C           4.8905271907        0.6773012574        2.7605094360
	 C           6.0500158981       -3.2213605867       -0.6216940375
	 C           7.4122608805        0.1774195643        2.1272036298
	 C           8.0524471794       -1.7958475737        0.4367113298
	 H          -1.1621408672        7.0103082963       -4.7423590170
	 O          -1.1476863521        2.0928176192       -4.8618974226
	 H          -6.6046579332        1.5015979036        1.6486115913
	 H          -1.5402882930       -4.5601672959       -0.5319471643
	 H         -10.2412771246       -1.4225057214        1.2999155472
	 H          -5.1708981554       -7.4747070170       -0.8667272652
	 H          -9.5609530428       -5.9387451811        0.0344472192
	 H           2.0514536824       -3.8595399965       -0.8754256746
	 H           4.4676688448        2.2139207179        4.0715768554
	 H           6.4554528589       -4.7392301846       -1.9605272028
	 H           8.8924965826        1.3455424304        2.9662949419
	 N          10.6196571284       -2.2989361320       -0.2130332039
	 H          -1.9189459448        5.5650211891        3.1067488362
	 H          -1.5972333001        9.1655768472       -0.4929507760
	 H          10.9475435084       -4.1359313396       -0.6990140716
	 H          11.8762550820       -1.7774643179        1.1535449204
	             0.0048779702       -0.0138020108        0.0207887118
	            -0.0201795591        0.0220777539       -0.0073351047
	             0.0408683471        0.0215008234       -0.0133023923
	            -0.0242692649       -0.0192194085        0.0068960454
	            -0.0036837916       -0.0025518513        0.0015358332
	            -0.0298163333       -0.0015069618        0.0032007530
	            -0.0083944810       -0.0044449061        0.0061304040
	             0.0351056047       -0.0090339907       -0.0230305491
	             0.0013468552       -0.0116269484       -0.0057069748
	             0.0000581335        0.0039676921        0.0076944292
	            -0.0044729762        0.0014272575        0.0054912248
	             0.0060129831       -0.0014107896       -0.0064677169
	            -0.0027110833        0.0060768828        0.0010633459
	             0.0027901844       -0.0034243307       -0.0017841755
	            -0.0061947190       -0.0061159529       -0.0007306486
	            -0.0017006310       -0.0086800916       -0.0053883734
	            -0.0005417997        0.0080256907        0.0069178623
	            -0.0009558236       -0.0026936354       -0.0026696335
	             0.0011483938        0.0025855112        0.0006648585
	             0.0029358308       -0.0007760895        0.0001774056
	             0.0008718253        0.0028187148       -0.0074407594
	            -0.0075610409        0.0186976336        0.0118654152
	            -0.0032424765        0.0055968358        0.0028504408
	             0.0054302637       -0.0030187981       -0.0006035165
	            -0.0058127696        0.0027320114        0.0013311178
	             0.0016622994       -0.0063136356       -0.0010250085
	            -0.0053854789       -0.0041633622       -0.0004294975
	            -0.0037506832       -0.0046046624       -0.0023792650
	             0.0012121998        0.0059413504        0.0058552268
	            -0.0000659219       -0.0052888383       -0.0040659104
	             0.0031185139        0.0043896774        0.0035582887
	             0.0097197019        0.0116604524       -0.0197116771
	            -0.0006074050        0.0012361540        0.0033352958
	             0.0045489316        0.0039068159       -0.0012689638
	             0.0025861122       -0.0100990767        0.0045414978
	             0.0050657812       -0.0036150060        0.0094004388

	Previous optimization step data not found.  Starting new optimization.

	---Fragment 1 Intrafragment Coordinates---
	 - Coordinate -           - BOHR/RAD -       - ANG/DEG -
	 R(1,2)           =         2.603909	       1.377929
	 R(1,6)           =         2.743930	       1.452025
	 R(1,8)           =         2.843079	       1.504493
	 R(2,3)           =         2.681966	       1.419235
	 R(2,10)          =         2.815058	       1.489664
	 R(3,4)           =         2.715665	       1.437068
	 R(3,5)           =         1.927977	       1.020242
	 R(4,16)          =         2.672643	       1.414302
	 R(4,17)          =         2.674507	       1.415288
	 R(6,9)           =         2.569649	       1.359800
	 R(6,33)          =         2.041486	       1.080308
	 R(7,8)           =         2.622616	       1.387829
	 R(7,9)           =         2.623485	       1.388289
	 R(7,21)          =         1.908381	       1.009872
	 R(8,22)          =         2.327465	       1.231642
	 R(9,34)          =         2.043702	       1.081480
	 R(10,11)         =         2.682152	       1.419334
	 R(10,12)         =         2.676526	       1.416357
	 R(11,13)         =         2.645706	       1.400048
	 R(11,23)         =         2.062350	       1.091349
	 R(12,14)         =         2.647406	       1.400947
	 R(12,24)         =         2.055390	       1.087665
	 R(13,15)         =         2.662209	       1.408780
	 R(13,25)         =         2.061545	       1.090923
	 R(14,15)         =         2.662985	       1.409191
	 R(14,26)         =         2.061885	       1.091103
	 R(15,27)         =         2.062212	       1.091275
	 R(16,18)         =         2.649953	       1.402295
	 R(16,28)         =         2.056659	       1.088337
	 R(17,19)         =         2.647659	       1.401081
	 R(17,29)         =         2.063712	       1.092069
	 R(18,20)         =         2.676199	       1.416183
	 R(18,30)         =         2.064166	       1.092310
	 R(19,20)         =         2.676077	       1.416119
	 R(19,31)         =         2.063900	       1.092169
	 R(20,32)         =         2.695521	       1.426408
	 R(32,35)         =         1.928273	       1.020398
	 R(32,36)         =         1.928343	       1.020435
	 B(1,2,3)         =         2.043521	     117.085111
	 B(1,2,10)        =         2.179671	     124.885951
	 B(1,6,9)         =         1.869558	     107.117768
	 B(1,6,33)        =         2.201600	     126.142398
	 B(1,8,7)         =         1.812110	     103.826260
	 B(1,8,22)        =         2.313603	     132.559688
	 B(2,1,6)         =         2.221050	     127.256806
	 B(2,1,8)         =         2.195692	     125.803892
	 B(2,3,4)         =         2.202352	     126.185450
	 B(2,3,5)         =         1.934769	     110.854086
	 B(2,10,11)       =         2.074449	     118.857193
	 B(2,10,12)       =         2.139411	     122.579247
	 B(3,2,10)        =         2.057390	     117.879752
	 B(3,4,16)        =         2.163065	     123.934496
	 B(3,4,17)        =         2.058385	     117.936771
	 B(4,3,5)         =         1.936655	     110.962145
	 B(4,16,18)       =         2.107814	     120.768862
	 B(4,16,28)       =         2.106361	     120.685576
	 B(4,17,19)       =         2.110597	     120.928319
	 B(4,17,29)       =         2.092341	     119.882307
	 B(6,1,8)         =         1.866380	     106.935706
	 B(6,9,7)         =         1.930533	     110.611367
	 B(6,9,34)        =         2.266739	     129.874568
	 B(7,8,22)        =         2.157460	     123.613371
	 B(7,9,34)        =         2.085914	     119.514062
	 B(8,7,9)         =         1.946155	     111.506445
	 B(8,7,21)        =         2.121092	     121.529636
	 B(9,6,33)        =         2.212022	     126.739517
	 B(9,7,21)        =         2.215938	     126.963917
	 B(10,11,13)      =         2.106631	     120.701083
	 B(10,11,23)      =         2.088826	     119.680886
	 B(10,12,14)      =         2.105432	     120.632351
	 B(10,12,24)      =         2.096194	     120.103090
	 B(11,10,12)      =         2.068925	     118.540679
	 B(11,13,15)      =         2.098933	     120.260027
	 B(11,13,25)      =         2.085289	     119.478252
	 B(12,14,15)      =         2.100478	     120.348510
	 B(12,14,26)      =         2.085818	     119.508541
	 B(13,11,23)      =         2.087724	     119.617755
	 B(13,15,14)      =         2.085956	     119.516458
	 B(13,15,27)      =         2.098342	     120.226149
	 B(14,12,24)      =         2.081559	     119.264534
	 B(14,15,27)      =         2.098887	     120.257368
	 B(15,13,25)      =         2.098959	     120.261504
	 B(15,14,26)      =         2.096887	     120.142800
	 B(16,4,17)       =         2.061734	     118.128637
	 B(16,18,20)      =         2.117679	     121.334097
	 B(16,18,30)      =         2.069672	     118.583490
	 B(17,19,20)      =         2.115501	     121.209278
	 B(17,19,31)      =         2.070299	     118.619375
	 B(18,16,28)      =         2.068944	     118.541744
	 B(18,20,19)      =         2.052857	     117.620059
	 B(18,20,32)      =         2.115159	     121.189710
	 B(19,17,29)      =         2.080244	     119.189224
	 B(19,20,32)      =         2.114993	     121.180151
	 B(20,18,30)      =         2.095828	     120.082097
	 B(20,19,31)      =         2.097386	     120.171347
	 B(20,32,35)      =         1.982861	     113.609542
	 B(20,32,36)      =         1.981583	     113.536355
	 B(35,32,36)      =         1.902257	     108.991314
	*D(1,2,3,4)       =        -1.266190	     -72.547363
	 D(1,2,3,5)       =         2.593615	     148.603185
	*D(1,2,10,11)     =        -0.890469	     -51.020128
	*D(1,2,10,12)     =         2.281956	     130.746472
	 D(1,6,9,7)       =         0.003262	       0.186888
	 D(1,6,9,34)      =        -3.138725	    -179.835683
	 D(1,8,7,9)       =        -0.006978	      -0.399785
	 D(1,8,7,21)      =         3.134303	     179.582320
	 D(2,1,6,9)       =        -3.137436	    -179.761817
	 D(2,1,6,33)      =         0.007549	       0.432498
	 D(2,1,8,7)       =         3.138911	     179.846341
	 D(2,1,8,22)      =         0.002578	       0.147736
	*D(2,3,4,16)      =        -1.010370	     -57.889946
	 D(2,3,4,17)      =         2.133229	     122.224994
	 D(2,10,11,13)    =        -3.118171	    -178.658030
	 D(2,10,11,23)    =         0.020074	       1.150181
	 D(2,10,12,14)    =         3.115903	     178.528083
	 D(2,10,12,24)    =        -0.024672	      -1.413604
	 D(3,2,1,6)       =        -1.140028	     -65.318790
	 D(3,2,1,8)       =         2.015205	     115.462727
	*D(3,2,10,11)     =         2.171164	     124.398525
	 D(3,2,10,12)     =        -0.939596	     -53.834875
	 D(3,4,16,18)     =        -3.126077	    -179.110999
	 D(3,4,16,28)     =         0.028103	       1.610194
	 D(3,4,17,19)     =         3.127478	     179.191291
	 D(3,4,17,29)     =        -0.016595	      -0.950808
	*D(4,3,2,10)      =         1.949060	     111.672905
	 D(4,16,18,20)    =         0.000365	       0.020915
	 D(4,16,18,30)    =        -3.137664	    -179.774898
	 D(4,17,19,20)    =        -0.002986	      -0.171079
	 D(4,17,19,31)    =         3.138581	     179.827448
	 D(5,3,2,10)      =        -0.474320	     -27.176547
	 D(5,3,4,16)      =         1.412380	      80.923407
	 D(5,3,4,17)      =        -1.727207	     -98.961653
	 D(6,1,2,10)      =         1.922181	     110.132866
	 D(6,1,8,7)       =         0.008667	       0.496566
	 D(6,1,8,22)      =        -3.127666	    -179.202038
	 D(6,9,7,8)       =         0.002622	       0.150233
	 D(6,9,7,21)      =        -3.138637	    -179.830677
	 D(7,9,6,33)      =         3.141437	     179.991072
	 D(8,1,2,10)      =        -1.205771	     -69.085617
	 D(8,1,6,9)       =        -0.007407	      -0.424374
	 D(8,1,6,33)      =         3.137577	     179.769940
	 D(8,7,9,34)      =        -3.138623	    -179.829861
	 D(9,7,8,22)      =         3.129963	     179.333642
	 D(10,11,13,15)   =         0.003201	       0.183398
	 D(10,11,13,25)   =        -3.141339	    -179.985449
	 D(10,12,14,15)   =        -0.001003	      -0.057451
	 D(10,12,14,26)   =        -3.140149	    -179.917272
	 D(11,10,12,14)   =         0.005050	       0.289346
	 D(11,10,12,24)   =        -3.135525	    -179.652341
	 D(11,13,15,14)   =         0.000961	       0.055061
	 D(11,13,15,27)   =         3.141562	     179.998259
	 D(12,10,11,13)   =        -0.006153	      -0.352554
	 D(12,10,11,23)   =         3.132092	     179.455658
	 D(12,14,15,13)   =        -0.002059	      -0.117962
	 D(12,14,15,27)   =         3.140526	     179.938858
	 D(13,15,14,26)   =         3.137072	     179.740967
	 D(14,15,13,25)   =        -3.137661	    -179.774761
	 D(15,13,11,23)   =        -3.135047	    -179.624933
	 D(15,14,12,24)   =         3.139581	     179.884720
	 D(16,4,17,19)    =        -0.012227	      -0.700574
	 D(16,4,17,29)    =         3.126885	     179.157327
	 D(16,18,20,19)   =        -0.015364	      -0.880284
	 D(16,18,20,32)   =        -3.137028	    -179.738483
	 D(17,4,16,18)    =         0.013506	       0.773856
	 D(17,4,16,28)    =        -3.115499	    -178.504951
	 D(17,19,20,18)   =         0.016651	       0.954045
	 D(17,19,20,32)   =         3.138318	     179.812360
	 D(18,20,19,31)   =        -3.124915	    -179.044459
	*D(18,20,32,35)   =        -0.501578	     -28.738293
	 D(18,20,32,36)   =        -2.688357	    -154.031493
	 D(19,20,18,30)   =         3.122612	     178.912505
	 D(19,20,32,35)   =         2.660653	     152.444216
	 D(19,20,32,36)   =         0.473875	      27.151015
	 D(20,18,16,28)   =         3.129635	     179.314901
	 D(20,19,17,29)   =         3.141070	     179.970049
	 D(21,7,8,22)     =        -0.011942	      -0.684253
	 D(21,7,9,34)     =         0.003303	       0.189228
	 D(23,11,13,25)   =         0.003599	       0.206219
	 D(24,12,14,26)   =         0.000435	       0.024899
	 D(25,13,15,27)   =         0.002940	       0.168437
	 D(26,14,15,27)   =        -0.003529	      -0.202213
	 D(28,16,18,30)   =        -0.008393	      -0.480912
	 D(29,17,19,31)   =        -0.000548	      -0.031424
	 D(30,18,20,32)   =         0.000948	       0.054306
	 D(31,19,20,32)   =        -0.003249	      -0.186145
	 D(33,6,9,34)     =        -0.000550	      -0.031499
	 R(12,16)         =         7.047811	       3.729541

	Current energy   :      -895.8976650505

	Generating empirical Hessian (Schlegel '84) for each fragment.
	Taking RFO optimization step.
	Going to follow RFO solution 1.
	Using RFO vector 1.

	Determining step-restricting scale parameter for RS-RFO.
	Maximum step size allowed    0.50000

	 Iter      |step|        alpha        rfo_root  
	------------------------------------------------
	    0     0.72675       1.00000           1
	    1     0.57099       1.72594           1
	    2     0.51113       2.20009           1
	    3     0.50036       2.30439           1
	    4     0.50000       2.30796           1
	------------------------------------------------
	Norm of target step-size    0.50000
	Projected energy change by RFO approximation:         0.0030423075

	Back-transformation to cartesian coordinates...
	Could not converge backtransformation.
	Using first guess instead.

	Back-transformation to cartesian coordinates to adjust frozen coordinates...

	--- Internal Coordinate Step in ANG or DEG, aJ/ANG or AJ/DEG ---
	 ---------------------------------------------------------------------------
	   Coordinate                Previous        Force       Change         New 
	   ----------                --------       ------       ------       ------
	    1 R(1,2)          =      1.377929     0.130142     0.156878     1.534807
	    2 R(1,6)          =      1.452025    -0.001163     0.175159     1.627185
	    3 R(1,8)          =      1.504493    -0.130612     0.187928     1.692421
	    4 R(2,3)          =      1.419235    -0.148947     0.064471     1.483706
	    5 R(2,10)         =      1.489664    -0.074441     0.150531     1.640196
	    6 R(3,4)          =      1.437068     0.029747     0.074900     1.511968
	    7 R(3,5)          =      1.020242    -0.031783     0.120171     1.140412
	    8 R(4,16)         =      1.414302    -0.149555     0.073836     1.488138
	    9 R(4,17)         =      1.415288    -0.141795     0.103850     1.519138
	   10 R(6,9)          =      1.359800    -0.023940     0.153482     1.513281
	   11 R(6,33)         =      1.080308    -0.028917     0.155700     1.236008
	   12 R(7,8)          =      1.387829     0.061868     0.150728     1.538556
	   13 R(7,9)          =      1.388289     0.031606     0.202641     1.590930
	   14 R(7,21)         =      1.009872    -0.065165     0.121590     1.131462
	   15 R(8,22)         =      1.231642     0.173618     0.177047     1.408688
	   16 R(9,34)         =      1.081480    -0.030269     0.102577     1.184057
	   17 R(10,11)        =      1.419334    -0.128780     0.038156     1.457489
	   18 R(10,12)        =      1.416357    -0.101487     0.080031     1.496387
	   19 R(11,13)        =      1.400048    -0.071880     0.143510     1.543558
	   20 R(11,23)        =      1.091349    -0.054287     0.063114     1.154463
	   21 R(12,14)        =      1.400947    -0.087191     0.141255     1.542202
	   22 R(12,24)        =      1.087665    -0.050594     0.033269     1.120935
	   23 R(13,15)        =      1.408780    -0.119196     0.077002     1.485782
	   24 R(13,25)        =      1.090923    -0.053831     0.033127     1.124050
	   25 R(14,15)        =      1.409191    -0.113842     0.040024     1.449214
	   26 R(14,26)        =      1.091103    -0.053900     0.062237     1.153340
	   27 R(15,27)        =      1.091275    -0.056210     0.109768     1.201043
	   28 R(16,18)        =      1.402295    -0.104826     0.055346     1.457641
	   29 R(16,28)        =      1.088337    -0.051480     0.086649     1.174986
	   30 R(17,19)        =      1.401081    -0.101937     0.055859     1.456940
	   31 R(17,29)        =      1.092069    -0.065008     0.062361     1.154431
	   32 R(18,20)        =      1.416183    -0.130254     0.105314     1.521497
	   33 R(18,30)        =      1.092310    -0.053700     0.066194     1.158504
	   34 R(19,20)        =      1.416119    -0.126548     0.076474     1.492593
	   35 R(19,31)        =      1.092169    -0.050772     0.087673     1.179842
	   36 R(20,32)        =      1.426408    -0.150904     0.051319     1.477727
	   37 R(32,35)        =      1.020398    -0.073551     0.048188     1.068587
	   38 R(32,36)        =      1.020435    -0.074026     0.076846     1.097281
	   39 B(1,2,3)        =    117.085111    -0.000353    -0.044896   117.040216
	   40 B(1,2,10)       =    124.885951    -0.000259     0.051104   124.937055
	   41 B(1,6,9)        =    107.117768     0.000366    -0.492974   106.624794
	   42 B(1,6,33)       =    126.142398    -0.000243     0.114506   126.256904
	   43 B(1,8,7)        =    103.826260     0.000060    -0.574954   103.251306
	   44 B(1,8,22)       =    132.559688    -0.000724    -0.805474   131.754215
	   45 B(2,1,6)        =    127.256806     0.000329    -0.078266   127.178540
	   46 B(2,1,8)        =    125.803892    -0.000423    -1.018325   124.785566
	   47 B(2,3,4)        =    126.185450    -0.000908    -4.445644   121.739805
	   48 B(2,3,5)        =    110.854086     0.000521     2.732653   113.586740
	   49 B(2,10,11)      =    118.857193    -0.000642    -3.959988   114.897206
	   50 B(2,10,12)      =    122.579247     0.000671     2.573737   125.152984
	   51 B(3,2,10)       =    117.879752     0.000613    -0.006204   117.873547
	   52 B(3,4,16)       =    123.934496    -0.000101     0.730430   124.664925
	   53 B(3,4,17)       =    117.936771     0.000039    -1.914137   116.022635
	   54 B(4,3,5)        =    110.962145     0.000216     0.306319   111.268464
	   55 B(4,16,18)      =    120.768862     0.000036     1.086913   121.855775
	   56 B(4,16,28)      =    120.685576    -0.000093     0.795770   121.481346
	   57 B(4,17,19)      =    120.928319     0.000107    -1.822278   119.106041
	   58 B(4,17,29)      =    119.882307    -0.000277     0.157514   120.039820
	   59 B(6,1,8)        =    106.935706     0.000096     1.097998   108.033704
	   60 B(6,9,7)        =    110.611367    -0.000501    -0.215557   110.395810
	   61 B(6,9,34)       =    129.874568     0.000088    -0.770040   129.104528
	   62 B(7,8,22)       =    123.613371     0.000666     1.340404   124.953775
	   63 B(7,9,34)       =    119.514062     0.000413     0.980976   120.495037
	   64 B(8,7,9)        =    111.506445    -0.000020     0.133626   111.640071
	   65 B(8,7,21)       =    121.529636     0.000099    -0.594244   120.935392
	   66 B(9,6,33)       =    126.739517    -0.000123     0.361274   127.100791
	   67 B(9,7,21)       =    126.963917    -0.000078     0.447745   127.411662
	   68 B(10,11,13)     =    120.701083     0.000023    -2.289635   118.411448
	   69 B(10,11,23)     =    119.680886    -0.000198     0.772107   120.452993
	   70 B(10,12,14)     =    120.632351     0.000045     0.910265   121.542616
	   71 B(10,12,24)     =    120.103090    -0.000086     1.020518   121.123608
	   72 B(11,10,12)     =    118.540679    -0.000029     1.385856   119.926535
	   73 B(11,13,15)     =    120.260027    -0.000042     0.862611   121.122638
	   74 B(11,13,25)     =    119.478252     0.000067    -2.083990   117.394262
	   75 B(12,14,15)     =    120.348510    -0.000070    -2.369128   117.979382
	   76 B(12,14,26)     =    119.508541     0.000080     1.179482   120.688023
	   77 B(13,11,23)     =    119.617755     0.000175     1.498708   121.116463
	   78 B(13,15,14)     =    119.516458     0.000073     1.461182   120.977641
	   79 B(13,15,27)     =    120.226149    -0.000025     0.832719   121.058868
	   80 B(14,12,24)     =    119.264534     0.000041    -1.962633   117.301901
	   81 B(14,15,27)     =    120.257368    -0.000048    -2.329266   117.928102
	   82 B(15,13,25)     =    120.261504    -0.000024     1.199515   121.461019
	   83 B(15,14,26)     =    120.142800    -0.000009     1.167732   121.310532
	   84 B(16,4,17)      =    118.128637     0.000062     1.159775   119.288412
	   85 B(16,18,20)     =    121.334097    -0.000177    -2.510059   118.824038
	   86 B(16,18,30)     =    118.583490     0.000199     1.700929   120.284419
	   87 B(17,19,20)     =    121.209278    -0.000284     0.343162   121.552440
	   88 B(17,19,31)     =    118.619375     0.000290    -1.261963   117.357412
	   89 B(18,16,28)     =    118.541744     0.000057    -1.921036   116.620708
	   90 B(18,20,19)     =    117.620059     0.000255     1.708937   119.328996
	   91 B(18,20,32)     =    121.189710    -0.000156    -2.567887   118.621824
	   92 B(19,17,29)     =    119.189224     0.000170     1.647558   120.836782
	   93 B(19,20,32)     =    121.180151    -0.000102     0.782583   121.962735
	   94 B(20,18,30)     =    120.082097    -0.000021     0.803456   120.885552
	   95 B(20,19,31)     =    120.171347    -0.000007     0.911215   121.082562
	   96 B(20,32,35)     =    113.609542     0.000153     1.700337   115.309879
	   97 B(20,32,36)     =    113.536355     0.000158    -1.129420   112.406935
	   98 B(35,32,36)     =    108.991314     0.000165     1.928528   110.919841
	   99 *D(1,2,3,4)     =    -72.547363    -0.000000     0.001074   -72.546289
	  100 D(1,2,3,5)      =    148.603185     0.000017     1.502134   150.105319
	  101 *D(1,2,10,11)   =    -51.020128     0.000000     0.001102   -51.019026
	  102 *D(1,2,10,12)   =    130.746472     0.000000    -0.000070   130.746402
	  103 D(1,6,9,7)      =      0.186888    -0.000059    -2.283158    -2.096270
	  104 D(1,6,9,34)     =   -179.835683    -0.000048    -1.468224  -181.303907
	  105 D(1,8,7,9)      =     -0.399785    -0.000035    -1.321039    -1.720824
	  106 D(1,8,7,21)     =    179.582320    -0.000004    -0.090828   179.491492
	  107 D(2,1,6,9)      =   -179.761817     0.000011     0.264501  -179.497316
	  108 D(2,1,6,33)     =      0.432498    -0.000026    -1.368962    -0.936464
	  109 D(2,1,8,7)      =    179.846341     0.000025     1.099596   180.945937
	  110 D(2,1,8,22)     =      0.147736    -0.000046    -1.496168    -1.348432
	  111 *D(2,3,4,16)    =    -57.889946    -0.000000    -0.000092   -57.890038
	  112 D(2,3,4,17)     =    122.224994     0.000010     1.687466   123.912460
	  113 D(2,10,11,13)   =   -178.658030     0.000004    -0.725597  -179.383628
	  114 D(2,10,11,23)   =      1.150181     0.000006     1.038032     2.188214
	  115 D(2,10,12,14)   =    178.528083    -0.000002     0.878952   179.407035
	  116 D(2,10,12,24)   =     -1.413604    -0.000012    -1.288564    -2.702168
	  117 D(3,2,1,6)      =    -65.318790     0.000406    15.493407   -49.825382
	  118 D(3,2,1,8)      =    115.462727     0.000375    14.108051   129.570778
	  119 *D(3,2,10,11)   =    124.398525     0.000000    -0.001053   124.397472
	  120 D(3,2,10,12)    =    -53.834875     0.000000    -0.002225   -53.837100
	  121 D(3,4,16,18)    =   -179.110999     0.000012     0.478663  -178.632336
	  122 D(3,4,16,28)    =      1.610194     0.000022     2.199568     3.809762
	  123 D(3,4,17,19)    =    179.191291    -0.000017    -0.535743   178.655548
	  124 D(3,4,17,29)    =     -0.950808    -0.000018    -1.896220    -2.847028
	  125 *D(4,3,2,10)    =    111.672905    -0.000000    -0.001265   111.671640
	  126 D(4,16,18,20)   =      0.020915     0.000007     1.487639     1.508553
	  127 D(4,16,18,30)   =   -179.774898     0.000013     0.401011  -179.373887
	  128 D(4,17,19,20)   =     -0.171079     0.000003    -1.141935    -1.313014
	  129 D(4,17,19,31)   =    179.827448    -0.000007    -0.148653   179.678795
	  130 D(5,3,2,10)     =    -27.176547     0.000017     1.499794   -25.676752
	  131 D(5,3,4,16)     =     80.923407     0.000006    -0.596817    80.326590
	  132 D(5,3,4,17)     =    -98.961653     0.000016     1.090741   -97.870912
	  133 D(6,1,2,10)     =    110.132866     0.000415    15.492832   125.625698
	  134 D(6,1,8,7)      =      0.496566    -0.000001    -0.056596     0.439971
	  135 D(6,1,8,22)     =   -179.202038    -0.000072    -2.652360  -181.854398
	  136 D(6,9,7,8)      =      0.150233     0.000061     2.394154     2.544388
	  137 D(6,9,7,21)     =   -179.830677     0.000028     1.065880  -178.764797
	  138 D(7,9,6,33)     =    179.991072    -0.000022    -0.632317   179.358756
	  139 D(8,1,2,10)     =    -69.085617     0.000384    14.107475   -54.978141
	  140 D(8,1,6,9)      =     -0.424374     0.000036     1.448606     1.024232
	  141 D(8,1,6,33)     =    179.769940    -0.000001    -0.184856   179.585084
	  142 D(8,7,9,34)     =   -179.829861     0.000052     1.660675  -178.169187
	  143 D(9,7,8,22)     =    179.333642     0.000027     1.033759   180.367401
	  144 D(10,11,13,15)  =      0.183398    -0.000009     1.198680     1.382078
	  145 D(10,11,13,25)  =   -179.985449    -0.000002    -0.317558  -180.303007
	  146 D(10,12,14,15)  =     -0.057451    -0.000006    -1.666644    -1.724095
	  147 D(10,12,14,26)  =   -179.917272    -0.000010    -0.120391  -180.037663
	  148 D(11,10,12,14)  =      0.289346    -0.000000     0.965438     1.254785
	  149 D(11,10,12,24)  =   -179.652341    -0.000009    -1.202078  -180.854419
	  150 D(11,13,15,14)  =      0.055061     0.000003    -1.982957    -1.927896
	  151 D(11,13,15,27)  =    179.998259     0.000006     0.282526   180.280785
	  152 D(12,10,11,13)  =     -0.352554     0.000007    -0.696560    -1.049114
	  153 D(12,10,11,23)  =    179.455658     0.000009     1.067070   180.522727
	  154 D(12,14,15,13)  =     -0.117962     0.000004     2.153078     2.035116
	  155 D(12,14,15,27)  =    179.938858     0.000001    -0.045150   179.893708
	  156 D(13,15,14,26)  =    179.740967     0.000008     0.596669   180.337636
	  157 D(14,15,13,25)  =   -179.774761    -0.000004    -0.399152  -180.173913
	  158 D(15,13,11,23)  =   -179.624933    -0.000010    -0.575714  -180.200647
	  159 D(15,14,12,24)  =    179.884720     0.000004     0.423099   180.307819
	  160 D(16,4,17,19)   =     -0.700574    -0.000008     1.055925     0.355350
	  161 D(16,4,17,29)   =    179.157327    -0.000009    -0.304552   178.852774
	  162 D(16,18,20,19)  =     -0.880284    -0.000013    -1.517850    -2.398134
	  163 D(16,18,20,32)  =   -179.738483     0.000028     0.653893  -179.084590
	  164 D(17,4,16,18)   =      0.773856     0.000003    -1.263378    -0.489522
	  165 D(17,4,16,28)   =   -178.504951     0.000012     0.457528  -178.047424
	  166 D(17,19,20,18)  =      0.954045     0.000007     1.388361     2.342406
	  167 D(17,19,20,32)  =    179.812360    -0.000034    -0.898491   178.913869
	  168 D(18,20,19,31)  =   -179.044459     0.000017     0.358303  -178.686157
	  169 *D(18,20,32,35) =    -28.738293     0.000000    -0.000058   -28.738351
	  170 D(18,20,32,36)  =   -154.031493    -0.000112    -3.185114  -157.216607
	  171 D(19,20,18,30)  =    178.912505    -0.000018    -0.422710   178.489796
	  172 D(19,20,32,35)  =    152.444216     0.000042     2.222590   154.666806
	  173 D(19,20,32,36)  =     27.151015    -0.000071    -0.962466    26.188549
	  174 D(20,18,16,28)  =    179.314901    -0.000002    -0.135886   179.179015
	  175 D(20,19,17,29)  =    179.970049     0.000004     0.231847   180.201896
	  176 D(21,7,8,22)    =     -0.684253     0.000058     2.263969     1.579717
	  177 D(21,7,9,34)    =      0.189228     0.000018     0.332401     0.521629
	  178 D(23,11,13,25)  =      0.206219    -0.000004    -2.091951    -1.885732
	  179 D(24,12,14,26)  =      0.024899    -0.000001     1.969352     1.994251
	  180 D(25,13,15,27)  =      0.168437    -0.000000     1.866331     2.034768
	  181 D(26,14,15,27)  =     -0.202213     0.000005    -1.601559    -1.803772
	  182 D(28,16,18,30)  =     -0.480912     0.000004    -1.222513    -1.703425
	  183 D(29,17,19,31)  =     -0.031424    -0.000006     1.225129     1.193705
	  184 D(30,18,20,32)  =      0.054306     0.000023     1.749034     1.803340
	  185 D(31,19,20,32)  =     -0.186145    -0.000024    -1.928549    -2.114694
	  186 D(33,6,9,34)    =     -0.031499    -0.000011     0.182618     0.151119
	  187 R(12,16)        =      3.729541    -0.021667     0.246140     3.975681
	 ---------------------------------------------------------------------------
	Successfully symmetrized geometry.

  ==> Convergence Check <==

  Measures of convergence in internal coordinates in au.
  Criteria marked as inactive (o), active & met (*), and active & unmet ( ).
  --------------------------------------------------------------------------------------------- ~
   Step     Total Energy     Delta E     MAX Force     RMS Force      MAX Disp      RMS Disp    ~
  --------------------------------------------------------------------------------------------- ~
    Convergence Criteria             o    2.50e-03 *    1.70e-03 *    1.00e-02 *    6.70e-03 *  ~
  --------------------------------------------------------------------------------------------- ~
      1    -895.89766505   -8.96e+02 o    2.38e-02      6.53e-03      4.65e-01      1.09e-01    ~
  ---------------------------------------------------------------------------------------------

	Writing optimization data to binary file.
	Structure for next step:
	Cartesian Geometry (in Angstrom)
	    C    -0.7068843073   1.5565617703  -0.5744227794
	    C    -0.8554442818   0.3942496032   0.4168350920
	    N     0.2163726120   0.2303004770   1.4296099309
	    C     1.5886999865  -0.2849592046   1.0591076323
	    H    -0.1471168677  -0.2279050165   2.4086213652
	    C    -0.3875936005   3.1131324191  -0.2238927311
	    N    -0.5847766363   2.8485890838  -2.7517920065
	    C    -0.8393302536   1.4146349925  -2.2556729676
	    C    -0.3547502655   3.8558166420  -1.5419830121
	    C    -2.1530339367  -0.6051244149   0.5048960292
	    C    -3.4422236100   0.0693070414   0.5909609240
	    C    -2.0886158046  -2.0997210730   0.5396223277
	    C    -4.7175730826  -0.7943110354   0.6920488871
	    C    -3.3647477356  -2.9602090569   0.6367513907
	    C    -4.6394707741  -2.2774842952   0.7326196555
	    C     1.8529926461  -1.5970987547   0.4087282715
	    C     2.7589244571   0.6106500037   1.4282141227
	    C     3.2058998914  -2.0462569676   0.1043989918
	    C     4.1136710397   0.1659453070   1.1289256768
	    C     4.3786649349  -1.1593746819   0.4955705619
	    H    -0.5959468963   3.0924071799  -3.8566146664
	    O    -1.0693924166   0.3016032046  -3.0879196906
	    H    -3.5032328272   1.2216262277   0.5559909400
	    H    -1.1093523151  -2.6394393642   0.4606195561
	    H    -5.7020845548  -0.2565241880   0.7628287366
	    H    -3.2979849666  -4.1113413605   0.6618368813
	    H    -5.6328519797  -2.9485109123   0.8062546300
	    H     0.9759925134  -2.3049174203   0.0763798455
	    H     2.5679264756   1.6397849557   1.9151548486
	    H     3.3797495326  -3.0684494861  -0.4123498807
	    H     4.9989079242   0.8881612876   1.4235209512
	    N     5.7471721863  -1.6095113562   0.1665671478
	    H    -0.2328784888   3.5912426447   0.9053497403
	    H    -0.1768715147   5.0086234868  -1.7454201180
	    H     5.8817686338  -2.6687217847   0.1237325551
	    H     6.5061546220  -1.1437268891   0.8076727428
			--------------------------
			 OPTKING Finished Execution 
			--------------------------

    Structure for next step:
    Molecular point group: c1
    Full point group: C1

    Geometry (in Angstrom), charge = 0, multiplicity = 1:

    C           -0.686486990883     1.593691323394    -0.534985908976
    C           -0.835046965968     0.431379151756     0.456271966305
    N            0.236769932056     0.267430024903     1.469046809211
    C            1.609097311923    -0.247829658717     1.098544509108
    H           -0.126719549140    -0.190775470422     2.448058247294
    C           -0.367196282835     3.150261978258    -0.184455859313
    N           -0.564379319405     2.885718641952    -2.712355144619
    C           -0.818932937665     1.451764545014    -2.216236103762
    C           -0.334352947742     3.892946204142    -1.502546145446
    C           -2.132636626024    -0.567994870342     0.544332903875
    C           -3.421826304351     0.106436588622     0.630397799031
    C           -2.068218493648    -2.062591534335     0.579059202492
    C           -4.697175781994    -0.757181491599     0.731485762496
    C           -3.344350429647    -2.923079521541     0.676188265859
    C           -4.619073473117    -2.240354757193     0.772056531069
    C            1.873389972523    -1.559969213972     0.448165145738
    C            2.779321787162     0.647779553055     1.467651001009
    C            3.226297223218    -2.009127428682     0.143835864889
    C            4.134068375093     0.203074854660     1.168362553913
    C            4.399062271248    -1.122245139478     0.535007436518
    H           -0.575549579413     3.129536739002    -3.817177808904
    O           -1.048995101633     0.338732752750    -3.048482830017
    H           -3.482835521790     1.258755779438     0.595427814855
    H           -1.088955000239    -2.602309827658     0.500056430627
    H           -5.681687258065    -0.219394642052     0.802265612290
    H           -3.277587660380    -4.074211829747     0.701273756557
    H           -5.612454682619    -2.911381376967     0.845691505860
    H            0.996389836390    -2.267787882356     0.115816718441
    H            2.588323804836     1.676914509140     1.954591728826
    H            3.400146865078    -3.031319951160    -0.372913009683
    H            5.019305263024     0.925290838012     1.462957829492
    N            5.767569528044    -1.572381815573     0.206004021129
    H           -0.212481170561     3.628372205812     0.944786616550
    H           -0.156474196203     5.045753053404    -1.705983252189
    H            5.902165976120    -2.631592248197     0.163169428266
    H            6.526551966774    -1.106597346672     0.847109618657

gradient() will perform analytic gradient computation.

*** tstart() called on node44.bme.utexas.edu
*** at Sun Nov  7 09:29:09 2021

   => Loading Basis Set <=

    Name: 6-311G
    Role: ORBITAL
    Keyword: BASIS
    atoms 1-2, 4, 6, 8-20     entry C          line    92 file /home/bdw2292/miniconda3/envs/amoebamdpoltype/share/psi4/basis/6-311g.gbs 
    atoms 3, 7, 32            entry N          line   109 file /home/bdw2292/miniconda3/envs/amoebamdpoltype/share/psi4/basis/6-311g.gbs 
    atoms 5, 21, 23-31, 33-36 entry H          line    21 file /home/bdw2292/miniconda3/envs/amoebamdpoltype/share/psi4/basis/6-311g.gbs 
    atoms 22                  entry O          line   126 file /home/bdw2292/miniconda3/envs/amoebamdpoltype/share/psi4/basis/6-311g.gbs 


         ---------------------------------------------------------
                                   SCF
               by Justin Turney, Rob Parrish, Andy Simmonett
                          and Daniel G. A. Smith
                              RKS Reference
                        1 Threads,   7947 MiB Core
         ---------------------------------------------------------

  ==> Geometry <==

    Molecular point group: c1
    Full point group: C1

    Geometry (in Angstrom), charge = 0, multiplicity = 1:

       Center              X                  Y                   Z               Mass       
    ------------   -----------------  -----------------  -----------------  -----------------
         C           -0.686486990883     1.593691323394    -0.534985908976    12.000000000000
         C           -0.835046965968     0.431379151756     0.456271966305    12.000000000000
         N            0.236769932056     0.267430024903     1.469046809211    14.003074004430
         C            1.609097311923    -0.247829658717     1.098544509108    12.000000000000
         H           -0.126719549140    -0.190775470422     2.448058247294     1.007825032230
         C           -0.367196282835     3.150261978258    -0.184455859313    12.000000000000
         N           -0.564379319405     2.885718641952    -2.712355144619    14.003074004430
         C           -0.818932937665     1.451764545014    -2.216236103762    12.000000000000
         C           -0.334352947742     3.892946204142    -1.502546145446    12.000000000000
         C           -2.132636626024    -0.567994870342     0.544332903875    12.000000000000
         C           -3.421826304351     0.106436588622     0.630397799031    12.000000000000
         C           -2.068218493648    -2.062591534335     0.579059202492    12.000000000000
         C           -4.697175781994    -0.757181491599     0.731485762496    12.000000000000
         C           -3.344350429647    -2.923079521541     0.676188265859    12.000000000000
         C           -4.619073473117    -2.240354757193     0.772056531069    12.000000000000
         C            1.873389972523    -1.559969213972     0.448165145738    12.000000000000
         C            2.779321787162     0.647779553055     1.467651001009    12.000000000000
         C            3.226297223218    -2.009127428682     0.143835864889    12.000000000000
         C            4.134068375093     0.203074854660     1.168362553913    12.000000000000
         C            4.399062271248    -1.122245139478     0.535007436518    12.000000000000
         H           -0.575549579413     3.129536739002    -3.817177808904     1.007825032230
         O           -1.048995101633     0.338732752750    -3.048482830017    15.994914619570
         H           -3.482835521790     1.258755779438     0.595427814855     1.007825032230
         H           -1.088955000239    -2.602309827658     0.500056430627     1.007825032230
         H           -5.681687258065    -0.219394642052     0.802265612290     1.007825032230
         H           -3.277587660380    -4.074211829747     0.701273756557     1.007825032230
         H           -5.612454682619    -2.911381376967     0.845691505860     1.007825032230
         H            0.996389836390    -2.267787882356     0.115816718441     1.007825032230
         H            2.588323804836     1.676914509140     1.954591728826     1.007825032230
         H            3.400146865078    -3.031319951160    -0.372913009683     1.007825032230
         H            5.019305263024     0.925290838012     1.462957829492     1.007825032230
         N            5.767569528044    -1.572381815573     0.206004021129    14.003074004430
         H           -0.212481170561     3.628372205812     0.944786616550     1.007825032230
         H           -0.156474196203     5.045753053404    -1.705983252189     1.007825032230
         H            5.902165976120    -2.631592248197     0.163169428266     1.007825032230
         H            6.526551966774    -1.106597346672     0.847109618657     1.007825032230

  Running in c1 symmetry.

  Rotational constants: A =      0.01173  B =      0.00630  C =      0.00482 [cm^-1]
  Rotational constants: A =    351.51555  B =    188.96340  C =    144.59511 [MHz]
  Nuclear repulsion = 1416.907094722555712

  Charge       = 0
  Multiplicity = 1
  Electrons    = 146
  Nalpha       = 73
  Nbeta        = 73

  ==> Algorithm <==

  SCF Algorithm Type is DF.
  DIIS enabled.
  MOM disabled.
  Fractional occupation disabled.
  Guess Type is READ.
  Energy threshold   = 1.00e-08
  Density threshold  = 1.00e-08
  Integral threshold = 0.00e+00

  ==> Primary Basis <==

  Basis Set: 6-311G
    Blend: 6-311G
    Number of shells: 192
    Number of basis function: 318
    Number of Cartesian functions: 318
    Spherical Harmonics?: true
    Max angular momentum: 1

  ==> DFT Potential <==

   => Composite Functional: WB97X-D <= 

    wB97X-D Hyb-GGA Exchange-Correlation Functional

    J.-D. Chai and M. Head-Gordon, Phys. Chem. Chem. Phys. 10, 6615 (2008)

    Deriv               =              1
    GGA                 =           TRUE
    Meta                =          FALSE

    Exchange Hybrid     =           TRUE
    MP2 Hybrid          =          FALSE

   => Exchange-Correlation Functionals <=

    1.0000   wB97D range-separated functional

   => Exact (HF) Exchange <=

    0.7780            HF,LR [omega = 0.2000]
    0.2220               HF 

   => Molecular Quadrature <=

    Radial Scheme          =       TREUTLER
    Pruning Scheme         =           FLAT
    Nuclear Scheme         =       TREUTLER

    BS radius alpha        =              1
    Pruning alpha          =              1
    Radial Points          =             75
    Spherical Points       =            302
    Total Points           =         807191
    Total Blocks           =           5788
    Max Points             =            256
    Max Functions          =            209

   => WB97X-D: Empirical Dispersion <=

    Chai and Head-Gordon Dispersion Correction
    Chai, J.-D.; Head-Gordon, M. (2010), J. Chem. Phys., 132: 6615-6620

        s6 =       1.000000

   => Loading Basis Set <=

    Name: (6-311G AUX)
    Role: JKFIT
    Keyword: DF_BASIS_SCF
    atoms 1-2, 4, 6, 8-20     entry C          line   125 file /home/bdw2292/miniconda3/envs/amoebamdpoltype/share/psi4/basis/cc-pvtz-jkfit.gbs 
    atoms 3, 7, 32            entry N          line   177 file /home/bdw2292/miniconda3/envs/amoebamdpoltype/share/psi4/basis/cc-pvtz-jkfit.gbs 
    atoms 5, 21, 23-31, 33-36 entry H          line    51 file /home/bdw2292/miniconda3/envs/amoebamdpoltype/share/psi4/basis/cc-pvtz-jkfit.gbs 
    atoms 22                  entry O          line   229 file /home/bdw2292/miniconda3/envs/amoebamdpoltype/share/psi4/basis/cc-pvtz-jkfit.gbs 

   => Loading Basis Set <=

    Name: 6-311G
    Role: ORBITAL
    Keyword: BASIS
    atoms 1-2, 4, 6, 8-20     entry C          line    92 file /home/bdw2292/miniconda3/envs/amoebamdpoltype/share/psi4/basis/6-311g.gbs 
    atoms 3, 7, 32            entry N          line   109 file /home/bdw2292/miniconda3/envs/amoebamdpoltype/share/psi4/basis/6-311g.gbs 
    atoms 5, 21, 23-31, 33-36 entry H          line    21 file /home/bdw2292/miniconda3/envs/amoebamdpoltype/share/psi4/basis/6-311g.gbs 
    atoms 22                  entry O          line   126 file /home/bdw2292/miniconda3/envs/amoebamdpoltype/share/psi4/basis/6-311g.gbs 

  Reading orbitals from file 180, no projection.

  ==> Pre-Iterations <==

   -------------------------------------------------------
    Irrep   Nso     Nmo     Nalpha   Nbeta   Ndocc  Nsocc
   -------------------------------------------------------
     A        318     318       0       0       0       0
   -------------------------------------------------------
    Total     318     318      73      73      73       0
   -------------------------------------------------------

  ==> Integral Setup <==

  ==> DiskDFJK: Density-Fitted J/K Matrices <==

    J tasked:                  Yes
    K tasked:                  Yes
    wK tasked:                 Yes
    Omega:               2.000E-01
    OpenMP threads:              1
    Integrals threads:           1
    Memory [MiB]:             2845
    Algorithm:                Core
    Integral Cache:           NONE
    Schwarz Cutoff:          1E-12
    Fitting Condition:       1E-10

   => Auxiliary Basis Set <=

  Basis Set: (6-311G AUX)
    Blend: CC-PVTZ-JKFIT
    Number of shells: 675
    Number of basis function: 2109
    Number of Cartesian functions: 2541
    Spherical Harmonics?: true
    Max angular momentum: 4

  Cached 100.0% of DFT collocation blocks in 3.042 [GiB].

  Minimum eigenvalue in the overlap matrix is 4.4639466640E-04.
  Using Symmetric Orthogonalization.

  SCF Guess: Orbitals guess was supplied from a previous computation.

  ==> Iterations <==

                           Total Energy        Delta E     RMS |[F,P]|

[...]
	   38 R(32,36)        =      1.002249    -0.000440    -0.000043     1.002206
	   39 B(1,2,3)        =    117.524523     0.000004     0.026722   117.551245
	   40 B(1,2,10)       =    125.599599     0.000003     0.019468   125.619067
	   41 B(1,6,9)        =    108.033676     0.000009     0.016938   108.050614
	   42 B(1,6,33)       =    125.269048    -0.000003    -0.001614   125.267434
	   43 B(1,8,7)        =    104.576631    -0.000020    -0.041314   104.535318
	   44 B(1,8,22)       =    131.201173     0.000005    -0.000809   131.200364
	   45 B(2,1,6)        =    127.014671     0.000002     0.075219   127.089890
	   46 B(2,1,8)        =    126.570118    -0.000007    -0.090977   126.479142
	   47 B(2,3,4)        =    123.058849    -0.000002     0.022865   123.081713
	   48 B(2,3,5)        =    111.795619     0.000002     0.009204   111.804823
	   49 B(2,10,11)      =    119.295404     0.000003    -0.000398   119.295006
	   50 B(2,10,12)      =    122.122015    -0.000004    -0.006157   122.115858
	   51 B(3,2,10)       =    116.725191    -0.000006    -0.046252   116.678939
	   52 B(3,4,16)       =    123.831633    -0.000002    -0.016039   123.815594
	   53 B(3,4,17)       =    117.952600    -0.000001     0.008765   117.961366
	   54 B(4,3,5)        =    111.614275     0.000000    -0.009248   111.605028
	   55 B(4,16,18)      =    120.992611    -0.000000    -0.001433   120.991178
	   56 B(4,16,28)      =    120.355775     0.000000     0.001116   120.356891
	   57 B(4,17,19)      =    121.504219    -0.000004    -0.009842   121.494376
	   58 B(4,17,29)      =    118.372541     0.000001    -0.000810   118.371731
	   59 B(6,1,8)        =    106.303926     0.000005     0.013037   106.316963
	   60 B(6,9,7)        =    109.999288    -0.000013    -0.035115   109.964173
	   61 B(6,9,34)       =    129.568864     0.000002    -0.001487   129.567377
	   62 B(7,8,22)       =    124.214544     0.000015     0.042635   124.257179
	   63 B(7,9,34)       =    120.424786     0.000011     0.036663   120.461449
	   64 B(8,7,9)        =    111.081819     0.000020     0.046757   111.128575
	   65 B(8,7,21)       =    122.434560    -0.000010    -0.015824   122.418737
	   66 B(9,6,33)       =    126.671494    -0.000006    -0.013133   126.658361
	   67 B(9,7,21)       =    126.483149    -0.000010    -0.030567   126.452581
	   68 B(10,11,13)     =    120.826122    -0.000001    -0.006074   120.820049
	   69 B(10,11,23)     =    119.020205    -0.000000    -0.000167   119.020038
	   70 B(10,12,14)     =    120.681569     0.000001    -0.000085   120.681484
	   71 B(10,12,24)     =    120.227915    -0.000001    -0.000539   120.227376
	   72 B(11,10,12)     =    118.559811     0.000001     0.006551   118.566362
	   73 B(11,13,15)     =    120.081692     0.000001     0.001869   120.083561
	   74 B(11,13,25)     =    119.743850    -0.000000     0.001140   119.744990
	   75 B(12,14,15)     =    120.174327    -0.000002    -0.004073   120.170254
	   76 B(12,14,26)     =    119.670476     0.000002     0.004992   119.675468
	   77 B(13,11,23)     =    120.148799     0.000002     0.006954   120.155753
	   78 B(13,15,14)     =    119.671038     0.000000     0.002253   119.673291
	   79 B(13,15,27)     =    120.205779     0.000001     0.002177   120.207955
	   80 B(14,12,24)     =    119.090416    -0.000001     0.000535   119.090952
	   81 B(14,15,27)     =    120.123180    -0.000001    -0.004428   120.118751
	   82 B(15,13,25)     =    120.172599    -0.000001    -0.002815   120.169784
	   83 B(15,14,26)     =    120.155152     0.000000    -0.000906   120.154246
	   84 B(16,4,17)      =    118.058914     0.000003     0.009962   118.068876
	   85 B(16,18,20)     =    120.852446    -0.000003    -0.007455   120.844991
	   86 B(16,18,30)     =    119.690744     0.000002     0.004700   119.695444
	   87 B(17,19,20)     =    120.388935     0.000000    -0.000553   120.388382
	   88 B(17,19,31)     =    119.899840    -0.000001    -0.004174   119.895667
	   89 B(18,16,28)     =    118.584874    -0.000000    -0.000717   118.584158
	   90 B(18,20,19)     =    118.168511     0.000004     0.010038   118.178549
	   91 B(18,20,32)     =    120.630749    -0.000008    -0.019540   120.611209
	   92 B(19,17,29)     =    120.117006     0.000003     0.011121   120.128127
	   93 B(19,20,32)     =    121.139290     0.000004     0.008764   121.148054
	   94 B(20,18,30)     =    119.456071     0.000001     0.002547   119.458618
	   95 B(20,19,31)     =    119.711225     0.000001     0.004723   119.715947
	   96 B(20,32,35)     =    119.677799     0.000003     0.000445   119.678245
	   97 B(20,32,36)     =    119.162314    -0.000006    -0.020889   119.141426
	   98 B(35,32,36)     =    116.069905     0.000003     0.001098   116.071003
	   99 *D(1,2,3,4)     =    -72.541883     0.000000     0.000000   -72.541883
	  100 D(1,2,3,5)      =    150.267677    -0.000000    -0.026074   150.241603
	  101 *D(1,2,10,11)   =    -51.015053    -0.000000     0.000000   -51.015053
	  102 *D(1,2,10,12)   =    130.746395     0.000000    -0.000000   130.746395
	  103 D(1,6,9,7)      =     -0.685838    -0.000000     0.030590    -0.655247
	  104 D(1,6,9,34)     =    178.332681    -0.000000     0.035116   178.367796
	  105 D(1,8,7,9)      =     -0.378328     0.000001    -0.009472    -0.387800
	  106 D(1,8,7,21)     =    179.386594     0.000001     0.113921   179.500514
	  107 D(2,1,6,9)      =    176.787178    -0.000000    -0.083803   176.703374
	  108 D(2,1,6,33)     =     -4.959828    -0.000000    -0.008115    -4.967943
	  109 D(2,1,8,7)      =   -176.398892     0.000000     0.066849  -176.332044
	  110 D(2,1,8,22)     =      2.603260     0.000001     0.101159     2.704419
	  111 *D(2,3,4,16)    =    -57.890057     0.000000    -0.000000   -57.890057
	  112 D(2,3,4,17)     =    126.758859    -0.000001    -0.040468   126.718390
	  113 D(2,10,11,13)   =   -178.605780     0.000000     0.033531  -178.572249
	  114 D(2,10,11,23)   =      2.196140    -0.000000    -0.027494     2.168646
	  115 D(2,10,12,14)   =    179.064507    -0.000000    -0.042641   179.021866
	  116 D(2,10,12,24)   =     -0.819758     0.000000     0.000659    -0.819099
	  117 D(3,2,1,6)      =     -4.730479     0.000000    -0.040526    -4.771005
	  118 D(3,2,1,8)      =    170.900358    -0.000001    -0.093066   170.807291
	  119 *D(3,2,10,11)   =    124.393428    -0.000000    -0.000000   124.393428
	  120 D(3,2,10,12)    =    -53.845124    -0.000000    -0.000000   -53.845125
	  121 D(3,4,16,18)    =   -176.921814    -0.000001    -0.037355  -176.959169
	  122 D(3,4,16,28)    =      6.091144    -0.000000    -0.014110     6.077035
	  123 D(3,4,17,19)    =    175.773895     0.000001     0.047372   175.821268
	  124 D(3,4,17,29)    =     -3.318477     0.000000     0.012509    -3.305969
	  125 *D(4,3,2,10)    =    111.667289     0.000000    -0.000000   111.667288
	  126 D(4,16,18,20)   =      2.327580    -0.000000    -0.024932     2.302648
	  127 D(4,16,18,30)   =   -177.358102    -0.000000     0.016613  -177.341489
	  128 D(4,17,19,20)   =      0.545245     0.000000    -0.002748     0.542497
	  129 D(4,17,19,31)   =   -179.448331    -0.000000    -0.033372  -179.481703
	  130 D(5,3,2,10)     =    -25.523151    -0.000000    -0.026074   -25.549226
	  131 D(5,3,4,16)     =     79.367170     0.000000     0.032794    79.399964
	  132 D(5,3,4,17)     =    -95.983914    -0.000000    -0.007674   -95.991589
	  133 D(6,1,2,10)     =    170.644998     0.000000    -0.043537   170.601461
	  134 D(6,1,8,7)      =     -0.032674    -0.000001     0.026582    -0.006093
	  135 D(6,1,8,22)     =    178.969478     0.000000     0.060892   179.030370
	  136 D(6,9,7,8)      =      0.692361    -0.000000    -0.013243     0.679119
	  137 D(6,9,7,21)     =   -179.060873    -0.000000    -0.142796  -179.203669
	  138 D(7,9,6,33)     =   -178.907507    -0.000000    -0.046713  -178.954220
	  139 D(8,1,2,10)     =    -13.724166    -0.000001    -0.096076   -13.820242
	  140 D(8,1,6,9)      =      0.442136     0.000000    -0.035273     0.406863
	  141 D(8,1,6,33)     =    178.695130     0.000000     0.040416   178.735546
	  142 D(8,7,9,34)     =   -178.430239    -0.000000    -0.016941  -178.447180
	  143 D(9,7,8,22)     =   -179.470430    -0.000000    -0.040234  -179.510664
	  144 D(10,11,13,15)  =     -0.289769    -0.000000    -0.004285    -0.294054
	  145 D(10,11,13,25)  =   -179.794626    -0.000000    -0.030828  -179.825454
	  146 D(10,12,14,15)  =     -0.731388     0.000000     0.022893    -0.708495
	  147 D(10,12,14,26)  =    179.191398     0.000000     0.034501   179.225899
	  148 D(11,10,12,14)  =      0.813497    -0.000000    -0.042526     0.770972
	  149 D(11,10,12,24)  =   -179.070768     0.000000     0.000774  -179.069994
	  150 D(11,13,15,14)  =      0.381700    -0.000000    -0.016152     0.365547
	  151 D(11,13,15,27)  =   -179.639884    -0.000000    -0.013080  -179.652964
	  152 D(12,10,11,13)  =     -0.304235     0.000000     0.033311    -0.270924
	  153 D(12,10,11,23)  =   -179.502316    -0.000000    -0.027714  -179.530030
	  154 D(12,14,15,13)  =      0.124645     0.000000     0.006944     0.131589
	  155 D(12,14,15,27)  =   -179.853789     0.000000     0.003873  -179.849916
	  156 D(13,15,14,26)  =   -179.797764    -0.000000    -0.004725  -179.802489
	  157 D(14,15,13,25)  =    179.884417     0.000000     0.010525   179.894942
	  158 D(15,13,11,23)  =    178.899293     0.000000     0.057372   178.956665
	  159 D(15,14,12,24)  =    179.154178    -0.000000    -0.019922   179.134257
	  160 D(16,4,17,19)   =      0.149443    -0.000000     0.010511     0.159954
	  161 D(16,4,17,29)   =   -178.942930    -0.000000    -0.024352  -178.967283
	  162 D(16,18,20,19)  =     -1.579832     0.000000     0.031890    -1.547942
	  163 D(16,18,20,32)  =   -178.761252     0.000000     0.048498  -178.712755
	  164 D(17,4,16,18)   =     -1.575330     0.000000     0.003101    -1.572229
	  165 D(17,4,16,28)   =   -178.562371     0.000000     0.026346  -178.536026
	  166 D(17,19,20,18)  =      0.162664    -0.000000    -0.018250     0.144414
	  167 D(17,19,20,32)  =    177.329069    -0.000000    -0.035786   177.293283
	  168 D(18,20,19,31)  =   -179.843747     0.000000     0.012318  -179.831429
	  169 *D(18,20,32,35) =    -28.738351    -0.000000    -0.000000   -28.738351
	  170 D(18,20,32,36)  =    177.463562     0.000000     0.046571   177.510133
	  171 D(19,20,18,30)  =    178.106579    -0.000000    -0.009551   178.097028
	  172 D(19,20,32,35)  =    154.164768     0.000000     0.017103   154.181871
	  173 D(19,20,32,36)  =      0.366681     0.000000     0.063674     0.430355
	  174 D(20,18,16,28)  =    179.366840    -0.000000    -0.047719   179.319121
	  175 D(20,19,17,29)  =    179.622010     0.000000     0.032608   179.654618
	  176 D(21,7,8,22)    =      0.294492    -0.000000     0.083159     0.377651
	  177 D(21,7,9,34)    =      1.816526    -0.000000    -0.146494     1.670033
	  178 D(23,11,13,25)  =     -0.605565     0.000000     0.030829    -0.574736
	  179 D(24,12,14,26)  =     -0.923035    -0.000000    -0.008314    -0.931349
	  180 D(25,13,15,27)  =     -0.137167     0.000000     0.013597    -0.123570
	  181 D(26,14,15,27)  =      0.223802    -0.000000    -0.007796     0.216006
	  182 D(28,16,18,30)  =     -0.318841    -0.000000    -0.006174    -0.325015
	  183 D(29,17,19,31)  =     -0.371567     0.000000     0.001984    -0.369582
	  184 D(30,18,20,32)  =      0.925159     0.000000     0.007057     0.932215
	  185 D(31,19,20,32)  =     -2.677342    -0.000000    -0.005218    -2.682560
	  186 D(33,6,9,34)    =      0.111011    -0.000000    -0.042188     0.068823
	  187 R(4,6)          =      3.333172     0.000953     0.003115     3.336287
	  188 R(6,17)         =      3.566165     0.000876     0.003107     3.569272
	  189 R(8,11)         =      3.309655    -0.000264    -0.000626     3.309029
	  190 R(10,22)        =      3.117380    -0.000682    -0.002481     3.114900
	  191 R(11,22)        =      3.016361     0.000064    -0.001460     3.014901
	 ---------------------------------------------------------------------------
	Successfully symmetrized geometry.

  ==> Convergence Check <==

  Measures of convergence in internal coordinates in au.
  Criteria marked as inactive (o), active & met (*), and active & unmet ( ).
  ---------------------------------------------------------------------------------------------
   Step     Total Energy     Delta E     MAX Force     RMS Force      MAX Disp      RMS Disp   
  ---------------------------------------------------------------------------------------------
    Convergence Criteria             o    2.50e-03 *    1.70e-03 *    1.00e-02 *    6.70e-03 *
  ---------------------------------------------------------------------------------------------
     11    -895.95818769   -1.36e-05 o    2.66e-04 *    5.16e-05 *    5.89e-03 *    9.13e-04 *  ~
  ---------------------------------------------------------------------------------------------


  **** Optimization is complete! (in 11 steps) ****

  ==> Optimization Summary <==

  Measures of convergence in internal coordinates in au.
  --------------------------------------------------------------------------------------------------------------- ~
   Step         Total Energy             Delta E       MAX Force       RMS Force        MAX Disp        RMS Disp  ~
  --------------------------------------------------------------------------------------------------------------- ~
      1    -895.943669830709   -895.943669830709      0.01315579      0.00345124      0.07137270      0.01444785  ~
      2    -895.949470052399     -0.005800221690      0.00706227      0.00138944      0.07997096      0.01446773  ~
      3    -895.952287254981     -0.002817202582      0.00439675      0.00092137      0.09216179      0.01439915  ~
      4    -895.954229145799     -0.001941890818      0.00388098      0.00065992      0.10319934      0.01440670  ~
      5    -895.955660823931     -0.001431678132      0.00332503      0.00050085      0.11094148      0.01442438  ~
      6    -895.956726732545     -0.001065908614      0.00262293      0.00037186      0.11677349      0.01444287  ~
      7    -895.957483155035     -0.000756422489      0.00190818      0.00025457      0.12303377      0.01445858  ~
      8    -895.957952158615     -0.000469003580      0.00113410      0.00015145      0.12909604      0.01446566  ~
      9    -895.958158558193     -0.000206399579      0.00040623      0.00009442      0.04514954      0.00509766  ~
     10    -895.958174095310     -0.000015537117      0.00036499      0.00008270      0.01018271      0.00196316  ~
     11    -895.958187691048     -0.000013595738      0.00026554      0.00005158      0.00588713      0.00091325  ~
  --------------------------------------------------------------------------------------------------------------- ~

	Writing optimization data to binary file.
	Final energy is   -895.9581876910484
	Final (previous) structure:
	Cartesian Geometry (in Angstrom)
	    C    -0.4326785370   1.2166428814  -1.0713349743
	    C    -0.6837059636   0.6054355034   0.1151253319
	    N     0.3210298713   0.6727542461   1.1118400957
	    C     1.5586612949  -0.0741828146   1.0371386951
	    H    -0.0721061236   0.6502137728   2.0435347488
	    C     0.7332710627   2.0291672715  -1.4133065383
	    N    -0.5434393846   1.8444993845  -3.2610985420
	    C    -1.2524017072   1.1155972565  -2.3149073991
	    C     0.6270554968   2.3870205947  -2.7074265829
	    C    -1.9617789910  -0.0484168014   0.4978405558
	    C    -3.1639450477   0.6554805751   0.3474438098
	    C    -2.0047437075  -1.3370336696   1.0400753351
	    C    -4.3741513960   0.0856151177   0.7220324458
	    C    -3.2177583366  -1.9135506842   1.4061486627
	    C    -4.4054457476  -1.2038977331   1.2495580174
	    C     1.6221096905  -1.4643907960   0.9354630201
	    C     2.7568606536   0.6299787088   1.1683383134
	    C     2.8434002048  -2.1263053799   0.9313089534
	    C     3.9823272657  -0.0219700221   1.1950103096
	    C     4.0459059757  -1.4185219155   1.0780435133
	    H    -0.8564020246   1.9444252063  -4.2069062224
	    O    -2.3206214339   0.5231846090  -2.5456056260
	    H    -3.1403009941   1.6481289056  -0.0780693755
	    H    -1.0941293524  -1.8971090933   1.1816748410
	    H    -5.2917060877   0.6432665013   0.5951892462
	    H    -3.2332908210  -2.9160432541   1.8116994002
	    H    -5.3471726282  -1.6517232201   1.5364471097
	    H     0.7205821301  -2.0436075404   0.8095143898
	    H     2.7125432841   1.7060850473   1.2649922691
	    H     2.8701364311  -3.2014233815   0.8083535858
	    H     4.8953572380   0.5493497152   1.3067912136
	    N     5.2646725031  -2.0813381556   1.0476329889
	    H     1.5143133801   2.3094398543  -0.7329008787
	    H     1.2777021805   3.0019061555  -3.3040345252
	    H     5.3181286595  -3.0355684231   1.3487607219
	    H     6.1115536425  -1.5497402603   1.1161760542
	Saving final (previous) structure.
			--------------------------
			 OPTKING Finished Execution 
			--------------------------

    Final optimized geometry and variables:
    Molecular point group: c1
    Full point group: C1

    Geometry (in Angstrom), charge = 0, multiplicity = 1:

    C           -0.432678538670     1.216642886192    -1.071334978537
    C           -0.683705966288     0.605435505825     0.115125332369
    N            0.321029872590     0.672754248716     1.111840100082
    C            1.558661300983    -0.074182814910     1.037138699171
    H           -0.072106123923     0.650213775351     2.043534756817
    C            0.733271065546     2.029167279524    -1.413306543862
    N           -0.543439386775     1.844499391715    -3.261098554804
    C           -1.252401712159     1.115597260879    -2.314907408178
    C            0.627055499221     2.387020604093    -2.707426593546
    C           -1.961778998672    -0.048416801551     0.497840557729
    C           -3.163945060150     0.655480577684     0.347443811202
    C           -2.004743715369    -1.337033674903     1.040075339223
    C           -4.374151413195     0.085615117992     0.722032448679
    C           -3.217758349241    -1.913550691753     1.406148668195
    C           -4.405445764937    -1.203897737798     1.249558022298
    C            1.622109696832    -1.464390801785     0.935463023743
    C            2.756860664461     0.629978711292     1.168338318006
    C            2.843400215936    -2.126305388305     0.931308957035
    C            3.982327281347    -0.021970022171     1.195010314314
    C            4.045905991635    -1.418521921113     1.078043517507
    H           -0.856402027973     1.944425213938    -4.206906238926
    O           -2.320621442992     0.523184611042    -2.545605635983
    H           -3.140301006475     1.648128912036    -0.078069375831
    H           -1.094129356734    -1.897109100794     1.181674845642
    H           -5.291706108529     0.643266503855     0.595189248504
    H           -3.233290833741    -2.916043265534     1.811699407280
    H           -5.347172649253    -1.651723226619     1.536447115721
    H            0.720582132897    -2.043607548465     0.809514392959
    H            2.712543294746     1.706085054015     1.264992274053
    H            2.870136442431    -3.201423394075     0.808353589016
    H            4.895357257237     0.549349717331     1.306791218718
    N            5.264672523754    -2.081338163760     1.047632993002
    H            1.514313386020     2.309439863365    -0.732900881620
    H            1.277702185502     3.001906167334    -3.304034538197
    H            5.318128680409    -3.035568434988     1.348760727233
    H            6.111553666479    -1.549740266392     1.116176058585

	Removing binary optimization data file.
	Cleaning optimization helper files.

    Psi4 stopped on: Sunday, 07 November 2021 12:43PM
    Psi4 wall time for execution: 3:27:04.59

*** Psi4 exiting successfully. Buy a developer a beer!
