
    -----------------------------------------------------------------------
          Psi4: An Open-Source Ab Initio Electronic Structure Package
                               Psi4 1.3.2 release

                         Git: Rev {HEAD} ecbda83 


    R. M. Parrish, L. A. Burns, D. G. A. Smith, A. C. Simmonett,
    A. E. DePrince III, E. G. Hohenstein, U. Bozkaya, A. Yu. Sokolov,
    R. Di Remigio, R. M. Richard, J. F. Gonthier, A. M. James,
    H. R. McAlexander, A. Kumar, M. Saitow, X. Wang, B. P. Pritchard,
    P. Verma, H. F. Schaefer III, K. Patkowski, R. A. King, E. F. Valeev,
    F. A. Evangelista, J. M. Turney, T. D. Crawford, and C. D. Sherrill,
    J. Chem. Theory Comput. 13(7) pp 3185--3197 (2017).
    (doi: 10.1021/acs.jctc.7b00174)


                         Additional Contributions by
    P. Kraus, H. Kruse, M. H. Lechner, M. C. Schieber, R. A. Shaw,
    A. Alenaizan, R. Galvelis, Z. L. Glick, S. Lehtola, and J. P. Misiewicz

    -----------------------------------------------------------------------


    Psi4 started on: Sunday, 07 November 2021 12:43PM

    Process ID: 7633
    Host:       node44.bme.utexas.edu
    PSIDATADIR: /home/bdw2292/miniconda3/envs/amoebamdpoltype/share/psi4
    Memory:     500.0 MiB
    Threads:    1
    
  ==> Input File <==

--------------------------------------------------------------------------
molecule { 
0 1
 C   -0.736017    1.538161   -0.280881
 C   -0.765014    0.324898    0.368549
 N    0.300207    0.017463    1.253252
 C    1.640573   -0.312162    0.849729
 H   -0.015862   -0.600816    2.000794
 C   -1.022972    2.848100    0.274110
 N   -0.517062    3.108650   -1.914240
 C   -0.402995    1.737461   -1.733576
 C   -0.877511    3.748602   -0.734857
 C   -1.870682   -0.665145    0.293195
 C   -3.207995   -0.263629    0.534596
 C   -1.604369   -2.028217    0.012533
 C   -4.249272   -1.198795    0.486812
 C   -2.648208   -2.960314   -0.035111
 C   -3.976894   -2.552287    0.201334
 C    1.944393   -0.915947   -0.396671
 C    2.707525   -0.039566    1.738192
 C    3.264311   -1.257175   -0.723583
 C    4.025077   -0.380461    1.404096
 C    4.332851   -1.008108    0.172190
 H   -0.345966    3.540293   -2.811057
 O   -0.096363    0.946106   -2.629525
 H   -3.426697    0.781004    0.761269
 H   -0.578314   -2.353477   -0.164593
 H   -5.273103   -0.872314    0.674684
 H   -2.425089   -4.005457   -0.254333
 H   -4.789196   -3.280313    0.165074
 H    1.161648   -1.110991   -1.133049
 H    2.509553    0.440170    2.699232
 H    3.457642   -1.719250   -1.694194
 H    4.819758   -0.153397    2.118108
 N    5.675499   -1.353799   -0.164732
 H   -1.296319    3.061553    1.297203
 H   -0.999967    4.823288   -0.727655
 H    5.744100   -2.148209   -0.801598
 H    6.268499   -1.527283    0.647338
}
set optking { 
  frozen_dihedral = ("
    16 4 3 2
    1 2 10 11
    1 2 10 12
    3 2 10 11
    1 2 3 4
    10 2 3 4
    18 20 32 35
  ")
}
set {
  geom_maxiter 400
  g_convergence GAU_LOOSE
  dynamic_level 1
}
memory 8.333333333333334GB
set_num_threads(1)
psi4_io.set_default_path("/scratch/bdw2292/Psi4-7_1_Index_0_GrowFragment_0-farH_in17")
for _ in range(1):
  try:
    set opt_coordinates both
    optimize('wb97x-d/6-311G')
    break
  except OptimizationConvergenceError:
    break
  else:
    try:
      set opt_coordinates cartesian
      optimize('wb97x-d/6-311G')
      break
    except OptimizationConvergenceError:
      pass
clean()
--------------------------------------------------------------------------

  Memory set to   7.761 GiB by Python driver.
  Threads set to 1 by Python driver.
gradient() will perform analytic gradient computation.

*** tstart() called on node44.bme.utexas.edu
*** at Sun Nov  7 12:43:05 2021

   => Loading Basis Set <=

    Name: 6-311G
    Role: ORBITAL
    Keyword: BASIS
    atoms 1-2, 4, 6, 8-20     entry C          line    92 file /home/bdw2292/miniconda3/envs/amoebamdpoltype/share/psi4/basis/6-311g.gbs 
    atoms 3, 7, 32            entry N          line   109 file /home/bdw2292/miniconda3/envs/amoebamdpoltype/share/psi4/basis/6-311g.gbs 
    atoms 5, 21, 23-31, 33-36 entry H          line    21 file /home/bdw2292/miniconda3/envs/amoebamdpoltype/share/psi4/basis/6-311g.gbs 
    atoms 22                  entry O          line   126 file /home/bdw2292/miniconda3/envs/amoebamdpoltype/share/psi4/basis/6-311g.gbs 


         ---------------------------------------------------------
                                   SCF
               by Justin Turney, Rob Parrish, Andy Simmonett
                          and Daniel G. A. Smith
                              RKS Reference
                        1 Threads,   7947 MiB Core
         ---------------------------------------------------------

  ==> Geometry <==

    Molecular point group: c1
    Full point group: C1

    Geometry (in Angstrom), charge = 0, multiplicity = 1:

       Center              X                  Y                   Z               Mass       
    ------------   -----------------  -----------------  -----------------  -----------------
         C           -0.874506503850     1.559197198203    -0.202739079125    12.000000000000
         C           -0.903503503850     0.345934198203     0.446690920875    12.000000000000
         N            0.161717496150     0.038499198203     1.331393920875    14.003074004430
         C            1.502083496150    -0.291125801797     0.927870920875    12.000000000000
         H           -0.154351503850    -0.579779801797     2.078935920875     1.007825032230
         C           -1.161461503850     2.869136198203     0.352251920875    12.000000000000
         N           -0.655551503850     3.129686198203    -1.836098079125    14.003074004430
         C           -0.541484503850     1.758497198203    -1.655434079125    12.000000000000
         C           -1.016000503850     3.769638198203    -0.656715079125    12.000000000000
         C           -2.009171503850    -0.644108801797     0.371336920875    12.000000000000
         C           -3.346484503850    -0.242592801797     0.612737920875    12.000000000000
         C           -1.742858503850    -2.007180801797     0.090674920875    12.000000000000
         C           -4.387761503850    -1.177758801797     0.564953920875    12.000000000000
         C           -2.786697503850    -2.939277801797     0.043030920875    12.000000000000
         C           -4.115383503850    -2.531250801797     0.279475920875    12.000000000000
         C            1.805903496150    -0.894910801797    -0.318529079125    12.000000000000
         C            2.569035496150    -0.018529801797     1.816333920875    12.000000000000
         C            3.125821496150    -1.236138801797    -0.645441079125    12.000000000000
         C            3.886587496150    -0.359424801797     1.482237920875    12.000000000000
         C            4.194361496150    -0.987071801797     0.250331920875    12.000000000000
         H           -0.484455503850     3.561329198203    -2.732915079125     1.007825032230
         O           -0.234852503850     0.967142198203    -2.551383079125    15.994914619570
         H           -3.565186503850     0.802040198203     0.839410920875     1.007825032230
         H           -0.716803503850    -2.332440801797    -0.086451079125     1.007825032230
         H           -5.411592503850    -0.851277801797     0.752825920875     1.007825032230
         H           -2.563578503850    -3.984420801797    -0.176191079125     1.007825032230
         H           -4.927685503850    -3.259276801797     0.243215920875     1.007825032230
         H            1.023158496150    -1.089954801797    -1.054907079125     1.007825032230
         H            2.371063496150     0.461206198203     2.777373920875     1.007825032230
         H            3.319152496150    -1.698213801797    -1.616052079125     1.007825032230
         H            4.681268496150    -0.132360801797     2.196249920875     1.007825032230
         N            5.537009496150    -1.332762801797    -0.086590079125    14.003074004430
         H           -1.434808503850     3.082589198203     1.375344920875     1.007825032230
         H           -1.138456503850     4.844324198203    -0.649513079125     1.007825032230
         H            5.605610496150    -2.127172801797    -0.723456079125     1.007825032230
         H            6.130009496150    -1.506246801797     0.725479920875     1.007825032230

  Running in c1 symmetry.

  Rotational constants: A =      0.01362  B =      0.00714  C =      0.00554 [cm^-1]
  Rotational constants: A =    408.17338  B =    214.02367  C =    166.09832 [MHz]
  Nuclear repulsion = 1524.975400651279870

  Charge       = 0
  Multiplicity = 1
  Electrons    = 146
  Nalpha       = 73
  Nbeta        = 73

  ==> Algorithm <==

  SCF Algorithm Type is DF.
  DIIS enabled.
  MOM disabled.
  Fractional occupation disabled.
  Guess Type is SAD.
  Energy threshold   = 1.00e-08
  Density threshold  = 1.00e-08
  Integral threshold = 0.00e+00

  ==> Primary Basis <==

  Basis Set: 6-311G
    Blend: 6-311G
    Number of shells: 192
    Number of basis function: 318
    Number of Cartesian functions: 318
    Spherical Harmonics?: true
    Max angular momentum: 1

  ==> DFT Potential <==

   => Composite Functional: WB97X-D <= 

    wB97X-D Hyb-GGA Exchange-Correlation Functional

    J.-D. Chai and M. Head-Gordon, Phys. Chem. Chem. Phys. 10, 6615 (2008)

    Deriv               =              1
    GGA                 =           TRUE
    Meta                =          FALSE

    Exchange Hybrid     =           TRUE
    MP2 Hybrid          =          FALSE

   => Exchange-Correlation Functionals <=

    1.0000   wB97D range-separated functional

   => Exact (HF) Exchange <=

    0.7780            HF,LR [omega = 0.2000]
    0.2220               HF 

   => Molecular Quadrature <=

    Radial Scheme          =       TREUTLER
    Pruning Scheme         =           FLAT
    Nuclear Scheme         =       TREUTLER

    BS radius alpha        =              1
    Pruning alpha          =              1
    Radial Points          =             75
    Spherical Points       =            302
    Total Points           =         806778
    Total Blocks           =           5730
    Max Points             =            256
    Max Functions          =            223

   => WB97X-D: Empirical Dispersion <=

    Chai and Head-Gordon Dispersion Correction
    Chai, J.-D.; Head-Gordon, M. (2010), J. Chem. Phys., 132: 6615-6620

        s6 =       1.000000

   => Loading Basis Set <=

    Name: (6-311G AUX)
    Role: JKFIT
    Keyword: DF_BASIS_SCF
    atoms 1-2, 4, 6, 8-20     entry C          line   125 file /home/bdw2292/miniconda3/envs/amoebamdpoltype/share/psi4/basis/cc-pvtz-jkfit.gbs 
    atoms 3, 7, 32            entry N          line   177 file /home/bdw2292/miniconda3/envs/amoebamdpoltype/share/psi4/basis/cc-pvtz-jkfit.gbs 
    atoms 5, 21, 23-31, 33-36 entry H          line    51 file /home/bdw2292/miniconda3/envs/amoebamdpoltype/share/psi4/basis/cc-pvtz-jkfit.gbs 
    atoms 22                  entry O          line   229 file /home/bdw2292/miniconda3/envs/amoebamdpoltype/share/psi4/basis/cc-pvtz-jkfit.gbs 

  ==> Pre-Iterations <==

   -------------------------------------------------------
    Irrep   Nso     Nmo     Nalpha   Nbeta   Ndocc  Nsocc
   -------------------------------------------------------
     A        318     318       0       0       0       0
   -------------------------------------------------------
    Total     318     318      73      73      73       0
   -------------------------------------------------------

  ==> Integral Setup <==

  ==> DiskDFJK: Density-Fitted J/K Matrices <==

    J tasked:                  Yes
    K tasked:                  Yes
    wK tasked:                 Yes
    Omega:               2.000E-01
    OpenMP threads:              1
    Integrals threads:           1
    Memory [MiB]:             2596
    Algorithm:                Core
    Integral Cache:           NONE
    Schwarz Cutoff:          1E-12
    Fitting Condition:       1E-10

   => Auxiliary Basis Set <=

  Basis Set: (6-311G AUX)
    Blend: CC-PVTZ-JKFIT
    Number of shells: 675
    Number of basis function: 2109
    Number of Cartesian functions: 2541
    Spherical Harmonics?: true
    Max angular momentum: 4

  Cached 100.0% of DFT collocation blocks in 3.285 [GiB].

  Minimum eigenvalue in the overlap matrix is 2.5885924642E-04.
  Using Symmetric Orthogonalization.

  SCF Guess: Superposition of Atomic Densities via on-the-fly atomic UHF.

  ==> Iterations <==

                           Total Energy        Delta E     RMS |[F,P]|

   @DF-RKS iter SAD:  -895.04368011764325   -8.95044e+02   0.00000e+00 
   @DF-RKS iter   1:  -895.22180870309444   -1.78129e-01   3.68841e-03 DIIS
   @DF-RKS iter   2:  -895.37440118851237   -1.52592e-01   3.52681e-03 DIIS
   @DF-RKS iter   3:  -895.84016697731658   -4.65766e-01   1.03263e-03 DIIS
   @DF-RKS iter   4:  -895.88660080033856   -4.64338e-02   2.06419e-04 DIIS
   @DF-RKS iter   5:  -895.88880045193116   -2.19965e-03   9.04036e-05 DIIS
   @DF-RKS iter   6:  -895.88937834313811   -5.77891e-04   2.87061e-05 DIIS
   @DF-RKS iter   7:  -895.88957861966730   -2.00277e-04   2.22082e-05 DIIS
   @DF-RKS iter   8:  -895.88966882614363   -9.02065e-05   1.00662e-05 DIIS
   @DF-RKS iter   9:  -895.88971532239657   -4.64963e-05   5.71203e-06 DIIS
   @DF-RKS iter  10:  -895.88972002590288   -4.70351e-06   1.72182e-06 DIIS
   @DF-RKS iter  11:  -895.88972063675078   -6.10848e-07   7.27448e-07 DIIS
   @DF-RKS iter  12:  -895.88972074926710   -1.12516e-07   3.25162e-07 DIIS
   @DF-RKS iter  13:  -895.88972078100403   -3.17369e-08   1.24298e-07 DIIS
   @DF-RKS iter  14:  -895.88972078429072   -3.28669e-09   8.32141e-08 DIIS
   @DF-RKS iter  15:  -895.88972078574272   -1.45201e-09   2.07140e-08 DIIS
   @DF-RKS iter  16:  -895.88972078587062   -1.27898e-10   1.40857e-08 DIIS
   @DF-RKS iter  17:  -895.88972078590086   -3.02407e-11   4.72737e-09 DIIS
  Energy and wave function converged.


  ==> Post-Iterations <==

    Orbital Energies [Eh]
    ---------------------

    Doubly Occupied:                                                      

       1A    -19.185584     2A    -14.476998     3A    -14.449968  
       4A    -14.443677     5A    -10.370252     6A    -10.364727  
       7A    -10.345228     8A    -10.339726     9A    -10.320722  
      10A    -10.313956    11A    -10.312860    12A    -10.312306  
      13A    -10.309138    14A    -10.309039    15A    -10.306874  
      16A    -10.301571    17A    -10.299987    18A    -10.296827  
      19A    -10.294843    20A    -10.277900    21A    -10.273352  
      22A     -1.125692    23A     -1.061374    24A     -1.041282  
      25A     -1.024259    26A     -0.976276    27A     -0.944578  
      28A     -0.898636    29A     -0.867599    30A     -0.863669  
      31A     -0.854090    32A     -0.832415    33A     -0.806467  
      34A     -0.758375    35A     -0.721330    36A     -0.716317  
      37A     -0.708271    38A     -0.700925    39A     -0.672232  
      40A     -0.647263    41A     -0.631360    42A     -0.623454  
      43A     -0.601190    44A     -0.595501    45A     -0.585211  
      46A     -0.573724    47A     -0.562465    48A     -0.541322  
      49A     -0.534916    50A     -0.533422    51A     -0.525258  
      52A     -0.520843    53A     -0.511205    54A     -0.503744  
      55A     -0.500751    56A     -0.489113    57A     -0.481929  
      58A     -0.470717    59A     -0.469192    60A     -0.465351  
      61A     -0.452231    62A     -0.441838    63A     -0.435918  
      64A     -0.411021    65A     -0.390809    66A     -0.369551  
      67A     -0.347203    68A     -0.344580    69A     -0.334660  
      70A     -0.321118    71A     -0.312166    72A     -0.279994  
      73A     -0.226686  

    Virtual:                                                              

      74A     -0.034816    75A      0.049013    76A      0.054580  
      77A      0.059508    78A      0.076327    79A      0.115429  
      80A      0.119043    81A      0.132281    82A      0.135573  
      83A      0.144295    84A      0.147406    85A      0.149229  
      86A      0.157261    87A      0.168598    88A      0.175422  
      89A      0.176711    90A      0.188385    91A      0.191159  
      92A      0.202469    93A      0.213542    94A      0.217086  
      95A      0.218888    96A      0.233373    97A      0.251474  
      98A      0.267509    99A      0.283206   100A      0.301952  
     101A      0.313408   102A      0.323829   103A      0.328588  
     104A      0.337179   105A      0.343131   106A      0.346005  
     107A      0.350501   108A      0.364352   109A      0.369316  
     110A      0.379498   111A      0.382032   112A      0.398719  
     113A      0.410997   114A      0.418929   115A      0.428219  
     116A      0.433615   117A      0.443575   118A      0.451013  
     119A      0.452555   120A      0.457101   121A      0.468690  
     122A      0.472133   123A      0.479662   124A      0.480673  
     125A      0.484125   126A      0.489211   127A      0.493900  
     128A      0.500877   129A      0.504763   130A      0.507665  
     131A      0.513231   132A      0.516634   133A      0.519953  
     134A      0.527326   135A      0.534007   136A      0.539756  
     137A      0.542789   138A      0.550774   139A      0.555520  
     140A      0.563388   141A      0.569520   142A      0.580712  
     143A      0.581854   144A      0.591883   145A      0.596108  
     146A      0.601422   147A      0.611029   148A      0.613412  
     149A      0.619800   150A      0.631950   151A      0.639463  
     152A      0.650965   153A      0.654281   154A      0.665415  
     155A      0.672311   156A      0.686695   157A      0.688419  
     158A      0.692310   159A      0.701533   160A      0.703455  
     161A      0.709603   162A      0.716347   163A      0.718346  
     164A      0.725352   165A      0.731344   166A      0.733926  
     167A      0.740472   168A      0.745376   169A      0.756148  
     170A      0.762901   171A      0.771813   172A      0.775927  
     173A      0.785853   174A      0.791325   175A      0.809846  
     176A      0.817812   177A      0.834361   178A      0.841831  
     179A      0.845129   180A      0.850686   181A      0.856089  
     182A      0.860628   183A      0.875226   184A      0.879913  
     185A      0.893880   186A      0.898764   187A      0.908548  
     188A      0.917456   189A      0.927082   190A      0.935765  
     191A      0.941171   192A      0.950243   193A      0.961203  
     194A      0.969999   195A      0.984648   196A      1.000885  
     197A      1.016722   198A      1.021736   199A      1.031773  
     200A      1.063789   201A      1.070024   202A      1.074020  
     203A      1.083345   204A      1.100149   205A      1.111908  
     206A      1.132443   207A      1.142296   208A      1.159871  
     209A      1.164613   210A      1.193041   211A      1.242082  
     212A      1.291345   213A      1.310970   214A      1.347117  
     215A      1.367269   216A      1.436092   217A      1.481196  
     218A      1.614578   219A      1.864963   220A      2.265072  
     221A      2.292006   222A      2.333869   223A      2.340400  
     224A      2.350523   225A      2.361156   226A      2.370066  
     227A      2.391799   228A      2.400158   229A      2.418673  
     230A      2.447635   231A      2.472709   232A      2.476456  
     233A      2.580403   234A      2.614883   235A      2.620597  
     236A      2.624046   237A      2.642928   238A      2.658621  
     239A      2.670364   240A      2.683004   241A      2.687772  
     242A      2.719121   243A      2.765940   244A      2.779032  
     245A      2.788974   246A      2.799121   247A      2.809327  
     248A      2.816099   249A      2.837033   250A      2.841314  
     251A      2.844324   252A      2.853602   253A      2.857082  
     254A      2.894171   255A      2.899811   256A      2.946482  
     257A      2.960974   258A      2.967290   259A      2.984429  
     260A      3.019434   261A      3.021408   262A      3.039002  
     263A      3.071529   264A      3.106879   265A      3.140652  
     266A      3.150348   267A      3.165914   268A      3.191558  
     269A      3.200379   270A      3.211263   271A      3.226593  
     272A      3.244249   273A      3.253592   274A      3.285597  
     275A      3.292035   276A      3.308837   277A      3.326154  
     278A      3.327934   279A      3.337354   280A      3.358200  
     281A      3.373370   282A      3.389444   283A      3.456726  
     284A      3.496354   285A      3.532755   286A      3.827955  
     287A      3.836796   288A      3.949907   289A      4.070689  
     290A      4.090560   291A      4.124971   292A      4.159356  
     293A      4.245552   294A      4.260216   295A      5.029838  
     296A      5.125844   297A      5.138375   298A     23.226940  
     299A     23.240287   300A     23.366730   301A     23.462605  
     302A     23.476986   303A     23.479658   304A     23.496333  
     305A     23.540043   306A     23.617963   307A     23.710269  
     308A     23.718921   309A     23.735198   310A     23.753017  
     311A     23.801249   312A     23.879657   313A     23.977977  
     314A     23.982025   315A     35.527460   316A     35.531264  
     317A     35.588279   318A     50.103557  

    Final Occupation by Irrep:
              A 
    DOCC [    73 ]

  @DF-RKS Final Energy:  -895.88972078590086

   => Energetics <=

    Nuclear Repulsion Energy =           1524.9754006512798696
    One-Electron Energy =               -4243.1790019901127380
    Two-Electron Energy =                1909.9155587303785069
    DFT Exchange-Correlation Energy =     -87.5762685966093670
    Empirical Dispersion Energy =          -0.0254095808369997
    VV10 Nonlocal Energy =                  0.0000000000000000
    Total Energy =                       -895.8897207859007494

Computation Completed


Properties will be evaluated at   0.000000,   0.000000,   0.000000 [a0]

Properties computed using the SCF density matrix

  Nuclear Dipole Moment: [e a0]
     X:     2.5467      Y:    -4.5096      Z:     3.6919

  Electronic Dipole Moment: [e a0]
     X:    -2.5248      Y:     3.5030      Z:    -2.1428

  Dipole Moment: [e a0]
     X:     0.0218      Y:    -1.0066      Z:     1.5490     Total:     1.8475

  Dipole Moment: [D]
     X:     0.0555      Y:    -2.5585      Z:     3.9373     Total:     4.6959


*** tstop() called on node44.bme.utexas.edu at Sun Nov  7 12:52:51 2021
Module time:
	user time   =     571.08 seconds =       9.52 minutes
	system time =      14.45 seconds =       0.24 minutes
	total time  =        586 seconds =       9.77 minutes
Total time:
	user time   =     571.08 seconds =       9.52 minutes
	system time =      14.45 seconds =       0.24 minutes
	total time  =        586 seconds =       9.77 minutes

*** tstart() called on node44.bme.utexas.edu
*** at Sun Nov  7 12:52:51 2021


         ------------------------------------------------------------
                                   SCF GRAD                          
                          Rob Parrish, Justin Turney,                
                       Andy Simmonett, and Alex Sokolov              
         ------------------------------------------------------------

  ==> Geometry <==

    Molecular point group: c1
    Full point group: C1

    Geometry (in Angstrom), charge = 0, multiplicity = 1:

       Center              X                  Y                   Z               Mass       
    ------------   -----------------  -----------------  -----------------  -----------------
         C           -0.874506503850     1.559197198203    -0.202739079125    12.000000000000
         C           -0.903503503850     0.345934198203     0.446690920875    12.000000000000
         N            0.161717496150     0.038499198203     1.331393920875    14.003074004430
         C            1.502083496150    -0.291125801797     0.927870920875    12.000000000000
         H           -0.154351503850    -0.579779801797     2.078935920875     1.007825032230
         C           -1.161461503850     2.869136198203     0.352251920875    12.000000000000
         N           -0.655551503850     3.129686198203    -1.836098079125    14.003074004430
         C           -0.541484503850     1.758497198203    -1.655434079125    12.000000000000
         C           -1.016000503850     3.769638198203    -0.656715079125    12.000000000000
         C           -2.009171503850    -0.644108801797     0.371336920875    12.000000000000
         C           -3.346484503850    -0.242592801797     0.612737920875    12.000000000000
         C           -1.742858503850    -2.007180801797     0.090674920875    12.000000000000
         C           -4.387761503850    -1.177758801797     0.564953920875    12.000000000000
         C           -2.786697503850    -2.939277801797     0.043030920875    12.000000000000
         C           -4.115383503850    -2.531250801797     0.279475920875    12.000000000000
         C            1.805903496150    -0.894910801797    -0.318529079125    12.000000000000
         C            2.569035496150    -0.018529801797     1.816333920875    12.000000000000
         C            3.125821496150    -1.236138801797    -0.645441079125    12.000000000000
         C            3.886587496150    -0.359424801797     1.482237920875    12.000000000000
         C            4.194361496150    -0.987071801797     0.250331920875    12.000000000000
         H           -0.484455503850     3.561329198203    -2.732915079125     1.007825032230
         O           -0.234852503850     0.967142198203    -2.551383079125    15.994914619570
         H           -3.565186503850     0.802040198203     0.839410920875     1.007825032230
         H           -0.716803503850    -2.332440801797    -0.086451079125     1.007825032230
         H           -5.411592503850    -0.851277801797     0.752825920875     1.007825032230
         H           -2.563578503850    -3.984420801797    -0.176191079125     1.007825032230
         H           -4.927685503850    -3.259276801797     0.243215920875     1.007825032230
         H            1.023158496150    -1.089954801797    -1.054907079125     1.007825032230
         H            2.371063496150     0.461206198203     2.777373920875     1.007825032230
         H            3.319152496150    -1.698213801797    -1.616052079125     1.007825032230
         H            4.681268496150    -0.132360801797     2.196249920875     1.007825032230
         N            5.537009496150    -1.332762801797    -0.086590079125    14.003074004430
         H           -1.434808503850     3.082589198203     1.375344920875     1.007825032230
         H           -1.138456503850     4.844324198203    -0.649513079125     1.007825032230
         H            5.605610496150    -2.127172801797    -0.723456079125     1.007825032230
         H            6.130009496150    -1.506246801797     0.725479920875     1.007825032230

  Nuclear repulsion = 1524.975400651279870

  ==> Basis Set <==

  Basis Set: 6-311G
    Blend: 6-311G
    Number of shells: 192
    Number of basis function: 318
    Number of Cartesian functions: 318
    Spherical Harmonics?: true
    Max angular momentum: 1

  ==> DFJKGrad: Density-Fitted SCF Gradients <==

    Gradient:                    1
    J tasked:                  Yes
    K tasked:                  Yes
    wK tasked:                 Yes
    Omega:               2.000E-01
    OpenMP threads:              1
    Integrals threads:           1
    Memory [MiB]:             5960
    Schwarz Cutoff:          0E+00
    Fitting Condition:       1E-10

   => Auxiliary Basis Set <=

  Basis Set: (6-311G AUX)
    Blend: CC-PVTZ-JKFIT
    Number of shells: 675
    Number of basis function: 2109
    Number of Cartesian functions: 2541
    Spherical Harmonics?: true
    Max angular momentum: 4

  ==> DFT Potential <==

   => Composite Functional: WB97X-D <= 

    wB97X-D Hyb-GGA Exchange-Correlation Functional

    J.-D. Chai and M. Head-Gordon, Phys. Chem. Chem. Phys. 10, 6615 (2008)

    Deriv               =              1
    GGA                 =           TRUE
    Meta                =          FALSE

    Exchange Hybrid     =           TRUE
    MP2 Hybrid          =          FALSE

   => Exchange-Correlation Functionals <=

    1.0000   wB97D range-separated functional

   => Exact (HF) Exchange <=

    0.7780            HF,LR [omega = 0.2000]
    0.2220               HF 

   => Molecular Quadrature <=

    Radial Scheme          =       TREUTLER
    Pruning Scheme         =           FLAT
    Nuclear Scheme         =       TREUTLER

    BS radius alpha        =              1
    Pruning alpha          =              1
    Radial Points          =             75
    Spherical Points       =            302
    Total Points           =         806778
    Total Blocks           =           5730
    Max Points             =            256
    Max Functions          =            223


  -Total Gradient:
     Atom            X                  Y                   Z
    ------   -----------------  -----------------  -----------------
       1        0.001051819402    -0.025087522907     0.031987144028
       2       -0.020355966586     0.031570961394    -0.022444866798
       3        0.037741091133     0.018644309174    -0.005605621301
       4       -0.020552750848    -0.013164703292     0.007761682815
       5       -0.004388971189    -0.003626048927     0.000191416235
       6       -0.031301307681     0.000825759460    -0.000736665325
       7       -0.009238512180    -0.004504601922     0.002735666188
       8        0.043867372948    -0.009694701014    -0.023671016712
       9        0.002551529357    -0.014224452073    -0.000385496264
      10       -0.003474031799     0.006997399588     0.008781827241
      11       -0.003757032644     0.001041881668     0.005951657836
      12        0.004935104038    -0.000605768320    -0.006489674232
      13       -0.003208857937     0.005861437367     0.000304578050
      14        0.003301625090    -0.002826802779    -0.001375127966
      15       -0.006350443844    -0.006600875178    -0.000224133410
      16        0.000205206088    -0.004042002332    -0.006226971543
      17        0.001826689508     0.003776758561     0.007890584495
      18       -0.001479684701    -0.002851538404    -0.004852405976
      19        0.002269106540     0.002709883212     0.001774199704
      20        0.002962086535    -0.001348733978     0.000270449955
      21        0.001660652002     0.002188750983    -0.007530070707
      22       -0.012949632531     0.020818485236     0.011092906759
      23       -0.003114453157     0.005478200660     0.002565081040
      24        0.005855514815    -0.002592194035    -0.000520292706
      25       -0.006006937121     0.002548168813     0.001049137020
      26        0.002171070711    -0.006130239813    -0.000690365194
      27       -0.005126016127    -0.004660961679    -0.000153864073
      28       -0.003042309242    -0.004219307581    -0.005503080783
      29        0.000413702256     0.002031365963     0.007336500695
      30       -0.000023129036    -0.003090914325    -0.006053829883
      31        0.003359590406     0.001797130494     0.005194374857
      32        0.013028696536     0.016573894959    -0.011861892792
      33       -0.001301816129     0.001147945848     0.002957754364
      34        0.004735440866     0.004470319560    -0.000789835329
      35        0.000535647551    -0.011383027985    -0.000108191880
      36        0.003245995045    -0.007817505972     0.007167588933


*** tstop() called on node44.bme.utexas.edu at Sun Nov  7 12:56:59 2021
Module time:
	user time   =     243.06 seconds =       4.05 minutes
	system time =       4.90 seconds =       0.08 minutes
	total time  =        248 seconds =       4.13 minutes
Total time:
	user time   =     814.14 seconds =      13.57 minutes
	system time =      19.35 seconds =       0.32 minutes
	total time  =        834 seconds =      13.90 minutes

			-----------------------------------------
			 OPTKING 2.0: for geometry optimizations 
			  - R.A. King,  Bethel University        
			-----------------------------------------
	At level 1: Red. Int., RFO, no backsteps, dynamic trust

	Internal coordinates to be generated automatically.
	Detected frag 1 with atoms:  1 2 3 4 5 6 7 8 9 10 11 12 13 14 15 16 17 18 19 20
	 21 22 23 24 25 26 27 28 29 30 31 32 33 34 35 36
	---Fragment 1 Bond Connectivity---
	 1 : 2 6 8
	 2 : 1 3 10
	 3 : 2 4 5
	 4 : 3 16 17
	 5 : 3
	 6 : 1 9 33
	 7 : 8 9 21
	 8 : 1 7 22
	 9 : 6 7 34
	 10 : 2 11 12
	 11 : 10 13 23
	 12 : 10 14 24
	 13 : 11 15 25
	 14 : 12 15 26
	 15 : 13 14 27
	 16 : 4 18 28
	 17 : 4 19 29
	 18 : 16 20 30
	 19 : 17 20 31
	 20 : 18 19 32
	 21 : 7
	 22 : 8
	 23 : 11
	 24 : 12
	 25 : 13
	 26 : 14
	 27 : 15
	 28 : 16
	 29 : 17
	 30 : 18
	 31 : 19
	 32 : 20 35 36
	 33 : 6
	 34 : 9
	 35 : 32
	 36 : 32

	Assuming in current code that numbering for constraints corresponds to unified fragment.
	Frozen dihedral atom list: 
	    16     4     3     2
	     1     2    10    11
	     1     2    10    12
	     3     2    10    11
	     1     2     3     4
	    10     2     3     4
	    18    20    32    35
	---Fragment 1 Geometry and Gradient---
	 C          -1.6525777872        2.9464556802       -0.3831213345
	 C          -1.7073741757        0.6537208920        0.8441235032
	 N           0.3056017774        0.0727529407        2.5159698756
	 C           2.8385264253       -0.5501480335        1.7534219202
	 H          -0.2916820693       -1.0956250385        3.9286195228
	 C          -2.1948441475        5.4218816312        0.6656596576
	 N          -1.2388128034        5.9142497732       -3.4697225090
	 C          -1.0232574135        3.3230780970       -3.1283170283
	 C          -1.9199626956        7.1235837867       -1.2410116420
	 C          -3.7967838814       -1.2171892304        0.7017250807
	 C          -6.3239391954       -0.4584339554        1.1579068571
	 C          -3.2935252477       -3.7930219997        0.1713507669
	 C          -8.2916675461       -2.2256415772        1.0676081840
	 C          -5.2660950768       -5.5544300520        0.0813166554
	 C          -7.7769477235       -4.7833707702        0.5281329491
	 C           3.4126630167       -1.6911363221       -0.6019327225
	 C           4.8547734943       -0.0350162506        3.4323736628
	 C           5.9069465448       -2.3359637884       -1.2197068697
	 C           7.3445859304       -0.6792144381        2.8010237232
	 C           7.9261944989       -1.8652953716        0.4730587709
	 H          -0.9154882222        6.7299368272       -5.1644610237
	 O          -0.4438069122        1.8276338790       -4.8214152607
	 H          -6.7372260785        1.5156363162        1.5862567472
	 H          -1.3545623080       -4.4076743192       -0.1633688628
	 H         -10.2264277349       -1.6086819021        1.4226348106
	 H          -4.8444612734       -7.5294640840       -0.3329528853
	 H          -9.3119760347       -6.1591405225        0.4596114798
	 H           1.9334893407       -2.0597160645       -1.9934854674
	 H           4.4806606338        0.8715534020        5.2484760584
	 H           6.2722891864       -3.2091589879       -3.0538958340
	 H           8.8463153775       -0.2501256651        4.1503108535
	 N          10.4634315018       -2.5185566856       -0.1636315347
	 H          -2.7113951148        5.8252493419        2.5990252285
	 H          -2.1513709980        9.1544459975       -1.2274018344
	 H          10.5930686037       -4.0197740169       -1.3671338533
	 H          11.5840390942       -2.8463939327        1.3709583600
	             0.0010518194       -0.0250875229        0.0319871440
	            -0.0203559666        0.0315709614       -0.0224448668
	             0.0377410911        0.0186443092       -0.0056056213
	            -0.0205527508       -0.0131647033        0.0077616828
	            -0.0043889712       -0.0036260489        0.0001914162
	            -0.0313013077        0.0008257595       -0.0007366653
	            -0.0092385122       -0.0045046019        0.0027356662
	             0.0438673729       -0.0096947010       -0.0236710167
	             0.0025515294       -0.0142244521       -0.0003854963
	            -0.0034740318        0.0069973996        0.0087818272
	            -0.0037570326        0.0010418817        0.0059516578
	             0.0049351040       -0.0006057683       -0.0064896742
	            -0.0032088579        0.0058614374        0.0003045780
	             0.0033016251       -0.0028268028       -0.0013751280
	            -0.0063504438       -0.0066008752       -0.0002241334
	             0.0002052061       -0.0040420023       -0.0062269715
	             0.0018266895        0.0037767586        0.0078905845
	            -0.0014796847       -0.0028515384       -0.0048524060
	             0.0022691065        0.0027098832        0.0017741997
	             0.0029620865       -0.0013487340        0.0002704500
	             0.0016606520        0.0021887510       -0.0075300707
	            -0.0129496325        0.0208184852        0.0110929068
	            -0.0031144532        0.0054782007        0.0025650810
	             0.0058555148       -0.0025921940       -0.0005202927
	            -0.0060069371        0.0025481688        0.0010491370
	             0.0021710707       -0.0061302398       -0.0006903652
	            -0.0051260161       -0.0046609617       -0.0001538641
	            -0.0030423092       -0.0042193076       -0.0055030808
	             0.0004137023        0.0020313660        0.0073365007
	            -0.0000231290       -0.0030909143       -0.0060538299
	             0.0033595904        0.0017971305        0.0051943749
	             0.0130286965        0.0165738950       -0.0118618928
	            -0.0013018161        0.0011479458        0.0029577544
	             0.0047354409        0.0044703196       -0.0007898353
	             0.0005356476       -0.0113830280       -0.0001081919
	             0.0032459950       -0.0078175060        0.0071675889

	Previous optimization step data not found.  Starting new optimization.

	---Fragment 1 Intrafragment Coordinates---
	 - Coordinate -           - BOHR/RAD -       - ANG/DEG -
	 R(1,2)           =         2.601108	       1.376447
	 R(1,6)           =         2.742577	       1.451309
	 R(1,8)           =         2.841476	       1.503645
	 R(2,3)           =         2.680423	       1.418419
	 R(2,10)          =         2.808241	       1.486057
	 R(3,4)           =         2.717571	       1.438077
	 R(3,5)           =         1.928065	       1.020288
	 R(4,16)          =         2.679400	       1.417877
	 R(4,17)          =         2.673853	       1.414942
	 R(6,9)           =         2.570359	       1.360175
	 R(6,33)          =         2.041429	       1.080278
	 R(7,8)           =         2.622440	       1.387736
	 R(7,9)           =         2.625568	       1.389391
	 R(7,21)          =         1.908408	       1.009886
	 R(8,22)          =         2.332102	       1.234095
	 R(9,34)          =         2.044049	       1.081664
	 R(10,11)         =         2.677746	       1.417002
	 R(10,12)         =         2.677589	       1.416919
	 R(11,13)         =         2.646343	       1.400384
	 R(11,23)         =         2.061854	       1.091086
	 R(12,14)         =         2.646072	       1.400241
	 R(12,24)         =         2.061410	       1.090851
	 R(13,15)         =         2.664198	       1.409833
	 R(13,25)         =         2.061548	       1.090924
	 R(14,15)         =         2.664312	       1.409893
	 R(14,26)         =         2.061590	       1.090946
	 R(15,27)         =         2.062462	       1.091408
	 R(16,18)         =         2.649320	       1.401960
	 R(16,28)         =         2.064031	       1.092238
	 R(17,19)         =         2.648162	       1.401347
	 R(17,29)         =         2.063991	       1.092217
	 R(18,20)         =         2.676630	       1.416411
	 R(18,30)         =         2.064024	       1.092234
	 R(19,20)         =         2.676654	       1.416424
	 R(19,31)         =         2.063949	       1.092195
	 R(20,32)         =         2.696237	       1.426787
	 R(32,35)         =         1.928439	       1.020486
	 R(32,36)         =         1.928265	       1.020394
	 B(1,2,3)         =         2.059534	     118.002584
	 B(1,2,10)        =         2.188282	     125.379348
	 B(1,6,9)         =         1.867896	     107.022531
	 B(1,6,33)        =         2.202522	     126.195221
	 B(1,8,7)         =         1.811653	     103.800067
	 B(1,8,22)        =         2.306938	     132.177790
	 B(2,1,6)         =         2.228112	     127.661385
	 B(2,1,8)         =         2.186246	     125.262661
	 B(2,3,4)         =         2.182948	     125.073691
	 B(2,3,5)         =         1.934446	     110.835610
	 B(2,10,11)       =         2.099911	     120.316026
	 B(2,10,12)       =         2.107267	     120.737499
	 B(3,2,10)        =         2.033072	     116.486466
	 B(3,4,16)        =         2.145981	     122.955647
	 B(3,4,17)        =         2.074274	     118.847126
	 B(4,3,5)         =         1.934165	     110.819500
	 B(4,16,18)       =         2.106407	     120.688206
	 B(4,16,28)       =         2.111964	     121.006640
	 B(4,17,19)       =         2.108778	     120.824053
	 B(4,17,29)       =         2.094906	     120.029293
	 B(6,1,8)         =         1.868794	     107.074008
	 B(6,9,7)         =         1.931010	     110.638747
	 B(6,9,34)        =         2.266247	     129.846367
	 B(7,8,22)        =         2.164586	     124.021622
	 B(7,9,34)        =         2.085928	     119.514885
	 B(8,7,9)         =         1.945421	     111.464390
	 B(8,7,21)        =         2.122343	     121.601323
	 B(9,6,33)        =         2.212761	     126.781881
	 B(9,7,21)        =         2.215416	     126.934004
	 B(10,11,13)      =         2.102164	     120.445102
	 B(10,11,23)      =         2.089617	     119.726211
	 B(10,12,14)      =         2.102495	     120.464114
	 B(10,12,24)      =         2.089541	     119.721875
	 B(11,10,12)      =         2.075690	     118.928289
	 B(11,13,15)      =         2.099436	     120.288817
	 B(11,13,25)      =         2.085306	     119.479252
	 B(12,14,15)      =         2.099229	     120.276973
	 B(12,14,26)      =         2.085291	     119.478398
	 B(13,11,23)      =         2.091403	     119.828556
	 B(13,15,14)      =         2.087328	     119.595064
	 B(13,15,27)      =         2.098245	     120.220578
	 B(14,12,24)      =         2.091145	     119.813755
	 B(14,15,27)      =         2.097612	     120.184288
	 B(15,13,25)      =         2.098440	     120.231762
	 B(15,14,26)      =         2.098662	     120.244470
	 B(16,4,17)       =         2.062849	     118.192551
	 B(16,18,20)      =         2.117628	     121.331122
	 B(16,18,30)      =         2.067844	     118.478717
	 B(17,19,20)      =         2.116996	     121.294948
	 B(17,19,31)      =         2.068786	     118.532711
	 B(18,16,28)      =         2.064661	     118.296382
	 B(18,20,19)      =         2.053341	     117.647788
	 B(18,20,32)      =         2.115268	     121.195927
	 B(19,17,29)      =         2.079499	     119.146500
	 B(19,20,32)      =         2.114391	     121.145678
	 B(20,18,30)      =         2.097702	     120.189468
	 B(20,19,31)      =         2.097401	     120.172241
	 B(20,32,35)      =         1.981485	     113.530740
	 B(20,32,36)      =         1.982466	     113.586934
	 B(35,32,36)      =         1.902072	     108.980718
	*D(1,2,3,4)       =        -1.261743	     -72.292571
	 D(1,2,3,5)       =         2.629562	     150.662785
	*D(1,2,10,11)     =        -0.892283	     -51.124077
	*D(1,2,10,12)     =         2.276674	     130.443792
	 D(1,6,9,7)       =         0.002674	       0.153183
	 D(1,6,9,34)      =        -3.138672	    -179.832666
	 D(1,8,7,9)       =         0.001870	       0.107130
	 D(1,8,7,21)      =         3.140309	     179.926462
	 D(2,1,6,9)       =        -3.134502	    -179.593735
	 D(2,1,6,33)      =         0.010734	       0.615015
	 D(2,1,8,7)       =         3.133058	     179.510985
	 D(2,1,8,22)      =        -0.003955	      -0.226588
	*D(2,3,4,16)      =        -0.484570	     -27.763832
	 D(2,3,4,17)      =         2.671012	     153.037739
	 D(2,10,11,13)    =        -3.122451	    -178.903262
	 D(2,10,11,23)    =         0.016838	       0.964741
	 D(2,10,12,14)    =         3.122935	     178.930973
	 D(2,10,12,24)    =        -0.015439	      -0.884577
	 D(3,2,1,6)       =        -1.308459	     -74.969197
	 D(3,2,1,8)       =         1.843155	     105.605010
	*D(3,2,10,11)     =         2.174763	     124.604752
	 D(3,2,10,12)     =        -0.939465	     -53.827379
	 D(3,4,16,18)     =        -3.104881	    -177.896579
	 D(3,4,16,28)     =         0.055837	       3.199198
	 D(3,4,17,19)     =         3.107910	     178.070132
	 D(3,4,17,29)     =        -0.031162	      -1.785427
	*D(4,3,2,10)      =         1.948679	     111.651094
	 D(4,16,18,20)    =        -0.003646	      -0.208900
	 D(4,16,18,30)    =        -3.139961	    -179.906500
	 D(4,17,19,20)    =        -0.001335	      -0.076479
	 D(4,17,19,31)    =        -3.140925	    -179.961770
	 D(5,3,2,10)      =        -0.443201	     -25.393550
	 D(5,3,4,16)      =         1.907410	     109.286517
	 D(5,3,4,17)      =        -1.220193	     -69.911911
	 D(6,1,2,10)      =         1.757563	     100.700923
	 D(6,1,8,7)       =        -0.000236	      -0.013497
	 D(6,1,8,22)      =        -3.137248	    -179.751070
	 D(6,9,7,8)       =        -0.002982	      -0.170869
	 D(6,9,7,21)      =        -3.141215	    -179.978360
	 D(7,9,6,33)      =         3.140595	     179.942846
	 D(8,1,2,10)      =        -1.374008	     -78.724870
	 D(8,1,6,9)       =        -0.001470	      -0.084197
	 D(8,1,6,33)      =        -3.139419	    -179.875447
	 D(8,7,9,34)      =         3.138393	     179.816646
	 D(9,7,8,22)      =         3.139367	     179.872491
	 D(10,11,13,15)   =         0.003168	       0.181538
	 D(10,11,13,25)   =        -3.141030	    -179.967780
	 D(10,12,14,15)   =        -0.004368	      -0.250291
	 D(10,12,14,26)   =         3.139745	     179.894125
	 D(11,10,12,14)   =         0.008332	       0.477392
	 D(11,10,12,24)   =        -3.130041	    -179.338159
	 D(11,13,15,14)   =         0.000920	       0.052733
	 D(11,13,15,27)   =         3.140830	     179.956297
	 D(12,10,11,13)   =        -0.007732	      -0.442986
	 D(12,10,11,23)   =         3.131557	     179.425018
	 D(12,14,15,13)   =        -0.000321	      -0.018418
	 D(12,14,15,27)   =        -3.140232	    -179.922017
	 D(13,15,14,26)   =         3.138731	     179.836053
	 D(14,15,13,25)   =        -3.138046	    -179.796819
	 D(15,13,11,23)   =        -3.136118	    -179.686331
	 D(15,14,12,24)   =         3.134002	     179.565090
	 D(16,4,17,19)    =        -0.020364	      -1.166745
	 D(16,4,17,29)    =         3.123750	     178.977696
	 D(16,18,20,19)   =        -0.017937	      -1.027708
	 D(16,18,20,32)   =        -3.139080	    -179.856031
	 D(17,4,16,18)    =         0.022808	       1.306811
	 D(17,4,16,28)    =        -3.099660	    -177.597412
	 D(17,19,20,18)   =         0.020426	       1.170341
	 D(17,19,20,32)   =         3.141593	     180.000000
	 D(18,20,19,31)   =        -3.123201	    -178.946229
	*D(18,20,32,35)   =        -0.501623	     -28.740881
	 D(18,20,32,36)   =        -2.687732	    -153.995694
	 D(19,20,18,30)   =         3.118289	     178.664775
	 D(19,20,32,35)   =         2.661135	     152.471820
	 D(19,20,32,36)   =         0.475026	      27.217007
	 D(20,18,16,28)   =         3.119330	     178.724447
	 D(20,19,17,29)   =         3.137759	     179.780338
	 D(21,7,8,22)     =        -0.005379	      -0.308177
	 D(21,7,9,34)     =         0.000160	       0.009155
	 D(23,11,13,25)   =         0.002868	       0.164351
	 D(24,12,14,26)   =        -0.005070	      -0.290494
	 D(25,13,15,27)   =         0.001863	       0.106745
	 D(26,14,15,27)   =        -0.001179	      -0.067546
	 D(28,16,18,30)   =        -0.016985	      -0.973153
	 D(29,17,19,31)   =        -0.001832	      -0.104953
	 D(30,18,20,32)   =        -0.002854	      -0.163548
	 D(31,19,20,32)   =        -0.002047	      -0.117285
	 D(33,6,9,34)     =        -0.000751	      -0.043003
	 R(1,16)          =         6.871085	       3.636021
	 R(4,12)          =         7.114860	       3.765022
	 R(8,16)          =         7.155582	       3.786571
	 R(12,16)         =         7.070279	       3.741431

	Current energy   :      -895.8897207859

	Generating empirical Hessian (Schlegel '84) for each fragment.
	Taking RFO optimization step.
	Going to follow RFO solution 1.
	Using RFO vector 1.

	Determining step-restricting scale parameter for RS-RFO.
	Maximum step size allowed    0.50000

	 Iter      |step|        alpha        rfo_root  
	------------------------------------------------
	    0     0.71208       1.00000           1
	    1     0.56458       1.68897           1
	    2     0.50950       2.11639           1
	    3     0.50026       2.20261           1
	    4     0.50000       2.20515           1
	------------------------------------------------
	Norm of target step-size    0.50000
	Projected energy change by RFO approximation:        -0.0284236129

	Back-transformation to cartesian coordinates...
	Successfully converged to displaced geometry.

	Back-transformation to cartesian coordinates to adjust frozen coordinates...
	Successfully converged to displaced geometry.

	--- Internal Coordinate Step in ANG or DEG, aJ/ANG or AJ/DEG ---
	 ---------------------------------------------------------------------------
	   Coordinate                Previous        Force       Change         New 
	   ----------                --------       ------       ------       ------
	    1 R(1,2)          =      1.376447     0.271489     0.027913     1.404360
	    2 R(1,6)          =      1.451309    -0.023313    -0.003930     1.447379
	    3 R(1,8)          =      1.503645    -0.172734    -0.029451     1.474194
	    4 R(2,3)          =      1.418419    -0.163120    -0.023709     1.394710
	    5 R(2,10)         =      1.486057    -0.075730    -0.011702     1.474355
	    6 R(3,4)          =      1.438077     0.017515     0.000782     1.438859
	    7 R(3,5)          =      1.020288    -0.030500    -0.003748     1.016540
	    8 R(4,16)         =      1.417877    -0.129169    -0.016341     1.401536
	    9 R(4,17)         =      1.414942    -0.143459    -0.018096     1.396847
	   10 R(6,9)          =      1.360175    -0.002297    -0.000500     1.359675
	   11 R(6,33)         =      1.080278    -0.027742    -0.004056     1.076222
	   12 R(7,8)          =      1.387736     0.056708     0.007019     1.394754
	   13 R(7,9)          =      1.389391     0.008799     0.001347     1.390738
	   14 R(7,21)         =      1.009886    -0.065048    -0.007742     1.002144
	   15 R(8,22)         =      1.234095     0.202910     0.013384     1.247479
	   16 R(9,34)         =      1.081664    -0.032143    -0.004717     1.076947
	   17 R(10,11)        =      1.417002    -0.122345    -0.015331     1.401671
	   18 R(10,12)        =      1.416919    -0.083494    -0.010901     1.406018
	   19 R(11,13)        =      1.400384    -0.075593    -0.009143     1.391241
	   20 R(11,23)        =      1.091086    -0.052784    -0.007947     1.083139
	   21 R(12,14)        =      1.400241    -0.082927    -0.009873     1.390367
	   22 R(12,24)        =      1.090851    -0.052404    -0.007885     1.082966
	   23 R(13,15)        =      1.409833    -0.118256    -0.014791     1.395042
	   24 R(13,25)        =      1.090924    -0.054254    -0.008165     1.082759
	   25 R(14,15)        =      1.409893    -0.114021    -0.014196     1.395698
	   26 R(14,26)        =      1.090946    -0.053148    -0.007999     1.082948
	   27 R(15,27)        =      1.091408    -0.057087    -0.008603     1.082805
	   28 R(16,18)        =      1.401960    -0.107159    -0.012950     1.389010
	   29 R(16,28)        =      1.092238    -0.054744    -0.008268     1.083970
	   30 R(17,19)        =      1.401347    -0.105433    -0.012658     1.388688
	   31 R(17,29)        =      1.092217    -0.059910    -0.009048     1.083169
	   32 R(18,20)        =      1.416411    -0.129526    -0.016220     1.400192
	   33 R(18,30)        =      1.092234    -0.055069    -0.008317     1.083917
	   34 R(19,20)        =      1.416424    -0.123439    -0.015423     1.401002
	   35 R(19,31)        =      1.092195    -0.051185    -0.007729     1.084465
	   36 R(20,32)        =      1.426787    -0.144912    -0.018831     1.407956
	   37 R(32,35)        =      1.020486    -0.073915    -0.009089     1.011397
	   38 R(32,36)        =      1.020394    -0.073448    -0.009029     1.011365
	   39 B(1,2,3)        =    118.002584    -0.000086    -0.374630   117.627954
	   40 B(1,2,10)       =    125.379348    -0.000065    -0.281189   125.098159
	   41 B(1,6,9)        =    107.022531     0.000373     0.367846   107.390377
	   42 B(1,6,33)       =    126.195221    -0.000228    -0.014246   126.180975
	   43 B(1,8,7)        =    103.800067     0.000138    -0.596517   103.203550
	   44 B(1,8,22)       =    132.177790    -0.000753    -1.342489   130.835301
	   45 B(2,1,6)        =    127.661385     0.000512     1.611526   129.272911
	   46 B(2,1,8)        =    125.262661    -0.000635    -2.565774   122.696888
	   47 B(2,3,4)        =    125.073691    -0.000283    -1.971750   123.101941
	   48 B(2,3,5)        =    110.835610     0.000329     1.617254   112.452864
	   49 B(2,10,11)      =    120.316026    -0.000634    -1.428439   118.887587
	   50 B(2,10,12)      =    120.737499     0.000642     1.513478   122.250977
	   51 B(3,2,10)       =    116.486466     0.000151     0.656581   117.143047
	   52 B(3,4,16)       =    122.955647     0.000094     0.181671   123.137318
	   53 B(3,4,17)       =    118.847126    -0.000257    -0.564169   118.282957
	   54 B(4,3,5)        =    110.819500    -0.000055     0.234289   111.053789
	   55 B(4,16,18)      =    120.688206    -0.000072    -0.217598   120.470608
	   56 B(4,16,28)      =    121.006640    -0.000199    -0.634535   120.372105
	   57 B(4,17,19)      =    120.824053     0.000022     0.092218   120.916271
	   58 B(4,17,29)      =    120.029293    -0.000163    -0.487480   119.541812
	   59 B(6,1,8)        =    107.074008     0.000124     0.947586   108.021594
	   60 B(6,9,7)        =    110.638747    -0.000623    -1.537720   109.101027
	   61 B(6,9,34)       =    129.846367     0.000155    -0.043777   129.802590
	   62 B(7,8,22)       =    124.021622     0.000616     1.876816   125.898438
	   63 B(7,9,34)       =    119.514885     0.000468     1.578590   121.093474
	   64 B(8,7,9)        =    111.464390    -0.000011     0.769410   112.233801
	   65 B(8,7,21)       =    121.601323     0.000103    -0.350237   121.251085
	   66 B(9,6,33)       =    126.781881    -0.000145    -0.364257   126.417624
	   67 B(9,7,21)       =    126.934004    -0.000091    -0.425258   126.508746
	   68 B(10,11,13)     =    120.445102    -0.000010     0.066489   120.511591
	   69 B(10,11,23)     =    119.726211    -0.000154    -0.559866   119.166346
	   70 B(10,12,14)     =    120.464114     0.000004     0.059280   120.523394
	   71 B(10,12,24)     =    119.721875    -0.000051    -0.251035   119.470840
	   72 B(11,10,12)     =    118.928289    -0.000009    -0.084988   118.843301
	   73 B(11,13,15)     =    120.288817    -0.000020    -0.079075   120.209742
	   74 B(11,13,25)     =    119.479252     0.000056     0.265986   119.745238
	   75 B(12,14,15)     =    120.276973    -0.000093    -0.158781   120.118192
	   76 B(12,14,26)     =    119.478398     0.000108     0.324825   119.803223
	   77 B(13,11,23)     =    119.828556     0.000163     0.493440   120.321996
	   78 B(13,15,14)     =    119.595064     0.000127     0.196837   119.791901
	   79 B(13,15,27)     =    120.220578    -0.000065    -0.140218   120.080360
	   80 B(14,12,24)     =    119.813755     0.000047     0.191937   120.005693
	   81 B(14,15,27)     =    120.184288    -0.000062    -0.056550   120.127738
	   82 B(15,13,25)     =    120.231762    -0.000036    -0.186822   120.044940
	   83 B(15,14,26)     =    120.244470    -0.000015    -0.165894   120.078577
	   84 B(16,4,17)      =    118.192551     0.000162     0.374308   118.566859
	   85 B(16,18,20)     =    121.331122    -0.000145    -0.308314   121.022807
	   86 B(16,18,30)     =    118.478717     0.000166     0.388603   118.867320
	   87 B(17,19,20)     =    121.294948    -0.000229    -0.607997   120.686951
	   88 B(17,19,31)     =    118.532711     0.000247     0.723762   119.256473
	   89 B(18,16,28)     =    118.296382     0.000269     0.832532   119.128915
	   90 B(18,20,19)     =    117.647788     0.000261     0.660958   118.308746
	   91 B(18,20,32)     =    121.195927    -0.000151    -0.399884   120.796043
	   92 B(19,17,29)     =    119.146500     0.000141     0.395314   119.541814
	   93 B(19,20,32)     =    121.145678    -0.000113    -0.296682   120.848996
	   94 B(20,18,30)     =    120.189468    -0.000021    -0.080629   120.108840
	   95 B(20,19,31)     =    120.172241    -0.000018    -0.117025   120.055216
	   96 B(20,32,35)     =    113.530740     0.000147     0.768168   114.298908
	   97 B(20,32,36)     =    113.586934     0.000150     0.923684   114.510618
	   98 B(35,32,36)     =    108.980718     0.000164     1.215639   110.196357
	   99 *D(1,2,3,4)     =    -72.292571     0.000000    -0.000019   -72.292589
	  100 D(1,2,3,5)      =    150.662785    -0.000001    -0.130571   150.532214
	  101 *D(1,2,10,11)   =    -51.124077    -0.000000    -0.000017   -51.124094
	  102 *D(1,2,10,12)   =    130.443792    -0.000000     0.000000   130.443792
	  103 D(1,6,9,7)      =      0.153183    -0.000066    -2.373225    -2.220042
	  104 D(1,6,9,34)     =   -179.832666    -0.000051    -1.760372  -181.593038
	  105 D(1,8,7,9)      =      0.107130    -0.000040    -1.337777    -1.230646
	  106 D(1,8,7,21)     =    179.926462    -0.000007    -0.296210   179.630252
	  107 D(2,1,6,9)      =   -179.593735     0.000009    -0.001071  -179.594806
	  108 D(2,1,6,33)     =      0.615015    -0.000030    -1.358582    -0.743567
	  109 D(2,1,8,7)      =    179.510985     0.000032     1.318319   180.829304
	  110 D(2,1,8,22)     =     -0.226588    -0.000053    -1.755041    -1.981628
	  111 *D(2,3,4,16)    =    -27.763832     0.000000    -0.000000   -27.763832
	  112 D(2,3,4,17)     =    153.037739     0.000010     0.523541   153.561280
	  113 D(2,10,11,13)   =   -178.903262     0.000006     0.266509  -178.636753
	  114 D(2,10,11,23)   =      0.964741     0.000008     0.304183     1.268925
	  115 D(2,10,12,14)   =    178.930973    -0.000002    -0.030216   178.900757
	  116 D(2,10,12,24)   =     -0.884577    -0.000010    -0.313402    -1.197979
	  117 D(3,2,1,6)      =    -74.969197     0.000408    12.893278   -62.075919
	  118 D(3,2,1,8)      =    105.605010     0.000371    11.119173   116.724183
	  119 *D(3,2,10,11)   =    124.604752     0.000000     0.000017   124.604769
	  120 D(3,2,10,12)    =    -53.827379     0.000000     0.000034   -53.827344
	  121 D(3,4,16,18)    =   -177.896579     0.000007     0.308529  -177.588049
	  122 D(3,4,16,28)    =      3.199198     0.000032     1.166986     4.366184
	  123 D(3,4,17,19)    =    178.070132    -0.000020    -0.760698   177.309434
	  124 D(3,4,17,29)    =     -1.785427    -0.000021    -0.787733    -2.573159
	  125 *D(4,3,2,10)    =    111.651094    -0.000000     0.000018   111.651112
	  126 D(4,16,18,20)   =     -0.208900     0.000018     0.614155     0.405255
	  127 D(4,16,18,30)   =   -179.906500     0.000020     0.681204  -179.225296
	  128 D(4,17,19,20)   =     -0.076479     0.000011     0.361286     0.284807
	  129 D(4,17,19,31)   =   -179.961770    -0.000005    -0.177330  -180.139100
	  130 D(5,3,2,10)     =    -25.393550    -0.000001    -0.130534   -25.524085
	  131 D(5,3,4,16)     =    109.286517     0.000032     0.637655   109.924173
	  132 D(5,3,4,17)     =    -69.911911     0.000043     1.161196   -68.750715
	  133 D(6,1,2,10)     =    100.700923     0.000410    12.933220   113.634143
	  134 D(6,1,8,7)      =     -0.013497     0.000000    -0.133986    -0.147483
	  135 D(6,1,8,22)     =   -179.751070    -0.000085    -3.207345  -182.958415
	  136 D(6,9,7,8)      =     -0.170869     0.000070     2.422645     2.251777
	  137 D(6,9,7,21)     =   -179.978360     0.000034     1.314463  -178.663897
	  138 D(7,9,6,33)     =    179.942846    -0.000027    -1.010636   178.932210
	  139 D(8,1,2,10)     =    -78.724870     0.000373    11.159115   -67.565755
	  140 D(8,1,6,9)      =     -0.084197     0.000040     1.551231     1.467034
	  141 D(8,1,6,33)     =   -179.875447     0.000001     0.193720  -179.681727
	  142 D(8,7,9,34)     =    179.816646     0.000057     1.872615   181.689261
	  143 D(9,7,8,22)     =    179.872491     0.000035     1.522134   181.394624
	  144 D(10,11,13,15)  =      0.181538    -0.000011    -0.364036    -0.182499
	  145 D(10,11,13,25)  =   -179.967780    -0.000003    -0.111849  -180.079630
	  146 D(10,12,14,15)  =     -0.250291    -0.000006    -0.202101    -0.452392
	  147 D(10,12,14,26)  =    179.894125    -0.000009    -0.313529   179.580596
	  148 D(11,10,12,14)  =      0.477392    -0.000000    -0.009416     0.467976
	  149 D(11,10,12,24)  =   -179.338159    -0.000008    -0.292602  -179.630761
	  150 D(11,13,15,14)  =      0.052733     0.000005     0.150030     0.202763
	  151 D(11,13,15,27)  =    179.956297     0.000008     0.258088   180.214384
	  152 D(12,10,11,13)  =     -0.442986     0.000009     0.292457    -0.150528
	  153 D(12,10,11,23)  =    179.425018     0.000010     0.330132   179.755150
	  154 D(12,14,15,13)  =     -0.018418     0.000004     0.132343     0.113925
	  155 D(12,14,15,27)  =   -179.922017     0.000001     0.024315  -179.897702
	  156 D(13,15,14,26)  =    179.836053     0.000007     0.244792   180.080845
	  157 D(14,15,13,25)  =   -179.796819    -0.000003    -0.103597  -179.900416
	  158 D(15,13,11,23)  =   -179.686331    -0.000012    -0.400752  -180.087083
	  159 D(15,14,12,24)  =    179.565090     0.000002     0.081782   179.646872
	  160 D(16,4,17,19)   =     -1.166745    -0.000010    -0.260425    -1.427169
	  161 D(16,4,17,29)   =    178.977696    -0.000011    -0.287459   178.690238
	  162 D(16,18,20,19)  =     -1.027708    -0.000017    -0.512317    -1.540025
	  163 D(16,18,20,32)  =   -179.856031     0.000025     0.767816  -179.088215
	  164 D(17,4,16,18)   =      1.306811    -0.000004    -0.223532     1.083279
	  165 D(17,4,16,28)   =   -177.597412     0.000021     0.634925  -176.962487
	  166 D(17,19,20,18)  =      1.170341     0.000003     0.026117     1.196458
	  167 D(17,19,20,32)  =    180.000000    -0.000039    -1.256705   178.743295
	  168 D(18,20,19,31)  =   -178.946229     0.000019     0.569972  -178.376257
	  169 *D(18,20,32,35) =    -28.740881     0.000000    -0.000000   -28.740881
	  170 D(18,20,32,36)  =   -153.995694    -0.000109    -3.220011  -157.215705
	  171 D(19,20,18,30)  =    178.664775    -0.000019    -0.578804   178.085971
	  172 D(19,20,32,35)  =    152.471820     0.000042     1.301643   153.773463
	  173 D(19,20,32,36)  =     27.217007    -0.000067    -1.918367    25.298640
	  174 D(20,18,16,28)  =    178.724447    -0.000007    -0.249330   178.475118
	  175 D(20,19,17,29)  =    179.780338     0.000012     0.387062   180.167400
	  176 D(21,7,8,22)    =     -0.308177     0.000068     2.563700     2.255523
	  177 D(21,7,9,34)    =      0.009155     0.000021     0.764432     0.773587
	  178 D(23,11,13,25)  =      0.164351    -0.000005    -0.148565     0.015786
	  179 D(24,12,14,26)  =     -0.290494    -0.000001    -0.029645    -0.320139
	  180 D(25,13,15,27)  =      0.106745     0.000000     0.004461     0.111206
	  181 D(26,14,15,27)  =     -0.067546     0.000004     0.136764     0.069219
	  182 D(28,16,18,30)  =     -0.973153    -0.000005    -0.182281    -1.155434
	  183 D(29,17,19,31)  =     -0.104953    -0.000004    -0.151554    -0.256507
	  184 D(30,18,20,32)  =     -0.163548     0.000023     0.701329     0.537781
	  185 D(31,19,20,32)  =     -0.117285    -0.000023    -0.712135    -0.829419
	  186 D(33,6,9,34)    =     -0.043003    -0.000013    -0.397783    -0.440786
	  187 R(1,16)         =      3.636021    -0.077625    -0.056930     3.579091
	  188 R(4,12)         =      3.765022    -0.019964    -0.001017     3.764005
	  189 R(8,16)         =      3.786571     0.010815     0.027853     3.814423
	  190 R(12,16)        =      3.741431    -0.000051    -0.013851     3.727579
	 ---------------------------------------------------------------------------
	Successfully symmetrized geometry.

  ==> Convergence Check <==

  Measures of convergence in internal coordinates in au.
  Criteria marked as inactive (o), active & met (*), and active & unmet ( ).
  --------------------------------------------------------------------------------------------- ~
   Step     Total Energy     Delta E     MAX Force     RMS Force      MAX Disp      RMS Disp    ~
  --------------------------------------------------------------------------------------------- ~
    Convergence Criteria             o    2.50e-03 *    1.70e-03 *    1.00e-02 *    6.70e-03 *  ~
  --------------------------------------------------------------------------------------------- ~
      1    -895.88972079   -8.96e+02 o    3.30e-02      6.87e-03      2.26e-01      3.64e-02    ~
  ---------------------------------------------------------------------------------------------

	Writing optimization data to binary file.
	Structure for next step:
	Cartesian Geometry (in Angstrom)
	    C    -0.7743074932   1.5917127346  -0.1658092810
	    C    -0.8846507003   0.3380741446   0.4574414922
	    N     0.1030987757  -0.0167492538   1.3759544191
	    C     1.4436025479  -0.3704961553   0.9909510349
	    H    -0.2454525891  -0.6397848102   2.0996198754
	    C    -0.7920626389   2.9131198599   0.4245077432
	    N    -0.5107363394   3.1268307345  -1.7880975271
	    C    -0.5865790678   1.7443199710  -1.6200154967
	    C    -0.6614608731   3.8119904191  -0.5872683641
	    C    -2.0106407634  -0.5980120563   0.2853589894
	    C    -3.3179395855  -0.1246994053   0.4631998496
	    C    -1.8168232566  -1.9568467154  -0.0194188065
	    C    -4.4039514796  -0.9850342023   0.3368896108
	    C    -2.9043260128  -2.8130033444  -0.1515373992
	    C    -4.2015663237  -2.3301652653   0.0273663955
	    C     1.7600785292  -0.9340016086  -0.2526757582
	    C     2.4727795586  -0.1661472040   1.9130230968
	    C     3.0669408546  -1.3005359950  -0.5478236177
	    C     3.7778850763  -0.5392665551   1.6198726305
	    C     4.0942754420  -1.1252652097   0.3872705317
	    H    -0.3758540023   3.5338131344  -2.6938926871
	    O    -0.4612993007   0.8900414314  -2.5204143087
	    H    -3.4730601689   0.9203187004   0.7020829349
	    H    -0.8107345275  -2.3346826176  -0.1529912529
	    H    -5.4084849389  -0.6064461080   0.4781385686
	    H    -2.7419376756  -3.8560749930  -0.3932129727
	    H    -5.0485258413  -2.9971587303  -0.0738599279
	    H     0.9932136371  -1.0601814378  -1.0083137604
	    H     2.2494434655   0.2879240743   2.8707264674
	    H     3.2847639675  -1.7223129567  -1.5222641722
	    H     4.5564101588  -0.3660174482   2.3546843495
	    N     5.4205952448  -1.4808234789   0.0761508664
	    H    -0.9079309900   3.1403812874   1.4700604348
	    H    -0.6536268228   4.8884653345  -0.5563597702
	    H     5.5033426401  -2.2336422487  -0.5941778787
	    H     6.0056683480  -1.6637038708   0.8805778240
			--------------------------
			 OPTKING Finished Execution 
			--------------------------

    Structure for next step:
    Molecular point group: c1
    Full point group: C1

    Geometry (in Angstrom), charge = 0, multiplicity = 1:

    C           -0.763133916120     1.598302895263    -0.171612818776
    C           -0.873477123640     0.344664300336     0.451637956832
    N            0.114272356255    -0.010159099445     1.370150887397
    C            1.454776133671    -0.363906002361     0.985147501669
    H           -0.234279009962    -0.633194658337     2.093816346561
    C           -0.780889061851     2.919710025753     0.418704207780
    N           -0.499562761249     3.133420901156    -1.793901071293
    C           -0.575405489952     1.750910132232    -1.625819040179
    C           -0.650287295598     3.818580588495    -0.593071903480
    C           -1.999467191161    -0.591421904208     0.279555453419
    C           -3.306766018449    -0.118109251414     0.457396314318
    C           -1.805649683621    -1.950256568716    -0.025222343664
    C           -4.392777916801    -0.978444051781     0.331086074972
    C           -2.893152444113    -2.806413201032    -0.157340936947
    C           -4.190392760095    -2.323575120008     0.021562858516
    C            1.771252116207    -0.927411457850    -0.258479296269
    C            2.483953148477    -0.159557050240     1.907219567157
    C            3.078114446813    -1.293945845719    -0.553627157011
    C            3.789058671326    -0.532676402853     1.614069099763
    C            4.105449038187    -1.118675059673     0.381466996136
    H           -0.364680423624     3.540403302657    -2.699696234784
    O           -0.450125722370     0.896631589300    -2.526217855731
    H           -3.461886602430     0.926908858394     0.696279400537
    H           -0.799560950571    -2.328092472399    -0.158794790611
    H           -5.397311379992    -0.599855955949     0.472335033333
    H           -2.730764106243    -3.849484853739    -0.399016511341
    H           -5.037352281050    -2.990568587678    -0.079663465288
    H            1.004387221162    -1.053591287560    -1.014117301483
    H            2.260617054476     0.294514229855     2.864922941602
    H            3.295937560563    -1.715722809074    -1.528067715281
    H            4.567583756803    -0.359427295276     2.348880821645
    N            5.431768846194    -1.474233330338     0.070347329627
    H           -0.896757413411     3.146971454163     1.464256903466
    H           -0.642453245219     4.895055508079    -0.562163309519
    H            5.514516241869    -2.227052103047    -0.599981418170
    H            6.016841951724    -1.657113722978     0.874774290352

gradient() will perform analytic gradient computation.

*** tstart() called on node44.bme.utexas.edu
*** at Sun Nov  7 12:57:01 2021

   => Loading Basis Set <=

    Name: 6-311G
    Role: ORBITAL
    Keyword: BASIS
    atoms 1-2, 4, 6, 8-20     entry C          line    92 file /home/bdw2292/miniconda3/envs/amoebamdpoltype/share/psi4/basis/6-311g.gbs 
    atoms 3, 7, 32            entry N          line   109 file /home/bdw2292/miniconda3/envs/amoebamdpoltype/share/psi4/basis/6-311g.gbs 
    atoms 5, 21, 23-31, 33-36 entry H          line    21 file /home/bdw2292/miniconda3/envs/amoebamdpoltype/share/psi4/basis/6-311g.gbs 
    atoms 22                  entry O          line   126 file /home/bdw2292/miniconda3/envs/amoebamdpoltype/share/psi4/basis/6-311g.gbs 


         ---------------------------------------------------------
                                   SCF
               by Justin Turney, Rob Parrish, Andy Simmonett
                          and Daniel G. A. Smith
                              RKS Reference
                        1 Threads,   7947 MiB Core
         ---------------------------------------------------------

  ==> Geometry <==

    Molecular point group: c1
    Full point group: C1

    Geometry (in Angstrom), charge = 0, multiplicity = 1:

       Center              X                  Y                   Z               Mass       
    ------------   -----------------  -----------------  -----------------  -----------------
         C           -0.763133916120     1.598302895263    -0.171612818776    12.000000000000
         C           -0.873477123640     0.344664300336     0.451637956832    12.000000000000
         N            0.114272356255    -0.010159099445     1.370150887397    14.003074004430
         C            1.454776133671    -0.363906002361     0.985147501669    12.000000000000
         H           -0.234279009962    -0.633194658337     2.093816346561     1.007825032230
         C           -0.780889061851     2.919710025753     0.418704207780    12.000000000000
         N           -0.499562761249     3.133420901156    -1.793901071293    14.003074004430
         C           -0.575405489952     1.750910132232    -1.625819040179    12.000000000000
         C           -0.650287295598     3.818580588495    -0.593071903480    12.000000000000
         C           -1.999467191161    -0.591421904208     0.279555453419    12.000000000000
         C           -3.306766018449    -0.118109251414     0.457396314318    12.000000000000
         C           -1.805649683621    -1.950256568716    -0.025222343664    12.000000000000
         C           -4.392777916801    -0.978444051781     0.331086074972    12.000000000000
         C           -2.893152444113    -2.806413201032    -0.157340936947    12.000000000000
         C           -4.190392760095    -2.323575120008     0.021562858516    12.000000000000
         C            1.771252116207    -0.927411457850    -0.258479296269    12.000000000000
         C            2.483953148477    -0.159557050240     1.907219567157    12.000000000000
         C            3.078114446813    -1.293945845719    -0.553627157011    12.000000000000
         C            3.789058671326    -0.532676402853     1.614069099763    12.000000000000
         C            4.105449038187    -1.118675059673     0.381466996136    12.000000000000
         H           -0.364680423624     3.540403302657    -2.699696234784     1.007825032230
         O           -0.450125722370     0.896631589300    -2.526217855731    15.994914619570
         H           -3.461886602430     0.926908858394     0.696279400537     1.007825032230
         H           -0.799560950571    -2.328092472399    -0.158794790611     1.007825032230
         H           -5.397311379992    -0.599855955949     0.472335033333     1.007825032230
         H           -2.730764106243    -3.849484853739    -0.399016511341     1.007825032230
         H           -5.037352281050    -2.990568587678    -0.079663465288     1.007825032230
         H            1.004387221162    -1.053591287560    -1.014117301483     1.007825032230
         H            2.260617054476     0.294514229855     2.864922941602     1.007825032230
         H            3.295937560563    -1.715722809074    -1.528067715281     1.007825032230
         H            4.567583756803    -0.359427295276     2.348880821645     1.007825032230
         N            5.431768846194    -1.474233330338     0.070347329627    14.003074004430
         H           -0.896757413411     3.146971454163     1.464256903466     1.007825032230
         H           -0.642453245219     4.895055508079    -0.562163309519     1.007825032230
         H            5.514516241869    -2.227052103047    -0.599981418170     1.007825032230
         H            6.016841951724    -1.657113722978     0.874774290352     1.007825032230

  Running in c1 symmetry.

  Rotational constants: A =      0.01390  B =      0.00726  C =      0.00567 [cm^-1]
  Rotational constants: A =    416.77162  B =    217.55641  C =    169.92942 [MHz]
  Nuclear repulsion = 1537.240782885627596

  Charge       = 0
  Multiplicity = 1
  Electrons    = 146
  Nalpha       = 73
  Nbeta        = 73

  ==> Algorithm <==

  SCF Algorithm Type is DF.
  DIIS enabled.
  MOM disabled.
  Fractional occupation disabled.
  Guess Type is READ.
  Energy threshold   = 1.00e-08
  Density threshold  = 1.00e-08
  Integral threshold = 0.00e+00

  ==> Primary Basis <==

  Basis Set: 6-311G
    Blend: 6-311G
    Number of shells: 192
    Number of basis function: 318
    Number of Cartesian functions: 318
    Spherical Harmonics?: true
    Max angular momentum: 1

  ==> DFT Potential <==

   => Composite Functional: WB97X-D <= 

    wB97X-D Hyb-GGA Exchange-Correlation Functional

    J.-D. Chai and M. Head-Gordon, Phys. Chem. Chem. Phys. 10, 6615 (2008)

    Deriv               =              1
    GGA                 =           TRUE
    Meta                =          FALSE

    Exchange Hybrid     =           TRUE
    MP2 Hybrid          =          FALSE

   => Exchange-Correlation Functionals <=

    1.0000   wB97D range-separated functional

   => Exact (HF) Exchange <=

    0.7780            HF,LR [omega = 0.2000]
    0.2220               HF 

   => Molecular Quadrature <=

    Radial Scheme          =       TREUTLER
    Pruning Scheme         =           FLAT
    Nuclear Scheme         =       TREUTLER

    BS radius alpha        =              1
    Pruning alpha          =              1
    Radial Points          =             75
    Spherical Points       =            302
    Total Points           =         806752
    Total Blocks           =           5709
    Max Points             =            256
    Max Functions          =            228

   => WB97X-D: Empirical Dispersion <=

    Chai and Head-Gordon Dispersion Correction
    Chai, J.-D.; Head-Gordon, M. (2010), J. Chem. Phys., 132: 6615-6620

        s6 =       1.000000

   => Loading Basis Set <=

    Name: (6-311G AUX)
    Role: JKFIT
    Keyword: DF_BASIS_SCF
    atoms 1-2, 4, 6, 8-20     entry C          line   125 file /home/bdw2292/miniconda3/envs/amoebamdpoltype/share/psi4/basis/cc-pvtz-jkfit.gbs 
    atoms 3, 7, 32            entry N          line   177 file /home/bdw2292/miniconda3/envs/amoebamdpoltype/share/psi4/basis/cc-pvtz-jkfit.gbs 
    atoms 5, 21, 23-31, 33-36 entry H          line    51 file /home/bdw2292/miniconda3/envs/amoebamdpoltype/share/psi4/basis/cc-pvtz-jkfit.gbs 
    atoms 22                  entry O          line   229 file /home/bdw2292/miniconda3/envs/amoebamdpoltype/share/psi4/basis/cc-pvtz-jkfit.gbs 

   => Loading Basis Set <=

    Name: 6-311G
    Role: ORBITAL
    Keyword: BASIS
    atoms 1-2, 4, 6, 8-20     entry C          line    92 file /home/bdw2292/miniconda3/envs/amoebamdpoltype/share/psi4/basis/6-311g.gbs 
    atoms 3, 7, 32            entry N          line   109 file /home/bdw2292/miniconda3/envs/amoebamdpoltype/share/psi4/basis/6-311g.gbs 
    atoms 5, 21, 23-31, 33-36 entry H          line    21 file /home/bdw2292/miniconda3/envs/amoebamdpoltype/share/psi4/basis/6-311g.gbs 
    atoms 22                  entry O          line   126 file /home/bdw2292/miniconda3/envs/amoebamdpoltype/share/psi4/basis/6-311g.gbs 

  Reading orbitals from file 180, no projection.

  ==> Pre-Iterations <==

   -------------------------------------------------------
    Irrep   Nso     Nmo     Nalpha   Nbeta   Ndocc  Nsocc
   -------------------------------------------------------
     A        318     318       0       0       0       0
   -------------------------------------------------------
    Total     318     318      73      73      73       0
   -------------------------------------------------------

  ==> Integral Setup <==

  ==> DiskDFJK: Density-Fitted J/K Matrices <==

    J tasked:                  Yes
    K tasked:                  Yes
    wK tasked:                 Yes
    Omega:               2.000E-01
    OpenMP threads:              1
    Integrals threads:           1
    Memory [MiB]:             2562
    Algorithm:                Core
    Integral Cache:           NONE
    Schwarz Cutoff:          1E-12
    Fitting Condition:       1E-10

   => Auxiliary Basis Set <=

  Basis Set: (6-311G AUX)
    Blend: CC-PVTZ-JKFIT
[...]
	   38 R(32,36)        =      1.002170     0.000376     0.000050     1.002221
	   39 B(1,2,3)        =    118.339744     0.000000    -0.013316   118.326428
	   40 B(1,2,10)       =    125.994970     0.000000    -0.009952   125.985018
	   41 B(1,6,9)        =    107.961122    -0.000003    -0.023598   107.937524
	   42 B(1,6,33)       =    125.064824     0.000002     0.036211   125.101035
	   43 B(1,8,7)        =    104.486832    -0.000011    -0.052957   104.433875
	   44 B(1,8,22)       =    131.220567    -0.000002    -0.015925   131.204642
	   45 B(2,1,6)        =    126.304822     0.000001     0.101718   126.406540
	   46 B(2,1,8)        =    127.093332    -0.000009    -0.141958   126.951374
	   47 B(2,3,4)        =    122.077766    -0.000003    -0.017716   122.060050
	   48 B(2,3,5)        =    112.819704     0.000000    -0.013326   112.806378
	   49 B(2,10,11)      =    121.014969     0.000001    -0.033019   120.981950
	   50 B(2,10,12)      =    119.891780    -0.000000     0.036442   119.928222
	   51 B(3,2,10)       =    115.532660    -0.000000     0.023293   115.555954
	   52 B(3,4,16)       =    122.482038     0.000002    -0.013629   122.468409
	   53 B(3,4,17)       =    118.855374    -0.000003     0.000925   118.856298
	   54 B(4,3,5)        =    112.735697     0.000002    -0.021420   112.714278
	   55 B(4,16,18)      =    120.677767     0.000001    -0.004171   120.673596
	   56 B(4,16,28)      =    119.841278     0.000000     0.003425   119.844703
	   57 B(4,17,19)      =    120.933531    -0.000002    -0.005788   120.927743
	   58 B(4,17,29)      =    118.964042     0.000001     0.002042   118.966084
	   59 B(6,1,8)        =    106.429183     0.000009     0.046746   106.475929
	   60 B(6,9,7)        =    109.952816     0.000006     0.019295   109.972111
	   61 B(6,9,34)       =    129.621590    -0.000006    -0.034542   129.587048
	   62 B(7,8,22)       =    124.289783     0.000014     0.068393   124.358176
	   63 B(7,9,34)       =    120.423987    -0.000000     0.013285   120.437272
	   64 B(8,7,9)        =    111.163603     0.000000     0.014785   111.178387
	   65 B(8,7,21)       =    122.407300     0.000000    -0.007091   122.400209
	   66 B(9,6,33)       =    126.965388     0.000001    -0.008973   126.956415
	   67 B(9,7,21)       =    126.428476    -0.000001    -0.007727   126.420749
	   68 B(10,11,13)     =    120.434147     0.000001     0.000006   120.434153
	   69 B(10,11,23)     =    119.252478    -0.000001     0.005193   119.257670
	   70 B(10,12,14)     =    120.425332     0.000001     0.006827   120.432159
	   71 B(10,12,24)     =    119.871484     0.000000    -0.008889   119.862595
	   72 B(11,10,12)     =    119.075117    -0.000000    -0.003422   119.071696
	   73 B(11,13,15)     =    120.164778     0.000000     0.001478   120.166257
	   74 B(11,13,25)     =    119.734884    -0.000000    -0.002780   119.732103
	   75 B(12,14,15)     =    120.048305    -0.000001    -0.003128   120.045177
	   76 B(12,14,26)     =    119.783292     0.000000     0.003273   119.786566
	   77 B(13,11,23)     =    120.307770    -0.000001    -0.005463   120.302307
	   78 B(13,15,14)     =    119.846374    -0.000001    -0.002071   119.844302
	   79 B(13,15,27)     =    120.074384     0.000001     0.007236   120.081620
	   80 B(14,12,24)     =    119.701853    -0.000002     0.002327   119.704179
	   81 B(14,15,27)     =    120.079219    -0.000000    -0.005172   120.074047
	   82 B(15,13,25)     =    120.098452     0.000000     0.001200   120.099652
	   83 B(15,14,26)     =    120.168389     0.000001    -0.000138   120.168252
	   84 B(16,4,17)      =    118.617798     0.000002     0.011345   118.629143
	   85 B(16,18,20)     =    120.886315    -0.000002    -0.002448   120.883866
	   86 B(16,18,30)     =    119.640522     0.000001     0.005708   119.646230
	   87 B(17,19,20)     =    120.648488     0.000001    -0.000480   120.648008
	   88 B(17,19,31)     =    119.702922    -0.000001     0.003335   119.706257
	   89 B(18,16,28)     =    119.410600    -0.000001     0.002056   119.412656
	   90 B(18,20,19)     =    118.169410     0.000001     0.001138   118.170548
	   91 B(18,20,32)     =    120.612968    -0.000001     0.005152   120.618120
	   92 B(19,17,29)     =    120.102381     0.000001     0.003692   120.106073
	   93 B(19,20,32)     =    121.151186     0.000000    -0.004947   121.146239
	   94 B(20,18,30)     =    119.473163     0.000001    -0.003261   119.469902
	   95 B(20,19,31)     =    119.642335     0.000000    -0.002454   119.639881
	   96 B(20,32,35)     =    119.501299     0.000001     0.035614   119.536912
	   97 B(20,32,36)     =    119.086926    -0.000001     0.040140   119.127066
	   98 B(35,32,36)     =    116.004277     0.000001     0.043359   116.047636
	   99 *D(1,2,3,4)     =    -72.287659    -0.000000    -0.000001   -72.287660
	  100 D(1,2,3,5)      =    148.374270     0.000000     0.082432   148.456702
	  101 *D(1,2,10,11)   =    -51.119593    -0.000000    -0.000001   -51.119594
	  102 *D(1,2,10,12)   =    130.443797    -0.000000    -0.000000   130.443797
	  103 D(1,6,9,7)      =     -0.833589     0.000004     0.354970    -0.478618
	  104 D(1,6,9,34)     =    178.698186     0.000001     0.125472   178.823658
	  105 D(1,8,7,9)      =     -0.311403     0.000002     0.093759    -0.217644
	  106 D(1,8,7,21)     =    179.958271     0.000000     0.100945   180.059216
	  107 D(2,1,6,9)      =    176.111220    -0.000002    -0.212760   175.898460
	  108 D(2,1,6,33)     =     -4.898236    -0.000001     0.027729    -4.870507
	  109 D(2,1,8,7)      =   -175.619729    -0.000000     0.022222  -175.597507
	  110 D(2,1,8,22)     =      3.775015    -0.000000    -0.027718     3.747297
	  111 *D(2,3,4,16)    =    -27.763838    -0.000000    -0.000000   -27.763838
	  112 D(2,3,4,17)     =    154.705581     0.000000     0.036874   154.742455
	  113 D(2,10,11,13)   =   -178.565610    -0.000000    -0.058413  -178.624023
	  114 D(2,10,11,23)   =      2.292967    -0.000000    -0.038404     2.254564
	  115 D(2,10,12,14)   =    179.211625     0.000000     0.050286   179.261911
	  116 D(2,10,12,24)   =     -0.367416     0.000000     0.006125    -0.361291
	  117 D(3,2,1,6)      =     -2.325722    -0.000002    -0.160205    -2.485928
	  118 D(3,2,1,8)      =    172.239929    -0.000002    -0.054682   172.185248
	  119 *D(3,2,10,11)   =    124.600290    -0.000000     0.000001   124.600291
	  120 D(3,2,10,12)    =    -53.836320    -0.000000     0.000002   -53.836318
	  121 D(3,4,16,18)    =   -178.444788     0.000000     0.038814  -178.405975
	  122 D(3,4,16,28)    =      4.623295     0.000000     0.010068     4.633363
	  123 D(3,4,17,19)    =    176.265034    -0.000000    -0.045662   176.219372
	  124 D(3,4,17,29)    =     -3.657240     0.000000    -0.008700    -3.665940
	  125 *D(4,3,2,10)    =    111.646233     0.000000     0.000001   111.646233
	  126 D(4,16,18,20)   =      2.705052     0.000000     0.004353     2.709405
	  127 D(4,16,18,30)   =   -177.299332    -0.000000    -0.004417  -177.303749
	  128 D(4,17,19,20)   =      1.868260     0.000000     0.011257     1.879517
	  129 D(4,17,19,31)   =   -179.044727     0.000000     0.040986  -179.003741
	  130 D(5,3,2,10)     =    -27.691838     0.000000     0.082434   -27.609404
	  131 D(5,3,4,16)     =    111.604517    -0.000000    -0.079449   111.525068
	  132 D(5,3,4,17)     =    -65.926064    -0.000000    -0.042575   -65.968639
	  133 D(6,1,2,10)     =    173.286036    -0.000002    -0.158799   173.127237
	  134 D(6,1,8,7)      =     -0.183559     0.000000     0.115543    -0.068015
	  135 D(6,1,8,22)     =    179.211185     0.000000     0.065603   179.276788
	  136 D(6,9,7,8)      =      0.743486    -0.000004    -0.290505     0.452981
	  137 D(6,9,7,21)     =   -179.539481    -0.000002    -0.298040  -179.837520
	  138 D(7,9,6,33)     =   -179.799490     0.000002     0.108167  -179.691323
	  139 D(8,1,2,10)     =    -12.148313    -0.000002    -0.053275   -12.201588
	  140 D(8,1,6,9)      =      0.628376    -0.000003    -0.291022     0.337354
	  141 D(8,1,6,33)     =    179.618921    -0.000001    -0.050533   179.568388
	  142 D(8,7,9,34)     =   -178.838260    -0.000001    -0.085107  -178.923367
	  143 D(9,7,8,22)     =   -179.760374     0.000002     0.139856  -179.620519
	  144 D(10,11,13,15)  =     -0.462880     0.000000     0.025697    -0.437183
	  145 D(10,11,13,25)  =   -179.963851     0.000000     0.039047  -179.924804
	  146 D(10,12,14,15)  =     -0.794092    -0.000000    -0.011560    -0.805652
	  147 D(10,12,14,26)  =    179.247204    -0.000000    -0.026288   179.220916
	  148 D(11,10,12,14)  =      0.744686     0.000000     0.050767     0.795453
	  149 D(11,10,12,24)  =   -178.834355     0.000000     0.006606  -178.827749
	  150 D(11,13,15,14)  =      0.417885     0.000000     0.014246     0.432131
	  151 D(11,13,15,27)  =   -179.637375     0.000000     0.005721  -179.631654
	  152 D(12,10,11,13)  =     -0.116448    -0.000000    -0.057795    -0.174243
	  153 D(12,10,11,23)  =   -179.257871    -0.000000    -0.037785  -179.295656
	  154 D(12,14,15,13)  =      0.208835    -0.000000    -0.021308     0.187526
	  155 D(12,14,15,27)  =   -179.735903    -0.000000    -0.012791  -179.748694
	  156 D(13,15,14,26)  =   -179.832621    -0.000000    -0.006522  -179.839144
	  157 D(14,15,13,25)  =    179.917031    -0.000000     0.000826   179.917857
	  158 D(15,13,11,23)  =    178.669445     0.000000     0.005570   178.675015
	  159 D(15,14,12,24)  =    178.785662     0.000000     0.032484   178.818146
	  160 D(16,4,17,19)   =     -1.362020    -0.000000    -0.009606    -1.371625
	  161 D(16,4,17,29)   =    178.715706     0.000000     0.027356   178.743063
	  162 D(16,18,20,19)  =     -2.172769    -0.000000    -0.002829    -2.175598
	  163 D(16,18,20,32)  =   -179.242527     0.000000    -0.032403  -179.274930
	  164 D(17,4,16,18)   =     -0.908596     0.000000     0.001776    -0.906820
	  165 D(17,4,16,28)   =   -177.840513    -0.000000    -0.026970  -177.867483
	  166 D(17,19,20,18)  =     -0.093107     0.000000    -0.004989    -0.098096
	  167 D(17,19,20,32)  =    176.960128    -0.000000     0.025060   176.985189
	  168 D(18,20,19,31)  =   -179.180670    -0.000000    -0.034751  -179.215421
	  169 *D(18,20,32,35) =    -28.740881     0.000000    -0.000000   -28.740881
	  170 D(18,20,32,36)  =    178.233986    -0.000001    -0.291890   177.942096
	  171 D(19,20,18,30)  =    177.831608    -0.000000     0.005925   177.837533
	  172 D(19,20,32,35)  =    154.277609     0.000000    -0.030655   154.246954
	  173 D(19,20,32,36)  =      1.252476    -0.000001    -0.322545     0.929932
	  174 D(20,18,16,28)  =    179.650068     0.000000     0.033018   179.683086
	  175 D(20,19,17,29)  =   -178.210346    -0.000000    -0.026126  -178.236471
	  176 D(21,7,8,22)    =      0.509300     0.000000     0.147042     0.656341
	  177 D(21,7,9,34)    =      0.878773     0.000001    -0.092641     0.786132
	  178 D(23,11,13,25)  =     -0.831527     0.000000     0.018921    -0.812606
	  179 D(24,12,14,26)  =     -1.173042     0.000000     0.017756    -1.155286
	  180 D(25,13,15,27)  =     -0.138229    -0.000000    -0.007699    -0.145927
	  181 D(26,14,15,27)  =      0.222641    -0.000000     0.001995     0.224636
	  182 D(28,16,18,30)  =     -0.354316     0.000000     0.024248    -0.330067
	  183 D(29,17,19,31)  =      0.876668    -0.000000     0.003603     0.880271
	  184 D(30,18,20,32)  =      0.761850     0.000000    -0.023649     0.738201
	  185 D(31,19,20,32)  =     -2.127435    -0.000000    -0.004702    -2.132136
	  186 D(33,6,9,34)    =     -0.267715    -0.000001    -0.121331    -0.389046
	  187 R(1,16)         =      3.528551    -0.000203    -0.000555     3.527996
	  188 R(4,6)          =      3.295555     0.000866     0.003153     3.298708
	  189 R(4,12)         =      3.679645    -0.000071     0.001312     3.680958
	  190 R(8,11)         =      3.345304    -0.000521    -0.003378     3.341927
	  191 R(10,16)        =      3.782011     0.000136    -0.000249     3.781762
	  192 R(10,22)        =      3.136448    -0.000095    -0.004714     3.131733
	  193 R(11,22)        =      3.028696    -0.000976    -0.004681     3.024016
	  194 R(12,16)        =      3.619127     0.000026     0.000837     3.619965
	 ---------------------------------------------------------------------------
	Successfully symmetrized geometry.

  ==> Convergence Check <==

  Measures of convergence in internal coordinates in au.
  Criteria marked as inactive (o), active & met (*), and active & unmet ( ).
  ---------------------------------------------------------------------------------------------
   Step     Total Energy     Delta E     MAX Force     RMS Force      MAX Disp      RMS Disp   
  ---------------------------------------------------------------------------------------------
    Convergence Criteria             o    2.50e-03 *    1.70e-03 *    1.00e-02 *    6.70e-03 *
  ---------------------------------------------------------------------------------------------
      9    -895.96454293   -1.04e-05 o    6.58e-04 *    7.99e-05 *    8.91e-03 *    1.65e-03 *  ~
  ---------------------------------------------------------------------------------------------


  **** Optimization is complete! (in 9 steps) ****

  ==> Optimization Summary <==

  Measures of convergence in internal coordinates in au.
  --------------------------------------------------------------------------------------------------------------- ~
   Step         Total Energy             Delta E       MAX Force       RMS Force        MAX Disp        RMS Disp  ~
  --------------------------------------------------------------------------------------------------------------- ~
      1    -895.956028706288   -895.956028706288      0.02425159      0.00328805      0.06407257      0.01414823  ~
      2    -895.960231564474     -0.004202858186      0.00822215      0.00117733      0.06787617      0.01425205  ~
      3    -895.962205924390     -0.001974359917      0.00460714      0.00071624      0.08058683      0.01434241  ~
      4    -895.963470946055     -0.001265021665      0.00196238      0.00037870      0.09555009      0.01434185  ~
      5    -895.964179515112     -0.000708569057      0.00127048      0.00022877      0.10272842      0.01400764  ~
      6    -895.964440314983     -0.000260799871      0.00446790      0.00042116      0.03300875      0.00502596  ~
      7    -895.964491220056     -0.000050905073      0.00280628      0.00026225      0.03936019      0.00543692  ~
      8    -895.964532521103     -0.000041301048      0.00174832      0.00018399      0.01092627      0.00191605  ~
      9    -895.964542929250     -0.000010408146      0.00065796      0.00007987      0.00890894      0.00165354  ~
  --------------------------------------------------------------------------------------------------------------- ~

	Writing optimization data to binary file.
	Final energy is   -895.9645429292497
	Final (previous) structure:
	Cartesian Geometry (in Angstrom)
	    C    -0.4739572357   1.5780870383  -0.4280348870
	    C    -0.7605244265   0.4682992120   0.2980246639
	    N     0.1011621648   0.1219780160   1.3606638524
	    C     1.4145759120  -0.4094144891   1.1343958968
	    H    -0.3796099394  -0.3364010188   2.1212622688
	    C     0.6333603708   2.5036450377  -0.1939365439
	    N    -0.4244893462   3.1508847201  -2.0748621179
	    C    -1.1475053115   2.0337988202  -1.6781468391
	    C     0.6223029932   3.4218462339  -1.1787153897
	    C    -1.9618329902  -0.3884799665   0.1436750292
	    C    -3.2461389725   0.1654650593   0.1373770334
	    C    -1.8191090006  -1.7779921831   0.0343651545
	    C    -4.3647726608  -0.6515141035   0.0217953574
	    C    -2.9393013365  -2.5935131091  -0.0943745947
	    C    -4.2144431911  -2.0318402335  -0.0986986345
	    C     1.7423056254  -1.1359298135  -0.0121476325
	    C     2.3888815112  -0.2382468564   2.1182849391
	    C     3.0174582063  -1.6608292942  -0.1780795056
	    C     3.6517948797  -0.8009954710   1.9785569164
	    C     3.9890618698  -1.5230316336   0.8245111179
	    H    -0.6527059662   3.6732244856  -2.8978287127
	    O    -2.1230537418   1.5754240736  -2.2964875939
	    H    -3.3590236093   1.2372280144   0.2093191573
	    H    -0.8328616055  -2.2216922948   0.0568468408
	    H    -5.3522455630  -0.2112316114   0.0175752624
	    H    -2.8164883972  -3.6637553077  -0.1902709871
	    H    -5.0856415687  -2.6656294289  -0.1944404223
	    H     1.0133225806  -1.2510991647  -0.8031515438
	    H     2.1475612209   0.3414985615   2.9994181757
	    H     3.2663614961  -2.1835691861  -1.0926960227
	    H     4.3879274455  -0.6685286584   2.7617139669
	    N     5.2687233995  -2.0371444111   0.6459536796
	    H     1.3147765224   2.4535368808   0.6347848042
	    H     1.2670198471   4.2686516017  -1.3342662727
	    H     5.4012464440  -2.8379575988   0.0582934859
	    H     5.9527188840  -1.9024537598   1.3659217063
	Saving final (previous) structure.
			--------------------------
			 OPTKING Finished Execution 
			--------------------------

    Final optimized geometry and variables:
    Molecular point group: c1
    Full point group: C1

    Geometry (in Angstrom), charge = 0, multiplicity = 1:

    C           -0.473957237542     1.578087044484    -0.428034888672
    C           -0.760524429495     0.468299213823     0.298024665066
    N            0.101162165197     0.121978016494     1.360663857743
    C            1.414575917574    -0.409414490738     1.134395901276
    H           -0.379609940911    -0.336401020124     2.121262277108
    C            0.633360373304     2.503645047513    -0.193936544681
    N           -0.424489347882     3.150884732457    -2.074862126020
    C           -1.147505316059     2.033798828163    -1.678146845664
    C            0.622302995610     3.421846247386    -1.178715394309
    C           -1.961832997873    -0.388479968005     0.143675029807
    C           -3.246138985238     0.165465059979     0.137377033929
    C           -1.819109007750    -1.777992190108     0.034365154623
    C           -4.364772677940    -0.651514106098     0.021795357448
    C           -2.939301348069    -2.593513119290    -0.094374595094
    C           -4.214443207641    -2.031840241443    -0.098698634860
    C            1.742305632215    -1.135929817919    -0.012147632562
    C            2.388881520578    -0.238246857327     2.118284947408
    C            3.017458218191    -1.660829300763    -0.178079506288
    C            3.651794894021    -0.800995474162     1.978556924182
    C            3.989061885493    -1.523031639538     0.824511121155
    H           -0.652705968747     3.673224500029    -2.897828724061
    O           -2.123053750098     1.575424079774    -2.296487602915
    H           -3.359023622523     1.237228019232     0.209319158152
    H           -0.832861608755    -2.221692303566     0.056846841071
    H           -5.352245584056    -0.211231612205     0.017575262453
    H           -2.816488408238    -3.663755322102    -0.190270987854
    H           -5.085641588714    -2.665629439355    -0.194440423062
    H            1.013322584609    -1.251099169655    -0.803151546930
    H            2.147561229320     0.341498562884     2.999418187531
    H            3.266361508959    -2.183569194708    -1.092696027029
    H            4.387927462734    -0.668528660993     2.761713977774
    N            5.268723420191    -2.037144419138     0.645953682119
    H            1.314776527567     2.453536890437     0.634784806673
    H            1.267019852077     4.268651618471    -1.334266277990
    H            5.401246465228    -2.837957609971     0.058293486119
    H            5.952718907414    -1.902453767271     1.365921711648

	Removing binary optimization data file.
	Cleaning optimization helper files.

    Psi4 stopped on: Sunday, 07 November 2021 03:48PM
    Psi4 wall time for execution: 3:05:15.82

*** Psi4 exiting successfully. Buy a developer a beer!
