
    -----------------------------------------------------------------------
          Psi4: An Open-Source Ab Initio Electronic Structure Package
                               Psi4 1.3.2 release

                         Git: Rev {HEAD} ecbda83 


    R. M. Parrish, L. A. Burns, D. G. A. Smith, A. C. Simmonett,
    A. E. DePrince III, E. G. Hohenstein, U. Bozkaya, A. Yu. Sokolov,
    R. Di Remigio, R. M. Richard, J. F. Gonthier, A. M. James,
    H. R. McAlexander, A. Kumar, M. Saitow, X. Wang, B. P. Pritchard,
    P. Verma, H. F. Schaefer III, K. Patkowski, R. A. King, E. F. Valeev,
    F. A. Evangelista, J. M. Turney, T. D. Crawford, and C. D. Sherrill,
    J. Chem. Theory Comput. 13(7) pp 3185--3197 (2017).
    (doi: 10.1021/acs.jctc.7b00174)


                         Additional Contributions by
    P. Kraus, H. Kruse, M. H. Lechner, M. C. Schieber, R. A. Shaw,
    A. Alenaizan, R. Galvelis, Z. L. Glick, S. Lehtola, and J. P. Misiewicz

    -----------------------------------------------------------------------


    Psi4 started on: Tuesday, 09 November 2021 09:47AM

    Process ID: 63990
    Host:       node44.bme.utexas.edu
    PSIDATADIR: /home/bdw2292/miniconda3/envs/amoebamdpoltype/share/psi4
    Memory:     500.0 MiB
    Threads:    1
    
  ==> Input File <==

--------------------------------------------------------------------------
molecule { 
0 1
C         -5.39960       -1.30330       -0.41360
C         -4.15550       -0.51950       -0.13450
N         -2.88880       -1.10540       -0.07100
C         -2.79090       -2.55700       -0.33120
C         -1.67290       -0.44230        0.21710
C          0.81870        0.79670        0.73960
C          0.76840       -0.39010        0.07510
C         -0.38080        1.37730        1.15150
C         -0.45250       -0.99130       -0.17810
C         -1.58120        0.75890        0.88810
O         -4.29600        0.70990        0.04690
H         -2.17240       -3.04390        0.42450
H         -2.33400       -2.65370       -1.32860
H         -3.80720       -3.03690       -0.27370
N         -6.53810       -0.48150       -0.39510
H         -5.54410       -2.13730        0.30810
H         -5.24070       -1.74240       -1.43810
H          1.69470       -0.88110       -0.25600
H         -0.33620        2.31250        1.67300
H         -0.49600       -1.93920       -0.70890
H         -2.48410        1.26410        1.24600
N          2.01500        1.48570        1.02620
C         -6.95280        0.08910        0.82430
C         -7.06200        0.02090       -1.60130
H          2.04670        2.35900        1.59500
H         -6.37020        1.01670        1.06340
H         -6.70880       -0.63220        1.65040
H         -7.17230       -0.79300       -2.34110
H         -6.38110        0.82340       -2.01090
H          2.86020        1.12530        0.67260
H         -7.99610        0.31140        0.74040
H         -8.02640        0.44240       -1.40830
}
memory 100GB
set_num_threads(12)
psi4_io.set_default_path("/scratch/bdw2292/Psi4-farH_in17")
set maxiter 500
set freeze_core True
set PROPERTIES_ORIGIN ["COM"]
set cubeprop_tasks ['esp']
E, wfn = properties('hf/MINIX',properties=['dipole'],return_wfn=True)
cubeprop(wfn)
fchk(wfn, "farH_in17-esp_frag.fchk")
oeprop(wfn,"WIBERG_LOWDIN_INDICES","MULLIKEN_CHARGES")
clean()
--------------------------------------------------------------------------

  Memory set to  93.132 GiB by Python driver.
  Threads set to 12 by Python driver.

*** tstart() called on node44.bme.utexas.edu
*** at Tue Nov  9 09:47:30 2021

   => Loading Basis Set <=

    Name: MINIX
    Role: ORBITAL
    Keyword: BASIS
    atoms 1-2, 4-10, 23-24    entry C          line    74 file /home/bdw2292/miniconda3/envs/amoebamdpoltype/share/psi4/basis/minix.gbs 
    atoms 3, 15, 22           entry N          line    88 file /home/bdw2292/miniconda3/envs/amoebamdpoltype/share/psi4/basis/minix.gbs 
    atoms 11                  entry O          line   102 file /home/bdw2292/miniconda3/envs/amoebamdpoltype/share/psi4/basis/minix.gbs 
    atoms 12-14, 16-21, 25-32 entry H          line    24 file /home/bdw2292/miniconda3/envs/amoebamdpoltype/share/psi4/basis/minix.gbs 


         ---------------------------------------------------------
                                   SCF
               by Justin Turney, Rob Parrish, Andy Simmonett
                          and Daniel G. A. Smith
                              RHF Reference
                       12 Threads,  95367 MiB Core
         ---------------------------------------------------------

  ==> Geometry <==

    Molecular point group: c1
    Full point group: C1

    Geometry (in Angstrom), charge = 0, multiplicity = 1:

       Center              X                  Y                   Z               Mass       
    ------------   -----------------  -----------------  -----------------  -----------------
         C           -2.610326238977    -1.133119046450    -0.524840368581    12.000000000000
         C           -1.366226238977    -0.349319046450    -0.245740368581    12.000000000000
         N           -0.099526238977    -0.935219046450    -0.182240368581    14.003074004430
         C           -0.001626238977    -2.386819046450    -0.442440368581    12.000000000000
         C            1.116373761023    -0.272119046450     0.105859631419    12.000000000000
         C            3.607973761023     0.966880953550     0.628359631419    12.000000000000
         C            3.557673761023    -0.219919046450    -0.036140368581    12.000000000000
         C            2.408473761023     1.547480953550     1.040259631419    12.000000000000
         C            2.336773761023    -0.821119046450    -0.289340368581    12.000000000000
         C            1.208073761023     0.929080953550     0.776859631419    12.000000000000
         O           -1.506726238977     0.880080953550    -0.064340368581    15.994914619570
         H            0.616873761023    -2.873719046450     0.313259631419     1.007825032230
         H            0.455273761023    -2.483519046450    -1.439840368581     1.007825032230
         H           -1.017926238977    -2.866719046450    -0.384940368581     1.007825032230
         N           -3.748826238977    -0.311319046450    -0.506340368581    14.003074004430
         H           -2.754826238977    -1.967119046450     0.196859631419     1.007825032230
         H           -2.451426238977    -1.572219046450    -1.549340368581     1.007825032230
         H            4.483973761023    -0.710919046450    -0.367240368581     1.007825032230
         H            2.453073761023     2.482680953550     1.561759631419     1.007825032230
         H            2.293273761023    -1.769019046450    -0.820140368581     1.007825032230
         H            0.305173761023     1.434280953550     1.134759631419     1.007825032230
         N            4.804273761023     1.655880953550     0.914959631419    14.003074004430
         C           -4.163526238977     0.259280953550     0.713059631419    12.000000000000
         C           -4.272726238977     0.191080953550    -1.712540368581    12.000000000000
         H            4.835973761023     2.529180953550     1.483759631419     1.007825032230
         H           -3.580926238977     1.186880953550     0.952159631419     1.007825032230
         H           -3.919526238977    -0.462019046450     1.539159631419     1.007825032230
         H           -4.383026238977    -0.622819046450    -2.452340368581     1.007825032230
         H           -3.591826238977     0.993580953550    -2.122140368581     1.007825032230
         H            5.649473761023     1.295480953550     0.561359631419     1.007825032230
         H           -5.206826238977     0.481580953550     0.629159631419     1.007825032230
         H           -5.237126238977     0.612580953550    -1.519540368581     1.007825032230

  Running in c1 symmetry.

  Rotational constants: A =      0.05373  B =      0.00884  C =      0.00800 [cm^-1]
  Rotational constants: A =   1610.67682  B =    265.13796  C =    239.77744 [MHz]
  Nuclear repulsion =  993.163059401260625

  Charge       = 0
  Multiplicity = 1
  Electrons    = 112
  Nalpha       = 56
  Nbeta        = 56

  ==> Algorithm <==

  SCF Algorithm Type is DF.
  DIIS enabled.
  MOM disabled.
  Fractional occupation disabled.
  Guess Type is SAD.
  Energy threshold   = 1.00e-06
  Density threshold  = 1.00e-06
  Integral threshold = 0.00e+00

  ==> Primary Basis <==

  Basis Set: MINIX
    Blend: MINIX
    Number of shells: 62
    Number of basis function: 92
    Number of Cartesian functions: 92
    Spherical Harmonics?: true
    Max angular momentum: 1

   => Loading Basis Set <=

    Name: (MINIX AUX)
    Role: JKFIT
    Keyword: DF_BASIS_SCF
    atoms 1-2, 4-10, 23-24    entry C          line   203 file /home/bdw2292/miniconda3/envs/amoebamdpoltype/share/psi4/basis/def2-svp-jkfit.gbs 
    atoms 3, 15, 22           entry N          line   263 file /home/bdw2292/miniconda3/envs/amoebamdpoltype/share/psi4/basis/def2-svp-jkfit.gbs 
    atoms 11                  entry O          line   323 file /home/bdw2292/miniconda3/envs/amoebamdpoltype/share/psi4/basis/def2-svp-jkfit.gbs 
    atoms 12-14, 16-21, 25-32 entry H          line    23 file /home/bdw2292/miniconda3/envs/amoebamdpoltype/share/psi4/basis/def2-svp-jkfit.gbs 

  ==> Pre-Iterations <==

   -------------------------------------------------------
    Irrep   Nso     Nmo     Nalpha   Nbeta   Ndocc  Nsocc
   -------------------------------------------------------
     A         92      92       0       0       0       0
   -------------------------------------------------------
    Total      92      92      56      56      56       0
   -------------------------------------------------------

  ==> Integral Setup <==

  DFHelper Memory: AOs need 0.097 GiB; user supplied 69.849 GiB. Using in-core AOs.

  ==> MemDFJK: Density-Fitted J/K Matrices <==

    J tasked:                   Yes
    K tasked:                   Yes
    wK tasked:                   No
    OpenMP threads:              12
    Memory [MiB]:             71525
    Algorithm:                 Core
    Schwarz Cutoff:           1E-12
    Mask sparsity (%):      12.7363
    Fitting Condition:        1E-10

   => Auxiliary Basis Set <=

  Basis Set: (MINIX AUX)
    Blend: DEF2-SVP-JKFIT
    Number of shells: 477
    Number of basis function: 1439
    Number of Cartesian functions: 1691
    Spherical Harmonics?: true
    Max angular momentum: 4

  Minimum eigenvalue in the overlap matrix is 1.6477989922E-01.
  Using Symmetric Orthogonalization.

  SCF Guess: Superposition of Atomic Densities via on-the-fly atomic UHF.

  ==> Iterations <==

                           Total Energy        Delta E     RMS |[F,P]|

   @DF-RHF iter SAD:  -652.58887950759390   -6.52589e+02   0.00000e+00 
   @DF-RHF iter   1:  -659.83158091813823   -7.24270e+00   5.75720e-03 DIIS
   @DF-RHF iter   2:  -659.95612228896891   -1.24541e-01   4.43476e-03 DIIS
   @DF-RHF iter   3:  -660.04224851558024   -8.61262e-02   4.63903e-04 DIIS
   @DF-RHF iter   4:  -660.04479751663837   -2.54900e-03   2.07159e-04 DIIS
   @DF-RHF iter   5:  -660.04519268009574   -3.95163e-04   6.49721e-05 DIIS
   @DF-RHF iter   6:  -660.04525019781158   -5.75177e-05   2.74645e-05 DIIS
   @DF-RHF iter   7:  -660.04525851933579   -8.32152e-06   9.23564e-06 DIIS
   @DF-RHF iter   8:  -660.04525951990217   -1.00057e-06   2.98712e-06 DIIS
   @DF-RHF iter   9:  -660.04525962503863   -1.05136e-07   8.37132e-07 DIIS
  Energy and wave function converged.


  ==> Post-Iterations <==

    Orbital Energies [Eh]
    ---------------------

    Doubly Occupied:                                                      

       1A    -20.264312     2A    -15.443185     3A    -15.381382  
       4A    -15.365754     5A    -11.296867     6A    -11.225810  
       7A    -11.215585     8A    -11.213664     9A    -11.205891  
      10A    -11.175377    11A    -11.167663    12A    -11.164710  
      13A    -11.161372    14A    -11.157693    15A    -11.151243  
      16A     -1.356470    17A     -1.239107    18A     -1.228028  
      19A     -1.196060    20A     -1.117378    21A     -1.016072  
      22A     -1.013045    23A     -0.980721    24A     -0.952967  
      25A     -0.938136    26A     -0.844103    27A     -0.829382  
      28A     -0.791587    29A     -0.738569    30A     -0.698373  
      31A     -0.686748    32A     -0.670129    33A     -0.661612  
      34A     -0.643202    35A     -0.636606    36A     -0.628438  
      37A     -0.608786    38A     -0.598578    39A     -0.580688  
      40A     -0.569259    41A     -0.552453    42A     -0.549008  
      43A     -0.543646    44A     -0.538207    45A     -0.528467  
      46A     -0.512696    47A     -0.509078    48A     -0.498632  
      49A     -0.491171    50A     -0.471345    51A     -0.444032  
      52A     -0.386685    53A     -0.364486    54A     -0.344568  
      55A     -0.305000    56A     -0.264247  

    Virtual:                                                              

      57A      0.194428    58A      0.206500    59A      0.262666  
      60A      0.457326    61A      0.473981    62A      0.520454  
      63A      0.531685    64A      0.555175    65A      0.573356  
      66A      0.598346    67A      0.611904    68A      0.629454  
      69A      0.640383    70A      0.666981    71A      0.669213  
      72A      0.674820    73A      0.685681    74A      0.694793  
      75A      0.695389    76A      0.707325    77A      0.718907  
      78A      0.726545    79A      0.733355    80A      0.748214  
      81A      0.780204    82A      0.784286    83A      0.808872  
      84A      0.845557    85A      0.853274    86A      0.882908  
      87A      0.900644    88A      0.917800    89A      0.945374  
      90A      0.965098    91A      1.104497    92A      1.146792  

    Final Occupation by Irrep:
              A 
    DOCC [    56 ]

  @DF-RHF Final Energy:  -660.04525962503863

   => Energetics <=

    Nuclear Repulsion Energy =            993.1630594012606252
    One-Electron Energy =               -2870.1801530243442357
    Two-Electron Energy =                1216.9718339980449855
    Total Energy =                       -660.0452596250386250

Computation Completed


Properties will be evaluated at   0.000000,  -0.000000,  -0.000000 [a0]

Properties computed using the HF density matrix

  Nuclear Dipole Moment: [e a0]
     X:   -10.3694      Y:    -4.0392      Z:    -2.1415

  Electronic Dipole Moment: [e a0]
     X:    10.9304      Y:     3.0431      Z:     2.0792

  Dipole Moment: [e a0]
     X:     0.5610      Y:    -0.9960      Z:    -0.0623     Total:     1.1448

  Dipole Moment: [D]
     X:     1.4259      Y:    -2.5317      Z:    -0.1583     Total:     2.9099


*** tstop() called on node44.bme.utexas.edu at Tue Nov  9 09:47:35 2021
Module time:
	user time   =      32.89 seconds =       0.55 minutes
	system time =       1.58 seconds =       0.03 minutes
	total time  =          5 seconds =       0.08 minutes
Total time:
	user time   =      32.89 seconds =       0.55 minutes
	system time =       1.58 seconds =       0.03 minutes
	total time  =          5 seconds =       0.08 minutes
  ==> One Electron Grid Properties (v2.0) <==

  ==> CubicScalarGrid <==

    Filepath     = .
    Total Points =          1057968
    XYZ Blocking =               10
    X Points     =              144
    Y Points     =               93
    Z Points     =               79
    X Spacing    =        2.000E-01
    Y Spacing    =        2.000E-01
    Z Spacing    =        2.000E-01
    X Minimum    =       -1.391E+01
    Y Minimum    =       -9.526E+00
    Z Minimum    =       -8.641E+00
    X Maximum    =        1.469E+01
    Y Maximum    =        8.874E+00
    Z Maximum    =        6.959E+00

  Basis Set: MINIX
    Blend: MINIX
    Number of shells: 62
    Number of basis function: 92
    Number of Cartesian functions: 92
    Spherical Harmonics?: true
    Max angular momentum: 1



Properties will be evaluated at   0.000000,  -0.000000,  -0.000000 [a0]
OEProp: No title given, name of density matrix used for the following properties is 'SCF density'
  Mulliken Charges: (a.u.)
   Center  Symbol    Alpha    Beta     Spin     Total
       1     C     3.06489  3.06489  0.00000 -0.12979
       2     C     2.81317  2.81317  0.00000  0.37366
       3     N     3.65997  3.65997  0.00000 -0.31994
       4     C     3.12013  3.12013  0.00000 -0.24025
       5     C     2.96138  2.96138  0.00000  0.07725
       6     C     2.94840  2.94840  0.00000  0.10321
       7     C     3.08619  3.08619  0.00000 -0.17238
       8     C     3.08021  3.08021  0.00000 -0.16043
       9     C     3.06713  3.06713  0.00000 -0.13425
      10     C     3.06451  3.06451  0.00000 -0.12902
      11     O     4.21301  4.21301  0.00000 -0.42603
      12     H     0.43028  0.43028  0.00000  0.13944
      13     H     0.43355  0.43355  0.00000  0.13290
      14     H     0.43056  0.43056  0.00000  0.13888
      15     N     3.66913  3.66913  0.00000 -0.33826
      16     H     0.43213  0.43213  0.00000  0.13575
      17     H     0.42809  0.42809  0.00000  0.14381
      18     H     0.43329  0.43329  0.00000  0.13342
      19     H     0.43391  0.43391  0.00000  0.13219
      20     H     0.43414  0.43414  0.00000  0.13172
      21     H     0.41586  0.41586  0.00000  0.16828
      22     N     3.75285  3.75285  0.00000 -0.50569
      23     C     3.11739  3.11739  0.00000 -0.23477
      24     C     3.11801  3.11801  0.00000 -0.23603
      25     H     0.37906  0.37906  0.00000  0.24189
      26     H     0.43319  0.43319  0.00000  0.13363
      27     H     0.44144  0.44144  0.00000  0.11712
      28     H     0.44109  0.44109  0.00000  0.11782
      29     H     0.43958  0.43958  0.00000  0.12084
      30     H     0.38225  0.38225  0.00000  0.23550
      31     H     0.43903  0.43903  0.00000  0.12194
      32     H     0.43620  0.43620  0.00000  0.12760

   Total alpha = 56.00000, Total beta = 56.00000, Total charge =  0.00000



  Wiberg Bond Indices using Orthogonal Lowdin Orbitals:

  Irrep: 1 Size: 32 x 32

                 1                   2                   3                   4                   5

    1     0.00000000000000     0.97651589100585     0.00513540883625     0.00274836045950     0.00706149995279
    2     0.97651589100585     0.00000000000000     1.11935909862876     0.00155519647401     0.00175015141529
    3     0.00513540883625     1.11935909862876     0.00000000000000     0.98928497135976     1.03541280354065
    4     0.00274836045950     0.00155519647401     0.98928497135976     0.00000000000000     0.00154152245066
    5     0.00706149995279     0.00175015141529     1.03541280354065     0.00154152245066     0.00000000000000
    6     0.00004913361438     0.00205789578799     0.00894011967125     0.00044354479399     0.09038241738696
    7     0.00016730523143     0.00080324463242     0.00596632410834     0.00032409362612     0.00796942142821
    8     0.00009494965691     0.00015546237615     0.00681506577308     0.00060324448072     0.00554291443981
    9     0.00047434768094     0.00991179647988     0.02501898924069     0.00351436511211     1.40080387663499
   10     0.00021963647364     0.00483153854752     0.02183919825077     0.00686890972713     1.37453537683433
   11     0.03374607080730     1.79040242855652     0.13941094477792     0.00979087161355     0.00273145928764
   12     0.00009405264468     0.00382302188221     0.00540839215185     0.97695729470438     0.00082344435919
   13     0.00003990136768     0.00298677843449     0.00775238188516     0.97570988670632     0.00042720985800
   14     0.00227212867213     0.00162660311681     0.00086530480914     0.97567596893119     0.00506265680994
   15     1.02183812245815     0.02745564443839     0.00720203538549     0.00155571074659     0.00111864270182
   16     0.95140600815912     0.00202461669054     0.00183535222103     0.00065676489760     0.00001890161914
   17     0.95385625091851     0.00357012038557     0.00210972926646     0.00039506960274     0.00002312391339
   18     0.00003568584224     0.00016800567820     0.00034192406292     0.00004624068147     0.00721180584735
   19     0.00000043787697     0.00000659285728     0.00034616623979     0.00017622451103     0.00692818259110
   20     0.00004067410273     0.00013840434938     0.00373918794916     0.00174436980090     0.00056940233671
   21     0.00000497281735     0.00026101448086     0.00354471431285     0.00011304924930     0.00084646623270
   22     0.00001540288569     0.00067841255388     0.00170612028637     0.00011690531629     0.02101142643244
   23     0.00196851431466     0.00061757401112     0.00008489987235     0.00005426105880     0.00000446092675
   24     0.00173754111408     0.00112651329885     0.00017027074241     0.00007171467529     0.00003440377307
   25     0.00000013889472     0.00000084016510     0.00000751683410     0.00000261509463     0.00003948587144
   26     0.00058712044675     0.00090680759258     0.00003834466850     0.00001163264305     0.00003683754311
   27     0.00145866525965     0.00026661456981     0.00000454812244     0.00001530006169     0.00000461131436
   28     0.00096411734586     0.00032484746991     0.00001647958266     0.00001299949205     0.00000708574900
   29     0.00025667679329     0.00098473670464     0.00011112424946     0.00000581491940     0.00003870305138
   30     0.00000039025881     0.00000010177039     0.00000960406205     0.00000063761992     0.00003100630344
   31     0.00570011992837     0.00032606832618     0.00016775726438     0.00000954015732     0.00002041646607
   32     0.00689344442234     0.00028561162477     0.00014174900532     0.00001968358617     0.00002528237745

                 6                   7                   8                   9                  10

    1     0.00004913361438     0.00016730523143     0.00009494965691     0.00047434768094     0.00021963647364
    2     0.00205789578799     0.00080324463242     0.00015546237615     0.00991179647988     0.00483153854752
    3     0.00894011967125     0.00596632410834     0.00681506577308     0.02501898924069     0.02183919825077
    4     0.00044354479399     0.00032409362612     0.00060324448072     0.00351436511211     0.00686890972713
    5     0.09038241738696     0.00796942142821     0.00554291443981     1.40080387663499     1.37453537683433
    6     0.00000000000000     1.39980766766357     1.34638720464984     0.00469687487260     0.00368417765145
    7     1.39980766766357     0.00000000000000     0.00646026784607     1.43014227102355     0.10043668433615
    8     1.34638720464984     0.00646026784607     0.00000000000000     0.11301589970359     1.47651351122022
    9     0.00469687487260     1.43014227102355     0.11301589970359     0.00000000000000     0.00554003122888
   10     0.00368417765145     0.10043668433615     1.47651351122022     0.00554003122888     0.00000000000000
   11     0.00348873712708     0.00023756877843     0.00081248966290     0.00639487476310     0.00995858742799
   12     0.00016748023304     0.00006225998635     0.00004424531861     0.00128404256852     0.00024854453451
   13     0.00029640047785     0.00001631940153     0.00000383132071     0.00129135892915     0.00038343755236
   14     0.00015078180538     0.00005348180969     0.00014304906515     0.00131966770382     0.00043080221826
   15     0.00003129314396     0.00005732307415     0.00000640890520     0.00024230840407     0.00005786459134
   16     0.00005056993439     0.00000940412770     0.00000478681332     0.00010811257110     0.00011183744353
   17     0.00005456500854     0.00001059023602     0.00000362682269     0.00011300608542     0.00009248813647
   18     0.00070926982351     0.96519573433885     0.00800245589307     0.00103137400627     0.00029193466240
   19     0.00054283078923     0.00593189081037     0.96830105054860     0.00036868912342     0.00139279347402
   20     0.00692745163885     0.00109131745371     0.00051920068458     0.96478310446717     0.00640604999768
   21     0.00764779699746     0.00043231050676     0.00146916446474     0.00726570349027     0.95768213356004
   22     1.10254893306655     0.04523150582356     0.03841575897232     0.00809732488195     0.00761309759253
   23     0.00000408788809     0.00000026811592     0.00000082152931     0.00000577313823     0.00000967899403
   24     0.00000049347955     0.00000236974933     0.00000015854410     0.00000756929494     0.00000208644544
   25     0.00037409684360     0.00585572984185     0.00171335660524     0.00063770830310     0.00004571761096
   26     0.00000063526866     0.00000118094241     0.00000017571967     0.00000406395270     0.00000167345723
   27     0.00000008400048     0.00000008220720     0.00000007260660     0.00000056137930     0.00000025716392
   28     0.00000031458451     0.00000017634838     0.00000010349275     0.00000135097984     0.00000054344233
   29     0.00000154730671     0.00000154532637     0.00000020199083     0.00000734843387     0.00000260319606
   30     0.00006781547613     0.00120534549127     0.00571257645134     0.00002790258234     0.00061266875435
   31     0.00000297329768     0.00000101249422     0.00000046613525     0.00000637670078     0.00000572627246
   32     0.00000006357644     0.00000166584446     0.00000018700828     0.00000471737744     0.00000060494579

                11                  12                  13                  14                  15

    1     0.03374607080730     0.00009405264468     0.00003990136768     0.00227212867213     1.02183812245815
    2     1.79040242855652     0.00382302188221     0.00298677843449     0.00162660311681     0.02745564443839
    3     0.13941094477792     0.00540839215185     0.00775238188516     0.00086530480914     0.00720203538549
    4     0.00979087161355     0.97695729470438     0.97570988670632     0.97567596893119     0.00155571074659
    5     0.00273145928764     0.00082344435919     0.00042720985800     0.00506265680994     0.00111864270182
    6     0.00348873712708     0.00016748023304     0.00029640047785     0.00015078180538     0.00003129314396
    7     0.00023756877843     0.00006225998635     0.00001631940153     0.00005348180969     0.00005732307415
    8     0.00081248966290     0.00004424531861     0.00000383132071     0.00014304906515     0.00000640890520
    9     0.00639487476310     0.00128404256852     0.00129135892915     0.00131966770382     0.00024230840407
   10     0.00995858742799     0.00024854453451     0.00038343755236     0.00043080221826     0.00005786459134
   11     0.00000000000000     0.00186873666878     0.00258104731984     0.00052952311227     0.00453468607727
   12     0.00186873666878     0.00000000000000     0.00017937949500     0.00107236615134     0.00005299222914
   13     0.00258104731984     0.00017937949500     0.00000000000000     0.00026276182990     0.00000634070824
   14     0.00052952311227     0.00107236615134     0.00026276182990     0.00000000000000     0.00013758805852
   15     0.00453468607727     0.00005299222914     0.00000634070824     0.00013758805852     0.00000000000000
   16     0.01449991465943     0.00001581621631     0.00002772659044     0.00146448845102     0.01166131702050
   17     0.01476391778195     0.00000010547733     0.00004656175578     0.00016217016151     0.00276646293888
   18     0.00001684259976     0.00000174727103     0.00000902042504     0.00001057395705     0.00001258169564
   19     0.00006253179340     0.00000746022174     0.00000012373574     0.00002467601289     0.00000083241466
   20     0.00002985224647     0.00011732845241     0.00102553208658     0.00000984197557     0.00002181148331
   21     0.00262826098427     0.00000710382315     0.00000321347658     0.00002590507166     0.00002269543794
   22     0.00092962438494     0.00003628002204     0.00006055434272     0.00002620330674     0.00000719775188
   23     0.00206004841796     0.00001371581008     0.00000158914078     0.00000163300471     1.01282090131983
   24     0.00023658216895     0.00000069484750     0.00000159119010     0.00001734026301     1.01568612818945
   25     0.00000126847087     0.00000010315618     0.00000073480157     0.00000224783508     0.00000017154206
   26     0.00167053259135     0.00000004531744     0.00000014560332     0.00000036996040     0.02209587151923
   27     0.00005542684433     0.00000126346676     0.00000014579857     0.00000077760005     0.00594441459010
   28     0.00005438420431     0.00000057670124     0.00000012165440     0.00000000286318     0.00913213769103
   29     0.00005768233371     0.00000029900910     0.00000000397315     0.00000061825009     0.02114794760547
   30     0.00000733089238     0.00000000371392     0.00000012547584     0.00000052140759     0.00000000645144
   31     0.00030815468655     0.00000032286404     0.00000006388876     0.00000005236465     0.00535240232181
   32     0.00003437162339     0.00000026103314     0.00000015265987     0.00000096892331     0.00285340600904

                16                  17                  18                  19                  20

    1     0.95140600815912     0.95385625091851     0.00003568584224     0.00000043787697     0.00004067410273
    2     0.00202461669054     0.00357012038557     0.00016800567820     0.00000659285728     0.00013840434938
    3     0.00183535222103     0.00210972926646     0.00034192406292     0.00034616623979     0.00373918794916
    4     0.00065676489760     0.00039506960274     0.00004624068147     0.00017622451103     0.00174436980090
    5     0.00001890161914     0.00002312391339     0.00721180584735     0.00692818259110     0.00056940233671
    6     0.00005056993439     0.00005456500854     0.00070926982351     0.00054283078923     0.00692745163885
    7     0.00000940412770     0.00001059023602     0.96519573433885     0.00593189081037     0.00109131745371
    8     0.00000478681332     0.00000362682269     0.00800245589307     0.96830105054860     0.00051920068458
    9     0.00010811257110     0.00011300608542     0.00103137400627     0.00036868912342     0.96478310446717
   10     0.00011183744353     0.00009248813647     0.00029193466240     0.00139279347402     0.00640604999768
   11     0.01449991465943     0.01476391778195     0.00001684259976     0.00006253179340     0.00002985224647
   12     0.00001581621631     0.00000010547733     0.00000174727103     0.00000746022174     0.00011732845241
   13     0.00002772659044     0.00004656175578     0.00000902042504     0.00000012373574     0.00102553208658
   14     0.00146448845102     0.00016217016151     0.00001057395705     0.00002467601289     0.00000984197557
   15     0.01166131702050     0.00276646293888     0.00001258169564     0.00000083241466     0.00002181148331
   16     0.00000000000000     0.00119331326999     0.00000001029688     0.00000000803464     0.00000038621324
   17     0.00119331326999     0.00000000000000     0.00000023018922     0.00000003794973     0.00000004451473
   18     0.00000001029688     0.00000023018922     0.00000000000000     0.00073107171658     0.00430961620384
   19     0.00000000803464     0.00000003794973     0.00073107171658     0.00000000000000     0.00003650676485
   20     0.00000038621324     0.00000004451473     0.00430961620384     0.00003650676485     0.00000000000000
   21     0.00000175832390     0.00000002694842     0.00008832002909     0.00423190911506     0.00084549015859
   22     0.00001735905805     0.00001857122184     0.00379360262757     0.00333012256472     0.00040220793189
   23     0.00072028756328     0.00779290719087     0.00000002099546     0.00000000854641     0.00000003641569
   24     0.00440106354977     0.00231130467091     0.00000034879355     0.00000001537675     0.00000046300155
   25     0.00000000077679     0.00000002209737     0.00011839125704     0.00064956730522     0.00020738955878
   26     0.00055237246990     0.00008590538483     0.00000036809044     0.00000001989885     0.00000042031362
   27     0.00091328987460     0.00029084453951     0.00000005020754     0.00000000004570     0.00000003247700
   28     0.00037158611043     0.00058900337448     0.00000007969839     0.00000000126355     0.00000007471304
   29     0.00021882644876     0.00009856380902     0.00000043635517     0.00000002899620     0.00000056808007
   30     0.00000002607152     0.00000000000859     0.00056009021385     0.00015885227175     0.00001266373245
   31     0.00028485683219     0.00025922992613     0.00000015808485     0.00000002345449     0.00000037225423
   32     0.00012726987576     0.00028132819119     0.00000032214010     0.00000000654409     0.00000049779554

                21                  22                  23                  24                  25

    1     0.00000497281735     0.00001540288569     0.00196851431466     0.00173754111408     0.00000013889472
    2     0.00026101448086     0.00067841255388     0.00061757401112     0.00112651329885     0.00000084016510
    3     0.00354471431285     0.00170612028637     0.00008489987235     0.00017027074241     0.00000751683410
    4     0.00011304924930     0.00011690531629     0.00005426105880     0.00007171467529     0.00000261509463
    5     0.00084646623270     0.02101142643244     0.00000446092675     0.00003440377307     0.00003948587144
    6     0.00764779699746     1.10254893306655     0.00000408788809     0.00000049347955     0.00037409684360
    7     0.00043231050676     0.04523150582356     0.00000026811592     0.00000236974933     0.00585572984185
    8     0.00146916446474     0.03841575897232     0.00000082152931     0.00000015854410     0.00171335660524
    9     0.00726570349027     0.00809732488195     0.00000577313823     0.00000756929494     0.00063770830310
   10     0.95768213356004     0.00761309759253     0.00000967899403     0.00000208644544     0.00004571761096
   11     0.00262826098427     0.00092962438494     0.00206004841796     0.00023658216895     0.00000126847087
   12     0.00000710382315     0.00003628002204     0.00001371581008     0.00000069484750     0.00000010315618
   13     0.00000321347658     0.00006055434272     0.00000158914078     0.00000159119010     0.00000073480157
   14     0.00002590507166     0.00002620330674     0.00000163300471     0.00001734026301     0.00000224783508
   15     0.00002269543794     0.00000719775188     1.01282090131983     1.01568612818945     0.00000017154206
   16     0.00000175832390     0.00001735905805     0.00072028756328     0.00440106354977     0.00000000077679
   17     0.00000002694842     0.00001857122184     0.00779290719087     0.00231130467091     0.00000002209737
   18     0.00008832002909     0.00379360262757     0.00000002099546     0.00000034879355     0.00011839125704
   19     0.00423190911506     0.00333012256472     0.00000000854641     0.00000001537675     0.00064956730522
   20     0.00084549015859     0.00040220793189     0.00000003641569     0.00000046300155     0.00020738955878
   21     0.00000000000000     0.00032697193550     0.00000007690603     0.00000054132441     0.00002710515995
   22     0.00032697193550     0.00000000000000     0.00000102287852     0.00000013869961     0.95968928089232
   23     0.00000007690603     0.00000102287852     0.00000000000000     0.00237556643891     0.00000000223477
   24     0.00000054132441     0.00000013869961     0.00237556643891     0.00000000000000     0.00000000582193
   25     0.00002710515995     0.95968928089232     0.00000000223477     0.00000000582193     0.00000000000000
   26     0.00000000181615     0.00000007200298     0.96577876331465     0.00008918422187     0.00000000192853
   27     0.00000000252554     0.00000001927414     0.97707657269847     0.00665489055102     0.00000000001961
   28     0.00000001713391     0.00000007411445     0.00530080886836     0.97601022164245     0.00000000003724
   29     0.00000022122471     0.00000037903604     0.00045771280960     0.96968304291638     0.00000000340740
   30     0.00018506773101     0.96550142362623     0.00000000217199     0.00000000188134     0.00023858456398
   31     0.00000043666045     0.00000065961512     0.97851419810904     0.00112545090073     0.00000000473181
   32     0.00000043121860     0.00000003119004     0.00178347984015     0.97820801677684     0.00000000383136

                26                  27                  28                  29                  30

    1     0.00058712044675     0.00145866525965     0.00096411734586     0.00025667679329     0.00000039025881
    2     0.00090680759258     0.00026661456981     0.00032484746991     0.00098473670464     0.00000010177039
    3     0.00003834466850     0.00000454812244     0.00001647958266     0.00011112424946     0.00000960406205
    4     0.00001163264305     0.00001530006169     0.00001299949205     0.00000581491940     0.00000063761992
    5     0.00003683754311     0.00000461131436     0.00000708574900     0.00003870305138     0.00003100630344
    6     0.00000063526866     0.00000008400048     0.00000031458451     0.00000154730671     0.00006781547613
    7     0.00000118094241     0.00000008220720     0.00000017634838     0.00000154532637     0.00120534549127
    8     0.00000017571967     0.00000007260660     0.00000010349275     0.00000020199083     0.00571257645134
    9     0.00000406395270     0.00000056137930     0.00000135097984     0.00000734843387     0.00002790258234
   10     0.00000167345723     0.00000025716392     0.00000054344233     0.00000260319606     0.00061266875435
   11     0.00167053259135     0.00005542684433     0.00005438420431     0.00005768233371     0.00000733089238
   12     0.00000004531744     0.00000126346676     0.00000057670124     0.00000029900910     0.00000000371392
   13     0.00000014560332     0.00000014579857     0.00000012165440     0.00000000397315     0.00000012547584
   14     0.00000036996040     0.00000077760005     0.00000000286318     0.00000061825009     0.00000052140759
   15     0.02209587151923     0.00594441459010     0.00913213769103     0.02114794760547     0.00000000645144
   16     0.00055237246990     0.00091328987460     0.00037158611043     0.00021882644876     0.00000002607152
   17     0.00008590538483     0.00029084453951     0.00058900337448     0.00009856380902     0.00000000000859
   18     0.00000036809044     0.00000005020754     0.00000007969839     0.00000043635517     0.00056009021385
   19     0.00000001989885     0.00000000004570     0.00000000126355     0.00000002899620     0.00015885227175
   20     0.00000042031362     0.00000003247700     0.00000007471304     0.00000056808007     0.00001266373245
   21     0.00000000181615     0.00000000252554     0.00000001713391     0.00000022122471     0.00018506773101
   22     0.00000007200298     0.00000001927414     0.00000007411445     0.00000037903604     0.96550142362623
   23     0.96577876331465     0.97707657269847     0.00530080886836     0.00045771280960     0.00000000217199
   24     0.00008918422187     0.00665489055102     0.97601022164245     0.96968304291638     0.00000000188134
   25     0.00000000192853     0.00000000001961     0.00000000003724     0.00000000340740     0.00023858456398
   26     0.00000000000000     0.00018366492612     0.00024731844454     0.00086955827659     0.00000000020496
   27     0.00018366492612     0.00000000000000     0.00018108181038     0.00030034594869     0.00000000071838
   28     0.00024731844454     0.00018108181038     0.00000000000000     0.00000087164652     0.00000000058645
   29     0.00086955827659     0.00030034594869     0.00000087164652     0.00000000000000     0.00000000010817
   30     0.00000000020496     0.00000000071838     0.00000000058645     0.00000000010817     0.00000000000000
   31     0.00012511363509     0.00085761038625     0.00031757676757     0.00023040218660     0.00000000029780
   32     0.00014346884002     0.00035682792210     0.00132347375221     0.00034959539287     0.00000000068411

                31                  32

    1     0.00570011992837     0.00689344442234
    2     0.00032606832618     0.00028561162477
    3     0.00016775726438     0.00014174900532
    4     0.00000954015732     0.00001968358617
    5     0.00002041646607     0.00002528237745
    6     0.00000297329768     0.00000006357644
    7     0.00000101249422     0.00000166584446
    8     0.00000046613525     0.00000018700828
    9     0.00000637670078     0.00000471737744
   10     0.00000572627246     0.00000060494579
   11     0.00030815468655     0.00003437162339
   12     0.00000032286404     0.00000026103314
   13     0.00000006388876     0.00000015265987
   14     0.00000005236465     0.00000096892331
   15     0.00535240232181     0.00285340600904
   16     0.00028485683219     0.00012726987576
   17     0.00025922992613     0.00028132819119
   18     0.00000015808485     0.00000032214010
   19     0.00000002345449     0.00000000654409
   20     0.00000037225423     0.00000049779554
   21     0.00000043666045     0.00000043121860
   22     0.00000065961512     0.00000003119004
   23     0.97851419810904     0.00178347984015
   24     0.00112545090073     0.97820801677684
   25     0.00000000473181     0.00000000383136
   26     0.00012511363509     0.00014346884002
   27     0.00085761038625     0.00035682792210
   28     0.00031757676757     0.00132347375221
   29     0.00023040218660     0.00034959539287
   30     0.00000000029780     0.00000000068411
   31     0.00000000000000     0.00093408028379
   32     0.00093408028379     0.00000000000000



  Atomic Valences: 

 #  #
 Irrep: 1
      1:  3.9753830
      2:  3.9549216
      3:  3.3927865
      4:  3.9500268
      5:  3.9720150
      6:  3.9795173
      7:  3.9774764
      8:  3.9807427
      9:  3.9861214
     10:  3.9798202
     11:  2.0439048
     12:  0.9922894
     13:  0.9931144
     14:  0.9913511
     15:  3.1738232
     16:  0.9926980
     17:  0.9908891
     18:  0.9926883
     19:  0.9932287
     20:  0.9929803
     21:  0.9876629
     22:  3.1595767
     23:  3.9574497
     24:  3.9599557
     25:  0.9696121
     26:  0.9934317
     27:  0.9945681
     28:  0.9948574
     29:  0.9948274
     30:  0.9743328
     31:  0.9945516
     32:  0.9937710


    Psi4 stopped on: Tuesday, 09 November 2021 09:48AM
    Psi4 wall time for execution: 0:00:43.45

*** Psi4 exiting successfully. Buy a developer a beer!
