Generated by Psi4
        SP                        DF-MP2                      6-311G**
Number of atoms                            I               17
Charge                                     I                0
Multiplicity                               I                1
Number of electrons                        I               74
Number of alpha electrons                  I               37
Number of beta electrons                   I               37
Number of basis functions                  I              206
Number of independent functions            I              206
Atomic numbers                             I   N=          17
          15           8           8           8           8           6
           6           6           1           1           1           1
           1           1           1           1           1
Nuclear charges                            R   N=          17
  1.50000000e+01  8.00000000e+00  8.00000000e+00  8.00000000e+00  8.00000000e+00
  6.00000000e+00  6.00000000e+00  6.00000000e+00  1.00000000e+00  1.00000000e+00
  1.00000000e+00  1.00000000e+00  1.00000000e+00  1.00000000e+00  1.00000000e+00
  1.00000000e+00  1.00000000e+00
Current cartesian coordinates              R   N=          51
  1.74425477e-01 -1.24315981e-01 -6.83799237e-01  2.40841908e+00  1.34051387e+00
  7.24382278e-01 -9.84933756e-01 -1.72983423e+00  1.62819289e+00 -1.81083998e+00
  2.09117076e+00 -1.17451812e+00  8.30839340e-01 -1.58966845e+00 -2.94370692e+00
  4.66202038e+00 -4.13012600e-02  1.29802862e+00 -2.94683189e+00 -3.49609806e+00
  1.04200389e+00 -2.52177134e+00  3.74258103e+00  8.44027109e-01  5.52529669e+00
 -7.50112547e-01 -4.39150688e-01  4.23956067e+00 -1.61669586e+00  2.57084219e+00
  5.93114412e+00  1.28529683e+00  2.23447837e+00 -4.54834697e+00 -2.53646946e+00
  1.45801848e-01 -3.55061866e+00 -4.31326463e+00  2.83565816e+00 -2.23710037e+00
 -4.97240369e+00 -2.15909903e-01 -3.12855376e+00  2.65936747e+00  2.49890439e+00
 -4.08923891e+00  4.87743981e+00  1.36397150e-01 -9.37388561e-01  4.96400650e+00
  1.35845950e+00
Integer atomic weights                     I   N=          17
          30          15          15          15          15          12
          12          12           1           1           1           1
           1           1           1           1           1
Real atomic weights                        R   N=          17
  3.09737620e+01  1.59949146e+01  1.59949146e+01  1.59949146e+01  1.59949146e+01
  1.20000000e+01  1.20000000e+01  1.20000000e+01  1.00782503e+00  1.00782503e+00
  1.00782503e+00  1.00782503e+00  1.00782503e+00  1.00782503e+00  1.00782503e+00
  1.00782503e+00  1.00782503e+00
Number of primitive shells                 I              196
Number of contracted shells                I              104
Pure/Cartesian d shells                    I                0
Pure/Cartesian f shells                    I                0
Highest angular momentum                   I                2
Largest degree of contraction              I                6
Shell types                                I   N=         104
           0           0           0           0           0           0
           1           1           1           1           1          -2
           0           0           1           0           1           0
           1          -2           0           0           1           0
           1           0           1          -2           0           0
           1           0           1           0           1          -2
           0           0           1           0           1           0
           1          -2           0           0           1           0
           1           0           1          -2           0           0
           1           0           1           0           1          -2
           0           0           1           0           1           0
           1          -2           0           0           0           1
           0           0           0           1           0           0
           0           1           0           0           0           1
           0           0           0           1           0           0
           0           1           0           0           0           1
           0           0           0           1           0           0
           0           1
Number of primitives per shell             I   N=         104
           6           3           1           1           1           1
           4           2           1           1           1           1
           6           3           3           1           1           1
           1           1           6           3           3           1
           1           1           1           1           6           3
           3           1           1           1           1           1
           6           3           3           1           1           1
           1           1           6           3           3           1
           1           1           1           1           6           3
           3           1           1           1           1           1
           6           3           3           1           1           1
           1           1           3           1           1           1
           3           1           1           1           3           1
           1           1           3           1           1           1
           3           1           1           1           3           1
           1           1           3           1           1           1
           3           1           1           1           3           1
           1           1
Shell to atom map                          I   N=         104
           1           1           1           1           1           1
           1           1           1           1           1           1
           2           2           2           2           2           2
           2           2           3           3           3           3
           3           3           3           3           4           4
           4           4           4           4           4           4
           5           5           5           5           5           5
           5           5           6           6           6           6
           6           6           6           6           7           7
           7           7           7           7           7           7
           8           8           8           8           8           8
           8           8           9           9           9           9
          10          10          10          10          11          11
          11          11          12          12          12          12
          13          13          13          13          14          14
          14          14          15          15          15          15
          16          16          16          16          17          17
          17          17
Primitive exponents                        R   N=         196
  7.74924000e+04  1.16058000e+04  2.64596000e+03  7.54976000e+02  2.48755000e+02
  9.11565000e+01  9.11565000e+01  3.62257000e+01  1.52113000e+01  4.79417000e+00
  1.80793000e+00  3.56816000e-01  1.14783000e-01  3.84843000e+02  9.05521000e+01
  2.91339000e+01  1.08862000e+01  4.35259000e+00  1.77706000e+00  6.97005000e-01
  2.53532000e-01  6.84930000e-02  5.50000000e-01  8.58850000e+03  1.29723000e+03
  2.99296000e+02  8.73771000e+01  2.56789000e+01  3.74004000e+00  4.21175000e+01
  9.62837000e+00  2.85332000e+00  4.21175000e+01  9.62837000e+00  2.85332000e+00
  9.05661000e-01  9.05661000e-01  2.55611000e-01  2.55611000e-01  1.29200000e+00
  8.58850000e+03  1.29723000e+03  2.99296000e+02  8.73771000e+01  2.56789000e+01
  3.74004000e+00  4.21175000e+01  9.62837000e+00  2.85332000e+00  4.21175000e+01
  9.62837000e+00  2.85332000e+00  9.05661000e-01  9.05661000e-01  2.55611000e-01
  2.55611000e-01  1.29200000e+00  8.58850000e+03  1.29723000e+03  2.99296000e+02
  8.73771000e+01  2.56789000e+01  3.74004000e+00  4.21175000e+01  9.62837000e+00
  2.85332000e+00  4.21175000e+01  9.62837000e+00  2.85332000e+00  9.05661000e-01
  9.05661000e-01  2.55611000e-01  2.55611000e-01  1.29200000e+00  8.58850000e+03
  1.29723000e+03  2.99296000e+02  8.73771000e+01  2.56789000e+01  3.74004000e+00
  4.21175000e+01  9.62837000e+00  2.85332000e+00  4.21175000e+01  9.62837000e+00
  2.85332000e+00  9.05661000e-01  9.05661000e-01  2.55611000e-01  2.55611000e-01
  1.29200000e+00  4.56324000e+03  6.82024000e+02  1.54973000e+02  4.44553000e+01
  1.30290000e+01  1.82773000e+00  2.09642000e+01  4.80331000e+00  1.45933000e+00
  2.09642000e+01  4.80331000e+00  1.45933000e+00  4.83456000e-01  4.83456000e-01
  1.45585000e-01  1.45585000e-01  6.26000000e-01  4.56324000e+03  6.82024000e+02
  1.54973000e+02  4.44553000e+01  1.30290000e+01  1.82773000e+00  2.09642000e+01
  4.80331000e+00  1.45933000e+00  2.09642000e+01  4.80331000e+00  1.45933000e+00
  4.83456000e-01  4.83456000e-01  1.45585000e-01  1.45585000e-01  6.26000000e-01
  4.56324000e+03  6.82024000e+02  1.54973000e+02  4.44553000e+01  1.30290000e+01
  1.82773000e+00  2.09642000e+01  4.80331000e+00  1.45933000e+00  2.09642000e+01
  4.80331000e+00  1.45933000e+00  4.83456000e-01  4.83456000e-01  1.45585000e-01
  1.45585000e-01  6.26000000e-01  3.38650000e+01  5.09479000e+00  1.15879000e+00
  3.25840000e-01  1.02741000e-01  7.50000000e-01  3.38650000e+01  5.09479000e+00
  1.15879000e+00  3.25840000e-01  1.02741000e-01  7.50000000e-01  3.38650000e+01
  5.09479000e+00  1.15879000e+00  3.25840000e-01  1.02741000e-01  7.50000000e-01
  3.38650000e+01  5.09479000e+00  1.15879000e+00  3.25840000e-01  1.02741000e-01
  7.50000000e-01  3.38650000e+01  5.09479000e+00  1.15879000e+00  3.25840000e-01
  1.02741000e-01  7.50000000e-01  3.38650000e+01  5.09479000e+00  1.15879000e+00
  3.25840000e-01  1.02741000e-01  7.50000000e-01  3.38650000e+01  5.09479000e+00
  1.15879000e+00  3.25840000e-01  1.02741000e-01  7.50000000e-01  3.38650000e+01
  5.09479000e+00  1.15879000e+00  3.25840000e-01  1.02741000e-01  7.50000000e-01
  3.38650000e+01  5.09479000e+00  1.15879000e+00  3.25840000e-01  1.02741000e-01
  7.50000000e-01
Contraction coefficients                   R   N=         196
  7.81000147e-04  6.06800114e-03  3.11600059e-02  1.23431023e-01  3.78209071e-01
  5.63262106e-01  1.60255011e-01  6.27647045e-01  2.63849019e-01  1.00000000e+00
  1.00000000e+00  1.00000000e+00  1.00000000e+00  9.20599888e-03  6.98739915e-02
  2.92469964e-01  7.28102911e-01  6.28348873e-01  4.28043913e-01  1.00000000e+00
  1.00000000e+00  1.00000000e+00  1.00000000e+00  1.89515008e-03  1.43859006e-02
  7.07320031e-02  2.40001011e-01  5.94797026e-01  2.80802012e-01  1.13889012e-01
  9.20811101e-01 -3.27447036e-03  3.65113974e-02  2.37152983e-01  8.19701941e-01
  1.00000000e+00  1.00000000e+00  1.00000000e+00  1.00000000e+00  1.00000000e+00
  1.89515008e-03  1.43859006e-02  7.07320031e-02  2.40001011e-01  5.94797026e-01
  2.80802012e-01  1.13889012e-01  9.20811101e-01 -3.27447036e-03  3.65113974e-02
  2.37152983e-01  8.19701941e-01  1.00000000e+00  1.00000000e+00  1.00000000e+00
  1.00000000e+00  1.00000000e+00  1.89515008e-03  1.43859006e-02  7.07320031e-02
  2.40001011e-01  5.94797026e-01  2.80802012e-01  1.13889012e-01  9.20811101e-01
 -3.27447036e-03  3.65113974e-02  2.37152983e-01  8.19701941e-01  1.00000000e+00
  1.00000000e+00  1.00000000e+00  1.00000000e+00  1.00000000e+00  1.89515008e-03
  1.43859006e-02  7.07320031e-02  2.40001011e-01  5.94797026e-01  2.80802012e-01
  1.13889012e-01  9.20811101e-01 -3.27447036e-03  3.65113974e-02  2.37152983e-01
  8.19701941e-01  1.00000000e+00  1.00000000e+00  1.00000000e+00  1.00000000e+00
  1.00000000e+00  1.96665025e-03  1.52306019e-02  7.61269097e-02  2.60801033e-01
  6.16462078e-01  2.21006028e-01  1.14660081e-01  9.19999648e-01 -3.03068213e-03
  4.02486927e-02  2.37593957e-01  8.15853851e-01  1.00000000e+00  1.00000000e+00
  1.00000000e+00  1.00000000e+00  1.00000000e+00  1.96665025e-03  1.52306019e-02
  7.61269097e-02  2.60801033e-01  6.16462078e-01  2.21006028e-01  1.14660081e-01
  9.19999648e-01 -3.03068213e-03  4.02486927e-02  2.37593957e-01  8.15853851e-01
  1.00000000e+00  1.00000000e+00  1.00000000e+00  1.00000000e+00  1.00000000e+00
  1.96665025e-03  1.52306019e-02  7.61269097e-02  2.60801033e-01  6.16462078e-01
  2.21006028e-01  1.14660081e-01  9.19999648e-01 -3.03068213e-03  4.02486927e-02
  2.37593957e-01  8.15853851e-01  1.00000000e+00  1.00000000e+00  1.00000000e+00
  1.00000000e+00  1.00000000e+00  2.54938145e-02  1.90373109e-01  8.52161486e-01
  1.00000000e+00  1.00000000e+00  1.00000000e+00  2.54938145e-02  1.90373109e-01
  8.52161486e-01  1.00000000e+00  1.00000000e+00  1.00000000e+00  2.54938145e-02
  1.90373109e-01  8.52161486e-01  1.00000000e+00  1.00000000e+00  1.00000000e+00
  2.54938145e-02  1.90373109e-01  8.52161486e-01  1.00000000e+00  1.00000000e+00
  1.00000000e+00  2.54938145e-02  1.90373109e-01  8.52161486e-01  1.00000000e+00
  1.00000000e+00  1.00000000e+00  2.54938145e-02  1.90373109e-01  8.52161486e-01
  1.00000000e+00  1.00000000e+00  1.00000000e+00  2.54938145e-02  1.90373109e-01
  8.52161486e-01  1.00000000e+00  1.00000000e+00  1.00000000e+00  2.54938145e-02
  1.90373109e-01  8.52161486e-01  1.00000000e+00  1.00000000e+00  1.00000000e+00
  2.54938145e-02  1.90373109e-01  8.52161486e-01  1.00000000e+00  1.00000000e+00
  1.00000000e+00
Coordinates of each shell                  R   N=         312
  1.74425477e-01 -1.24315981e-01 -6.83799237e-01  1.74425477e-01 -1.24315981e-01
 -6.83799237e-01  1.74425477e-01 -1.24315981e-01 -6.83799237e-01  1.74425477e-01
 -1.24315981e-01 -6.83799237e-01  1.74425477e-01 -1.24315981e-01 -6.83799237e-01
  1.74425477e-01 -1.24315981e-01 -6.83799237e-01  1.74425477e-01 -1.24315981e-01
 -6.83799237e-01  1.74425477e-01 -1.24315981e-01 -6.83799237e-01  1.74425477e-01
 -1.24315981e-01 -6.83799237e-01  1.74425477e-01 -1.24315981e-01 -6.83799237e-01
  1.74425477e-01 -1.24315981e-01 -6.83799237e-01  1.74425477e-01 -1.24315981e-01
 -6.83799237e-01  2.40841908e+00  1.34051387e+00  7.24382278e-01  2.40841908e+00
  1.34051387e+00  7.24382278e-01  2.40841908e+00  1.34051387e+00  7.24382278e-01
  2.40841908e+00  1.34051387e+00  7.24382278e-01  2.40841908e+00  1.34051387e+00
  7.24382278e-01  2.40841908e+00  1.34051387e+00  7.24382278e-01  2.40841908e+00
  1.34051387e+00  7.24382278e-01  2.40841908e+00  1.34051387e+00  7.24382278e-01
 -9.84933756e-01 -1.72983423e+00  1.62819289e+00 -9.84933756e-01 -1.72983423e+00
  1.62819289e+00 -9.84933756e-01 -1.72983423e+00  1.62819289e+00 -9.84933756e-01
 -1.72983423e+00  1.62819289e+00 -9.84933756e-01 -1.72983423e+00  1.62819289e+00
 -9.84933756e-01 -1.72983423e+00  1.62819289e+00 -9.84933756e-01 -1.72983423e+00
  1.62819289e+00 -9.84933756e-01 -1.72983423e+00  1.62819289e+00 -1.81083998e+00
  2.09117076e+00 -1.17451812e+00 -1.81083998e+00  2.09117076e+00 -1.17451812e+00
 -1.81083998e+00  2.09117076e+00 -1.17451812e+00 -1.81083998e+00  2.09117076e+00
 -1.17451812e+00 -1.81083998e+00  2.09117076e+00 -1.17451812e+00 -1.81083998e+00
  2.09117076e+00 -1.17451812e+00 -1.81083998e+00  2.09117076e+00 -1.17451812e+00
 -1.81083998e+00  2.09117076e+00 -1.17451812e+00  8.30839340e-01 -1.58966845e+00
 -2.94370692e+00  8.30839340e-01 -1.58966845e+00 -2.94370692e+00  8.30839340e-01
 -1.58966845e+00 -2.94370692e+00  8.30839340e-01 -1.58966845e+00 -2.94370692e+00
  8.30839340e-01 -1.58966845e+00 -2.94370692e+00  8.30839340e-01 -1.58966845e+00
 -2.94370692e+00  8.30839340e-01 -1.58966845e+00 -2.94370692e+00  8.30839340e-01
 -1.58966845e+00 -2.94370692e+00  4.66202038e+00 -4.13012600e-02  1.29802862e+00
  4.66202038e+00 -4.13012600e-02  1.29802862e+00  4.66202038e+00 -4.13012600e-02
  1.29802862e+00  4.66202038e+00 -4.13012600e-02  1.29802862e+00  4.66202038e+00
 -4.13012600e-02  1.29802862e+00  4.66202038e+00 -4.13012600e-02  1.29802862e+00
  4.66202038e+00 -4.13012600e-02  1.29802862e+00  4.66202038e+00 -4.13012600e-02
  1.29802862e+00 -2.94683189e+00 -3.49609806e+00  1.04200389e+00 -2.94683189e+00
 -3.49609806e+00  1.04200389e+00 -2.94683189e+00 -3.49609806e+00  1.04200389e+00
 -2.94683189e+00 -3.49609806e+00  1.04200389e+00 -2.94683189e+00 -3.49609806e+00
  1.04200389e+00 -2.94683189e+00 -3.49609806e+00  1.04200389e+00 -2.94683189e+00
 -3.49609806e+00  1.04200389e+00 -2.94683189e+00 -3.49609806e+00  1.04200389e+00
 -2.52177134e+00  3.74258103e+00  8.44027109e-01 -2.52177134e+00  3.74258103e+00
  8.44027109e-01 -2.52177134e+00  3.74258103e+00  8.44027109e-01 -2.52177134e+00
  3.74258103e+00  8.44027109e-01 -2.52177134e+00  3.74258103e+00  8.44027109e-01
 -2.52177134e+00  3.74258103e+00  8.44027109e-01 -2.52177134e+00  3.74258103e+00
  8.44027109e-01 -2.52177134e+00  3.74258103e+00  8.44027109e-01  5.52529669e+00
 -7.50112547e-01 -4.39150688e-01  5.52529669e+00 -7.50112547e-01 -4.39150688e-01
  5.52529669e+00 -7.50112547e-01 -4.39150688e-01  5.52529669e+00 -7.50112547e-01
 -4.39150688e-01  4.23956067e+00 -1.61669586e+00  2.57084219e+00  4.23956067e+00
 -1.61669586e+00  2.57084219e+00  4.23956067e+00 -1.61669586e+00  2.57084219e+00
  4.23956067e+00 -1.61669586e+00  2.57084219e+00  5.93114412e+00  1.28529683e+00
  2.23447837e+00  5.93114412e+00  1.28529683e+00  2.23447837e+00  5.93114412e+00
  1.28529683e+00  2.23447837e+00  5.93114412e+00  1.28529683e+00  2.23447837e+00
 -4.54834697e+00 -2.53646946e+00  1.45801848e-01 -4.54834697e+00 -2.53646946e+00
  1.45801848e-01 -4.54834697e+00 -2.53646946e+00  1.45801848e-01 -4.54834697e+00
 -2.53646946e+00  1.45801848e-01 -3.55061866e+00 -4.31326463e+00  2.83565816e+00
 -3.55061866e+00 -4.31326463e+00  2.83565816e+00 -3.55061866e+00 -4.31326463e+00
  2.83565816e+00 -3.55061866e+00 -4.31326463e+00  2.83565816e+00 -2.23710037e+00
 -4.97240369e+00 -2.15909903e-01 -2.23710037e+00 -4.97240369e+00 -2.15909903e-01
 -2.23710037e+00 -4.97240369e+00 -2.15909903e-01 -2.23710037e+00 -4.97240369e+00
 -2.15909903e-01 -3.12855376e+00  2.65936747e+00  2.49890439e+00 -3.12855376e+00
  2.65936747e+00  2.49890439e+00 -3.12855376e+00  2.65936747e+00  2.49890439e+00
 -3.12855376e+00  2.65936747e+00  2.49890439e+00 -4.08923891e+00  4.87743981e+00
  1.36397150e-01 -4.08923891e+00  4.87743981e+00  1.36397150e-01 -4.08923891e+00
  4.87743981e+00  1.36397150e-01 -4.08923891e+00  4.87743981e+00  1.36397150e-01
 -9.37388561e-01  4.96400650e+00  1.35845950e+00 -9.37388561e-01  4.96400650e+00
  1.35845950e+00 -9.37388561e-01  4.96400650e+00  1.35845950e+00 -9.37388561e-01
  4.96400650e+00  1.35845950e+00
Total Energy                               R     -7.605771103668092e+02
Alpha Orbital Energies                     R   N=         206
 -8.01039742e+01 -2.05924505e+01 -2.05919428e+01 -2.05909312e+01 -2.05061515e+01
 -1.12977498e+01 -1.12964157e+01 -1.12963530e+01 -7.62738495e+00 -5.52569390e+00
 -5.52538077e+00 -5.52508493e+00 -1.45963964e+00 -1.38823539e+00 -1.38719232e+00
 -1.30001729e+00 -9.86069029e-01 -9.57081791e-01 -9.49987093e-01 -7.90872408e-01
 -7.21630584e-01 -7.19003710e-01 -6.78887609e-01 -6.67041660e-01 -6.53908247e-01
 -6.32240037e-01 -6.23443400e-01 -6.18148180e-01 -5.85607786e-01 -5.41764764e-01
 -5.28846254e-01 -5.15757438e-01 -4.98522585e-01 -4.91235534e-01 -4.83639965e-01
 -4.64238290e-01 -4.56723996e-01  1.47102237e-01  1.66437816e-01  1.71544359e-01
  2.03555703e-01  2.10305202e-01  2.19092490e-01  2.24983580e-01  2.27489743e-01
  2.34034125e-01  2.44070384e-01  2.76927982e-01  2.84013432e-01  3.03227803e-01
  3.33676784e-01  3.44380423e-01  3.93146192e-01  4.09102784e-01  4.17621251e-01
  4.30179882e-01  4.54568872e-01  4.61750371e-01  4.85644762e-01  4.88576183e-01
  5.17422755e-01  5.21950873e-01  6.02225307e-01  6.59093956e-01  6.73033740e-01
  6.87367526e-01  7.33242863e-01  7.53353645e-01  7.59524053e-01  7.63712832e-01
  7.65842675e-01  7.75514930e-01  7.87040824e-01  7.95385079e-01  8.07362937e-01
  8.77310189e-01  8.79959987e-01  8.93203645e-01  9.25551051e-01  9.66246208e-01
  9.88051419e-01  1.01104640e+00  1.03828832e+00  1.05047400e+00  1.07638870e+00
  1.15084540e+00  1.19490676e+00  1.20587416e+00  1.21441445e+00  1.23445226e+00
  1.29786674e+00  1.30295738e+00  1.33810410e+00  1.34768133e+00  1.40308183e+00
  1.42958881e+00  1.43413297e+00  1.47180249e+00  1.49352756e+00  1.51789816e+00
  1.54484357e+00  1.65076187e+00  1.68863143e+00  1.69151622e+00  1.69689928e+00
  1.71109837e+00  1.71546699e+00  1.72383343e+00  1.73768340e+00  1.74683738e+00
  1.75256482e+00  1.76961047e+00  1.78111111e+00  1.82825271e+00  1.84885816e+00
  1.85543586e+00  1.87060544e+00  1.88719293e+00  1.91590250e+00  1.92873488e+00
  1.93512123e+00  1.94576084e+00  1.99925822e+00  2.03400747e+00  2.09698618e+00
  2.16444170e+00  2.24476605e+00  2.25548153e+00  2.26082002e+00  2.36916651e+00
  2.37111809e+00  2.37793640e+00  2.39543157e+00  2.39961944e+00  2.40862397e+00
  2.62601419e+00  2.64158477e+00  2.65267445e+00  2.70348000e+00  2.71881998e+00
  2.72767518e+00  2.78993443e+00  2.79557728e+00  2.79905549e+00  2.80173882e+00
  2.80950213e+00  2.81596582e+00  2.82552632e+00  2.83457062e+00  2.85245570e+00
  3.06800807e+00  3.09070042e+00  3.12074435e+00  3.17371888e+00  3.19691070e+00
  3.22741862e+00  3.23487079e+00  3.24749864e+00  3.26951590e+00  3.28559944e+00
  3.29757308e+00  3.35389592e+00  3.40546473e+00  3.44569604e+00  3.47954486e+00
  3.49472494e+00  3.50317474e+00  3.51998993e+00  3.52445650e+00  3.61936861e+00
  3.80779065e+00  3.81295569e+00  3.96361982e+00  4.13308033e+00  4.15262717e+00
  4.16295512e+00  4.18030595e+00  4.18885936e+00  4.19661732e+00  4.36855756e+00
  4.42403856e+00  4.43608485e+00  5.39128380e+00  5.41202188e+00  5.43945778e+00
  5.46065452e+00  5.46356517e+00  5.46628033e+00  5.58788216e+00  5.61594340e+00
  5.77715952e+00  6.00651735e+00  6.01217825e+00  6.02879960e+00  7.68994982e+00
  1.48422461e+01  1.48871390e+01  1.50840419e+01  2.49897813e+01  2.49911820e+01
  2.49953300e+01  5.15072229e+01  5.15278849e+01  5.15333730e+01  5.16248606e+01
  1.66218661e+02
Alpha MO coefficients                      R   N=       42436
  4.19271768e-01  6.46641527e-01  1.07568462e-02 -1.07186902e-03  4.76363115e-04
 -1.97088308e-04 -1.77242436e-05  3.78429003e-05  5.74325680e-05  6.02210485e-06
 -1.21500968e-05 -2.03653475e-05 -4.76335719e-06  5.70645011e-06  1.79646223e-05
  7.68234127e-06  2.43339385e-06 -2.23851700e-05  1.87142056e-05  1.25227372e-05
 -3.76492333e-05  2.40670948e-06 -2.23742924e-06  9.21294861e-06 -2.71759073e-06
 -2.93315065e-06  5.27187921e-07 -3.67030582e-07 -3.31528765e-06 -1.90593880e-06
 -2.03866373e-06  1.70056413e-05  1.04157199e-05  5.52139480e-06  6.09739868e-06
 -5.58447750e-05  1.23430362e-05  3.33440943e-05  1.96280659e-05  5.06234638e-06
 -1.20564319e-05 -8.27614723e-06 -4.46669275e-06 -9.50155611e-06  4.00755396e-07
  3.01105223e-07  3.21559986e-06  3.36973915e-06 -2.40027402e-06  1.23530770e-05
 -1.10790713e-05 -1.11629702e-05  6.71996898e-06 -4.48302844e-05  2.41846158e-05
  1.39908363e-05  3.83481425e-05 -6.57717465e-06  6.55399823e-06  1.08795582e-05
  1.77482420e-06 -8.66645270e-06  4.62068031e-07  6.18392025e-08  3.04835852e-06
 -4.21179432e-06  3.93673096e-07  1.52080815e-05 -9.33484394e-06  1.37611654e-05
 -5.85600276e-07 -5.97610687e-05 -2.59195637e-05  8.81897883e-06 -2.79172671e-05
  6.30451431e-06 -4.33266752e-06  2.29218659e-06  1.58448857e-06  1.66759020e-05
 -8.95620442e-08  2.63463695e-06 -1.37247081e-06  2.56856961e-06  4.34462423e-06
  2.73894786e-06  7.25175603e-06 -1.42355657e-05 -2.34591367e-05 -4.18183594e-05
  6.46187938e-06 -2.38887905e-05 -2.80570557e-05 -1.03622709e-05  7.15161704e-06
 -1.63085055e-05  4.14496093e-06  4.33630376e-06 -1.44704240e-07  3.00894414e-07
  2.05178348e-06  5.54820633e-07  1.03264285e-06 -8.32674716e-06 -6.87976742e-06
 -2.42581202e-06 -3.15238188e-06  5.00628962e-05 -3.79542872e-05 -2.28057528e-05
 -1.91479644e-05  4.26856852e-07  2.24591993e-06 -3.43041524e-06  5.91811778e-06
 -5.18804666e-07 -1.05958705e-07  2.04869124e-07 -1.24344297e-06 -1.59941563e-06
  8.78019499e-07 -9.20775669e-06  5.41100459e-06  5.97601557e-06 -2.53926728e-06
  8.35872445e-05  3.36951888e-05  3.65616465e-05 -3.11334637e-05 -5.76313299e-06
 -2.11141734e-06 -6.87030859e-07 -5.40663046e-07  4.09047677e-06 -2.07591286e-07
  5.07819204e-07 -1.62780417e-06  1.68022190e-06  4.80604757e-07 -1.09239075e-05
  6.06918729e-06 -4.57222053e-06 -1.04269319e-06  6.93875591e-05  4.29034123e-05
 -3.93951630e-05  9.84802399e-06 -3.52326998e-06 -4.82362267e-06  2.80702366e-06
 -2.04629701e-06 -1.13219912e-06  1.27203369e-06 -1.49470074e-05 -4.94616310e-06
  3.36950632e-06  2.48500699e-06 -6.22792344e-08  1.87522973e-06 -2.15661374e-05
  8.52823236e-06  8.54798395e-08  3.92154355e-07  3.35127167e-06 -1.37566736e-07
  1.10567703e-05  6.60567537e-06  4.29818988e-07 -1.94272886e-06 -1.24481976e-06
  1.76758255e-06 -2.08027689e-05  4.98368323e-06 -2.79489736e-06  2.54155719e-07
  2.12644637e-06  2.90710577e-07  5.13734973e-06  8.33699112e-06 -1.23047222e-06
 -9.50904071e-07 -1.61458616e-06  2.25444853e-06 -2.31106271e-05  5.29216939e-06
  1.95294730e-07 -3.49700275e-06  1.64840281e-06  1.74286724e-06 -2.27760512e-05
  5.18537123e-06 -3.71357136e-06 -9.29964830e-07  2.91125250e-07 -3.90975382e-07
  1.20620150e-05  9.35765811e-06  1.50124463e-06  2.68961837e-07  1.66646928e-06
  2.13448049e-06 -2.32350854e-05 -5.71209321e-06 -3.12005004e-07  6.17139682e-06
 -9.37673598e-07 -2.83298087e-06 -7.27632137e-06  8.93737506e-06  5.72771283e-05
 -1.26157567e-05 -6.24533648e-04 -3.99996683e-06 -5.06122252e-06  8.09000892e-06
 -1.87897664e-05 -2.50095635e-05  2.74926444e-05  2.29375418e-05  4.10897235e-05
 -3.24718792e-05  9.59220577e-05  1.00191287e-04 -1.56474970e-04  1.11102586e-05
 -2.03115735e-06 -2.12168716e-04 -1.61136556e-05  6.35592515e-05  7.23814645e-05
  1.88784962e-05 -3.84915463e-05  7.74070515e-03  6.62246719e-03 -5.17504190e-06
 -2.03437267e-05 -5.53358926e-06  6.08423052e-05  1.23578560e-05 -6.49419224e-06
  6.45449261e-06  9.05432486e-05 -1.06798884e-04  9.71687855e-06 -3.56236370e-06
  5.53235235e-07 -5.23313879e-06 -1.96964795e-06 -7.71546058e-07  3.69879044e-06
 -5.51388228e-01 -4.71596667e-01  5.24897873e-04  1.95451593e-04  1.39455832e-03
 -5.69626577e-03 -2.29325255e-04 -1.23238209e-04 -4.60592199e-04  8.53414020e-04
  4.84731753e-05  5.00548840e-05  2.21146888e-05 -2.33800521e-05  8.30664808e-06
 -1.16755896e-05  6.09505822e-06  1.26472187e-04  2.86715615e-03  2.45402446e-03
  3.41936803e-06 -7.00819366e-06  8.73379493e-06  5.37170604e-06  8.37956173e-10
  4.09448201e-06  2.03616166e-06  1.23769721e-04  1.60387362e-05 -6.94826744e-05
  4.27174648e-05  9.36687828e-07  1.19969383e-06 -5.34440973e-06 -4.62489809e-06
  1.26340602e-07  5.38814544e-05  4.92578814e-05 -3.80072177e-06 -4.36090917e-07
  1.20346969e-05 -2.96812172e-05  5.04944031e-06 -4.76412898e-06 -2.68858474e-05
  9.73879297e-05 -2.89485162e-05 -5.72491604e-06  1.13261306e-04  6.60045347e-06
 -3.59871179e-06 -4.00823039e-06  2.28781894e-06  2.43940874e-06 -1.53565421e-07
 -1.88828274e-07  2.06823929e-06 -1.69592051e-07  8.03721676e-07 -1.78798166e-05
 -7.09016690e-06  4.26638974e-06 -8.93499063e-07  1.96366758e-04 -6.10204020e-05
 -1.83523849e-05 -2.89678460e-05 -7.35245679e-07  3.27803260e-06 -5.87702731e-07
  8.86385818e-07  4.31327289e-06  2.45696275e-06  2.60471989e-05 -2.26878973e-05
 -1.63231881e-05 -2.25238393e-05 -8.55705370e-05 -1.39347736e-04 -1.44326313e-04
  2.02202647e-05 -2.29759324e-04 -6.21246870e-05 -4.57250734e-05 -1.10560452e-04
  7.06876460e-05 -9.31483227e-06 -1.37334427e-05 -5.52830531e-06 -7.84852916e-05
 -2.37726818e-07 -1.41949564e-07 -1.22291071e-06  8.30408581e-07 -2.97098858e-06
 -1.16217320e-05 -6.56726074e-07 -2.16752727e-06  1.80816496e-05  7.52810962e-05
  3.75904032e-05 -2.50128219e-05  7.43972648e-06  1.66041491e-06  7.68852291e-08
 -1.16854682e-05  1.25487196e-06  1.89805382e-07  3.69947521e-06 -3.66315500e-05
 -2.47974290e-05  5.09565591e-06 -7.79992951e-07 -3.24745318e-06  2.51701070e-07
 -2.35248170e-05 -1.62636624e-05 -4.37750561e-06 -5.65659162e-06  6.78817500e-06
  2.24678302e-06 -2.39717640e-05  2.43607438e-05  2.83436650e-06  3.31999489e-06
  2.39681257e-06 -7.91367570e-06  5.06989631e-05 -4.22483249e-06  1.34350621e-05
  2.01870959e-05  1.28497231e-05 -1.88198356e-05  4.85068895e-05  4.87678629e-05
 -6.58891836e-06 -8.42849066e-06  1.95320974e-05 -5.50106263e-06  3.85785593e-05
 -2.02458242e-05  2.10248236e-05  3.21942366e-06  8.74111845e-06  1.51808309e-06
 -2.08698872e-05  7.91997854e-06 -5.51058830e-06 -8.87944778e-06  8.95830559e-06
 -2.01607187e-06  6.96071350e-06  2.11984212e-06 -1.15098017e-06 -1.40589828e-06
 -5.86337594e-07  3.11873542e-06 -2.65987648e-05  1.76523801e-05  2.57017029e-06
  4.04155721e-07 -2.20297745e-07  3.10405373e-06  6.80722152e-06 -1.92157819e-06
 -7.88492823e-05  9.82708537e-05  3.74050427e-04 -7.67506100e-06 -4.51716945e-06
 -5.03370575e-06 -3.40193422e-05 -1.87583928e-05 -2.14139095e-05  5.01585246e-05
  3.31888819e-05  2.80062163e-05  1.49432454e-04  5.93923089e-05  1.00468046e-04
  6.26110301e-05  1.81538598e-04  1.21449782e-04 -7.01704595e-06  6.49939464e-05
  2.14035526e-05  4.93068355e-05  6.35386808e-05  5.51377213e-01  4.71589667e-01
  1.27859447e-04 -1.44631847e-03 -3.51239193e-04  5.70955772e-03 -1.10051975e-04
  5.03609144e-04  9.64555683e-05 -8.29459905e-04  1.58978124e-05 -5.27203657e-05
 -1.24926432e-05  6.86517421e-05 -7.35650156e-05 -4.36535067e-06 -5.16812753e-05
  5.54524247e-05  7.72226779e-03  6.60292621e-03 -9.36608828e-06 -4.99991125e-06
 -1.88148627e-05  1.03265723e-04 -1.52586604e-06  1.19080423e-06  9.60166638e-06
 -1.41908113e-04 -3.57665889e-05 -4.81490740e-05  1.61387699e-05  5.34754513e-06
  1.55535619e-06  7.88457323e-07 -9.62427559e-07 -5.53424010e-06 -3.92504594e-03
 -3.35906005e-03 -1.00290231e-05  3.54529710e-06 -9.67317367e-06 -1.91525130e-05