Generated by Psi4
        SP                        DF-MP2                      6-311G**
Number of atoms                            I               14
Charge                                     I                0
Multiplicity                               I                1
Number of electrons                        I               50
Number of alpha electrons                  I               25
Number of beta electrons                   I               25
Number of basis functions                  I              168
Number of independent functions            I              168
Atomic numbers                             I   N=          14
           7           6           6           6           6           6
           6           1           1           1           1           1
           1           1
Nuclear charges                            R   N=          14
  7.00000000e+00  6.00000000e+00  6.00000000e+00  6.00000000e+00  6.00000000e+00
  6.00000000e+00  6.00000000e+00  1.00000000e+00  1.00000000e+00  1.00000000e+00
  1.00000000e+00  1.00000000e+00  1.00000000e+00  1.00000000e+00
Current cartesian coordinates              R   N=          42
 -4.41534777e+00 -4.07365595e-05  2.66089818e-01 -1.77876219e+00  1.16972513e-04
  6.40072275e-02 -4.31638553e-01  2.27636231e+00  1.03018270e-02 -4.31349111e-01
 -2.27633865e+00  1.55515689e-02  2.19294909e+00  2.26619751e+00 -8.57377500e-02
  2.19299246e+00 -2.26620916e+00 -8.05785901e-02  3.52842651e+00  8.25091221e-05
 -1.35820349e-01 -1.45232101e+00  4.05953813e+00  5.89067217e-02 -1.45204009e+00
 -4.05949748e+00  6.81500663e-02  3.20161243e+00  4.05352588e+00 -1.26423967e-01
  3.20203952e+00 -4.05347635e+00 -1.17281523e-01  5.57817390e+00 -1.41528591e-04
 -2.16788405e-01 -5.25432294e+00 -1.57438121e+00 -4.16318217e-01 -5.25491504e+00
  1.57248042e+00 -4.19855067e-01
Integer atomic weights                     I   N=          14
          14          12          12          12          12          12
          12           1           1           1           1           1
           1           1
Real atomic weights                        R   N=          14
  1.40030740e+01  1.20000000e+01  1.20000000e+01  1.20000000e+01  1.20000000e+01
  1.20000000e+01  1.20000000e+01  1.00782503e+00  1.00782503e+00  1.00782503e+00
  1.00782503e+00  1.00782503e+00  1.00782503e+00  1.00782503e+00
Number of primitive shells                 I              161
Number of contracted shells                I               84
Pure/Cartesian d shells                    I                0
Pure/Cartesian f shells                    I                0
Highest angular momentum                   I                2
Largest degree of contraction              I                6
Shell types                                I   N=          84
           0           0           1           0           1           0
           1          -2           0           0           1           0
           1           0           1          -2           0           0
           1           0           1           0           1          -2
           0           0           1           0           1           0
           1          -2           0           0           1           0
           1           0           1          -2           0           0
           1           0           1           0           1          -2
           0           0           1           0           1           0
           1          -2           0           0           0           1
           0           0           0           1           0           0
           0           1           0           0           0           1
           0           0           0           1           0           0
           0           1           0           0           0           1
Number of primitives per shell             I   N=          84
           6           3           3           1           1           1
           1           1           6           3           3           1
           1           1           1           1           6           3
           3           1           1           1           1           1
           6           3           3           1           1           1
           1           1           6           3           3           1
           1           1           1           1           6           3
           3           1           1           1           1           1
           6           3           3           1           1           1
           1           1           3           1           1           1
           3           1           1           1           3           1
           1           1           3           1           1           1
           3           1           1           1           3           1
           1           1           3           1           1           1
Shell to atom map                          I   N=          84
           1           1           1           1           1           1
           1           1           2           2           2           2
           2           2           2           2           3           3
           3           3           3           3           3           3
           4           4           4           4           4           4
           4           4           5           5           5           5
           5           5           5           5           6           6
           6           6           6           6           6           6
           7           7           7           7           7           7
           7           7           8           8           8           8
           9           9           9           9          10          10
          10          10          11          11          11          11
          12          12          12          12          13          13
          13          13          14          14          14          14
Primitive exponents                        R   N=         161
  6.29348000e+03  9.49044000e+02  2.18776000e+02  6.36916000e+01  1.88282000e+01
  2.72023000e+00  3.06331000e+01  7.02614000e+00  2.11205000e+00  3.06331000e+01
  7.02614000e+00  2.11205000e+00  6.84009000e-01  6.84009000e-01  2.00878000e-01
  2.00878000e-01  9.13000000e-01  4.56324000e+03  6.82024000e+02  1.54973000e+02
  4.44553000e+01  1.30290000e+01  1.82773000e+00  2.09642000e+01  4.80331000e+00
  1.45933000e+00  2.09642000e+01  4.80331000e+00  1.45933000e+00  4.83456000e-01
  4.83456000e-01  1.45585000e-01  1.45585000e-01  6.26000000e-01  4.56324000e+03
  6.82024000e+02  1.54973000e+02  4.44553000e+01  1.30290000e+01  1.82773000e+00
  2.09642000e+01  4.80331000e+00  1.45933000e+00  2.09642000e+01  4.80331000e+00
  1.45933000e+00  4.83456000e-01  4.83456000e-01  1.45585000e-01  1.45585000e-01
  6.26000000e-01  4.56324000e+03  6.82024000e+02  1.54973000e+02  4.44553000e+01
  1.30290000e+01  1.82773000e+00  2.09642000e+01  4.80331000e+00  1.45933000e+00
  2.09642000e+01  4.80331000e+00  1.45933000e+00  4.83456000e-01  4.83456000e-01
  1.45585000e-01  1.45585000e-01  6.26000000e-01  4.56324000e+03  6.82024000e+02
  1.54973000e+02  4.44553000e+01  1.30290000e+01  1.82773000e+00  2.09642000e+01
  4.80331000e+00  1.45933000e+00  2.09642000e+01  4.80331000e+00  1.45933000e+00
  4.83456000e-01  4.83456000e-01  1.45585000e-01  1.45585000e-01  6.26000000e-01
  4.56324000e+03  6.82024000e+02  1.54973000e+02  4.44553000e+01  1.30290000e+01
  1.82773000e+00  2.09642000e+01  4.80331000e+00  1.45933000e+00  2.09642000e+01
  4.80331000e+00  1.45933000e+00  4.83456000e-01  4.83456000e-01  1.45585000e-01
  1.45585000e-01  6.26000000e-01  4.56324000e+03  6.82024000e+02  1.54973000e+02
  4.44553000e+01  1.30290000e+01  1.82773000e+00  2.09642000e+01  4.80331000e+00
  1.45933000e+00  2.09642000e+01  4.80331000e+00  1.45933000e+00  4.83456000e-01
  4.83456000e-01  1.45585000e-01  1.45585000e-01  6.26000000e-01  3.38650000e+01
  5.09479000e+00  1.15879000e+00  3.25840000e-01  1.02741000e-01  7.50000000e-01
  3.38650000e+01  5.09479000e+00  1.15879000e+00  3.25840000e-01  1.02741000e-01
  7.50000000e-01  3.38650000e+01  5.09479000e+00  1.15879000e+00  3.25840000e-01
  1.02741000e-01  7.50000000e-01  3.38650000e+01  5.09479000e+00  1.15879000e+00
  3.25840000e-01  1.02741000e-01  7.50000000e-01  3.38650000e+01  5.09479000e+00
  1.15879000e+00  3.25840000e-01  1.02741000e-01  7.50000000e-01  3.38650000e+01
  5.09479000e+00  1.15879000e+00  3.25840000e-01  1.02741000e-01  7.50000000e-01
  3.38650000e+01  5.09479000e+00  1.15879000e+00  3.25840000e-01  1.02741000e-01
  7.50000000e-01
Contraction coefficients                   R   N=         161
  1.96978815e-03  1.49612859e-02  7.35005308e-02  2.48936766e-01  6.02459433e-01
  2.56201759e-01  1.11906080e-01  9.21666655e-01 -2.56919183e-03  3.83119186e-02
  2.37403116e-01  8.17592398e-01  1.00000000e+00  1.00000000e+00  1.00000000e+00
  1.00000000e+00  1.00000000e+00  1.96665025e-03  1.52306019e-02  7.61269097e-02
  2.60801033e-01  6.16462078e-01  2.21006028e-01  1.14660081e-01  9.19999648e-01
 -3.03068213e-03  4.02486927e-02  2.37593957e-01  8.15853851e-01  1.00000000e+00
  1.00000000e+00  1.00000000e+00  1.00000000e+00  1.00000000e+00  1.96665025e-03
  1.52306019e-02  7.61269097e-02  2.60801033e-01  6.16462078e-01  2.21006028e-01
  1.14660081e-01  9.19999648e-01 -3.03068213e-03  4.02486927e-02  2.37593957e-01
  8.15853851e-01  1.00000000e+00  1.00000000e+00  1.00000000e+00  1.00000000e+00
  1.00000000e+00  1.96665025e-03  1.52306019e-02  7.61269097e-02  2.60801033e-01
  6.16462078e-01  2.21006028e-01  1.14660081e-01  9.19999648e-01 -3.03068213e-03
  4.02486927e-02  2.37593957e-01  8.15853851e-01  1.00000000e+00  1.00000000e+00
  1.00000000e+00  1.00000000e+00  1.00000000e+00  1.96665025e-03  1.52306019e-02
  7.61269097e-02  2.60801033e-01  6.16462078e-01  2.21006028e-01  1.14660081e-01
  9.19999648e-01 -3.03068213e-03  4.02486927e-02  2.37593957e-01  8.15853851e-01
  1.00000000e+00  1.00000000e+00  1.00000000e+00  1.00000000e+00  1.00000000e+00
  1.96665025e-03  1.52306019e-02  7.61269097e-02  2.60801033e-01  6.16462078e-01
  2.21006028e-01  1.14660081e-01  9.19999648e-01 -3.03068213e-03  4.02486927e-02
  2.37593957e-01  8.15853851e-01  1.00000000e+00  1.00000000e+00  1.00000000e+00
  1.00000000e+00  1.00000000e+00  1.96665025e-03  1.52306019e-02  7.61269097e-02
  2.60801033e-01  6.16462078e-01  2.21006028e-01  1.14660081e-01  9.19999648e-01
 -3.03068213e-03  4.02486927e-02  2.37593957e-01  8.15853851e-01  1.00000000e+00
  1.00000000e+00  1.00000000e+00  1.00000000e+00  1.00000000e+00  2.54938145e-02
  1.90373109e-01  8.52161486e-01  1.00000000e+00  1.00000000e+00  1.00000000e+00
  2.54938145e-02  1.90373109e-01  8.52161486e-01  1.00000000e+00  1.00000000e+00
  1.00000000e+00  2.54938145e-02  1.90373109e-01  8.52161486e-01  1.00000000e+00
  1.00000000e+00  1.00000000e+00  2.54938145e-02  1.90373109e-01  8.52161486e-01
  1.00000000e+00  1.00000000e+00  1.00000000e+00  2.54938145e-02  1.90373109e-01
  8.52161486e-01  1.00000000e+00  1.00000000e+00  1.00000000e+00  2.54938145e-02
  1.90373109e-01  8.52161486e-01  1.00000000e+00  1.00000000e+00  1.00000000e+00
  2.54938145e-02  1.90373109e-01  8.52161486e-01  1.00000000e+00  1.00000000e+00
  1.00000000e+00
Coordinates of each shell                  R   N=         252
 -4.41534777e+00 -4.07365595e-05  2.66089818e-01 -4.41534777e+00 -4.07365595e-05
  2.66089818e-01 -4.41534777e+00 -4.07365595e-05  2.66089818e-01 -4.41534777e+00
 -4.07365595e-05  2.66089818e-01 -4.41534777e+00 -4.07365595e-05  2.66089818e-01
 -4.41534777e+00 -4.07365595e-05  2.66089818e-01 -4.41534777e+00 -4.07365595e-05
  2.66089818e-01 -4.41534777e+00 -4.07365595e-05  2.66089818e-01 -1.77876219e+00
  1.16972513e-04  6.40072275e-02 -1.77876219e+00  1.16972513e-04  6.40072275e-02
 -1.77876219e+00  1.16972513e-04  6.40072275e-02 -1.77876219e+00  1.16972513e-04
  6.40072275e-02 -1.77876219e+00  1.16972513e-04  6.40072275e-02 -1.77876219e+00
  1.16972513e-04  6.40072275e-02 -1.77876219e+00  1.16972513e-04  6.40072275e-02
 -1.77876219e+00  1.16972513e-04  6.40072275e-02 -4.31638553e-01  2.27636231e+00
  1.03018270e-02 -4.31638553e-01  2.27636231e+00  1.03018270e-02 -4.31638553e-01
  2.27636231e+00  1.03018270e-02 -4.31638553e-01  2.27636231e+00  1.03018270e-02
 -4.31638553e-01  2.27636231e+00  1.03018270e-02 -4.31638553e-01  2.27636231e+00
  1.03018270e-02 -4.31638553e-01  2.27636231e+00  1.03018270e-02 -4.31638553e-01
  2.27636231e+00  1.03018270e-02 -4.31349111e-01 -2.27633865e+00  1.55515689e-02
 -4.31349111e-01 -2.27633865e+00  1.55515689e-02 -4.31349111e-01 -2.27633865e+00
  1.55515689e-02 -4.31349111e-01 -2.27633865e+00  1.55515689e-02 -4.31349111e-01
 -2.27633865e+00  1.55515689e-02 -4.31349111e-01 -2.27633865e+00  1.55515689e-02
 -4.31349111e-01 -2.27633865e+00  1.55515689e-02 -4.31349111e-01 -2.27633865e+00
  1.55515689e-02  2.19294909e+00  2.26619751e+00 -8.57377500e-02  2.19294909e+00
  2.26619751e+00 -8.57377500e-02  2.19294909e+00  2.26619751e+00 -8.57377500e-02
  2.19294909e+00  2.26619751e+00 -8.57377500e-02  2.19294909e+00  2.26619751e+00
 -8.57377500e-02  2.19294909e+00  2.26619751e+00 -8.57377500e-02  2.19294909e+00
  2.26619751e+00 -8.57377500e-02  2.19294909e+00  2.26619751e+00 -8.57377500e-02
  2.19299246e+00 -2.26620916e+00 -8.05785901e-02  2.19299246e+00 -2.26620916e+00
 -8.05785901e-02  2.19299246e+00 -2.26620916e+00 -8.05785901e-02  2.19299246e+00
 -2.26620916e+00 -8.05785901e-02  2.19299246e+00 -2.26620916e+00 -8.05785901e-02
  2.19299246e+00 -2.26620916e+00 -8.05785901e-02  2.19299246e+00 -2.26620916e+00
 -8.05785901e-02  2.19299246e+00 -2.26620916e+00 -8.05785901e-02  3.52842651e+00
  8.25091221e-05 -1.35820349e-01  3.52842651e+00  8.25091221e-05 -1.35820349e-01
  3.52842651e+00  8.25091221e-05 -1.35820349e-01  3.52842651e+00  8.25091221e-05
 -1.35820349e-01  3.52842651e+00  8.25091221e-05 -1.35820349e-01  3.52842651e+00
  8.25091221e-05 -1.35820349e-01  3.52842651e+00  8.25091221e-05 -1.35820349e-01
  3.52842651e+00  8.25091221e-05 -1.35820349e-01 -1.45232101e+00  4.05953813e+00
  5.89067217e-02 -1.45232101e+00  4.05953813e+00  5.89067217e-02 -1.45232101e+00
  4.05953813e+00  5.89067217e-02 -1.45232101e+00  4.05953813e+00  5.89067217e-02
 -1.45204009e+00 -4.05949748e+00  6.81500663e-02 -1.45204009e+00 -4.05949748e+00
  6.81500663e-02 -1.45204009e+00 -4.05949748e+00  6.81500663e-02 -1.45204009e+00
 -4.05949748e+00  6.81500663e-02  3.20161243e+00  4.05352588e+00 -1.26423967e-01
  3.20161243e+00  4.05352588e+00 -1.26423967e-01  3.20161243e+00  4.05352588e+00
 -1.26423967e-01  3.20161243e+00  4.05352588e+00 -1.26423967e-01  3.20203952e+00
 -4.05347635e+00 -1.17281523e-01  3.20203952e+00 -4.05347635e+00 -1.17281523e-01
  3.20203952e+00 -4.05347635e+00 -1.17281523e-01  3.20203952e+00 -4.05347635e+00
 -1.17281523e-01  5.57817390e+00 -1.41528591e-04 -2.16788405e-01  5.57817390e+00
 -1.41528591e-04 -2.16788405e-01  5.57817390e+00 -1.41528591e-04 -2.16788405e-01
  5.57817390e+00 -1.41528591e-04 -2.16788405e-01 -5.25432294e+00 -1.57438121e+00
 -4.16318217e-01 -5.25432294e+00 -1.57438121e+00 -4.16318217e-01 -5.25432294e+00
 -1.57438121e+00 -4.16318217e-01 -5.25432294e+00 -1.57438121e+00 -4.16318217e-01
 -5.25491504e+00  1.57248042e+00 -4.19855067e-01 -5.25491504e+00  1.57248042e+00
 -4.19855067e-01 -5.25491504e+00  1.57248042e+00 -4.19855067e-01 -5.25491504e+00
  1.57248042e+00 -4.19855067e-01
Total Energy                               R     -2.868041633626801e+02
Alpha Orbital Energies                     R   N=         168
 -1.55576851e+01 -1.12759723e+01 -1.12329753e+01 -1.12329411e+01 -1.12213520e+01
 -1.12213280e+01 -1.12169217e+01 -1.22115112e+00 -1.12505913e+00 -1.01030794e+00
 -9.83884910e-01 -8.29338536e-01 -8.10055781e-01 -7.02588234e-01 -6.81322767e-01
 -6.52421595e-01 -5.96091146e-01 -5.90572465e-01 -5.79196419e-01 -5.31517848e-01
 -5.04712357e-01 -4.86456515e-01 -4.46193722e-01 -3.34676069e-01 -2.92914065e-01
  1.35780220e-01  1.49508895e-01  1.59233765e-01  1.68538717e-01  1.79442757e-01
  2.09178492e-01  2.09360342e-01  2.43585388e-01  2.60474112e-01  3.57098306e-01
  4.00678600e-01  4.33204492e-01  4.41023951e-01  4.55671759e-01  4.78345294e-01
  5.09384717e-01  5.27877899e-01  5.79402777e-01  5.87772725e-01  5.89808005e-01
  6.19621273e-01  6.26308137e-01  6.38289132e-01  6.42089226e-01  6.45777301e-01
  6.53947627e-01  6.81291893e-01  7.16881669e-01  7.22927693e-01  7.44395586e-01
  7.71393910e-01  8.10259285e-01  8.15883097e-01  8.28343935e-01  8.33358692e-01
  8.35912451e-01  8.62933995e-01  8.77285869e-01  9.05395529e-01  9.27612270e-01
  9.49590355e-01  9.66132622e-01  1.00374317e+00  1.03543686e+00  1.07009177e+00
  1.08119433e+00  1.09438997e+00  1.13474697e+00  1.19798316e+00  1.20318085e+00
  1.21817396e+00  1.25972744e+00  1.33213093e+00  1.34224286e+00  1.39912293e+00
  1.41230226e+00  1.43623004e+00  1.46290120e+00  1.58733628e+00  1.65781872e+00
  1.71119342e+00  1.74001654e+00  1.75511585e+00  1.76140102e+00  1.80754015e+00
  1.82701313e+00  1.82910204e+00  1.84415376e+00  1.87821668e+00  1.88506158e+00
  1.89181980e+00  1.94345780e+00  1.95825628e+00  2.01429346e+00  2.04617806e+00
  2.04846690e+00  2.05978569e+00  2.12062570e+00  2.16809656e+00  2.17605353e+00
  2.21040975e+00  2.21787291e+00  2.21837425e+00  2.23193988e+00  2.24138721e+00
  2.28795469e+00  2.33767468e+00  2.34011613e+00  2.37483169e+00  2.37911922e+00
  2.57564272e+00  2.58535205e+00  2.60548768e+00  2.65869630e+00  2.67051211e+00
  2.70978829e+00  2.76241429e+00  2.76880379e+00  2.81114155e+00  2.91331849e+00
  2.91809417e+00  2.93451263e+00  2.94899130e+00  2.95187282e+00  2.95462702e+00
  2.96981459e+00  2.97812161e+00  3.02260914e+00  3.05641747e+00  3.07257825e+00
  3.12272629e+00  3.14943664e+00  3.21541179e+00  3.22498957e+00  3.26531693e+00
  3.29075072e+00  3.29077758e+00  3.36586398e+00  3.46021235e+00  3.55709919e+00
  3.66985957e+00  3.72544626e+00  3.76757085e+00  3.81728896e+00  3.89837785e+00
  3.90630620e+00  4.03758608e+00  4.20696588e+00  4.36967826e+00  4.40023593e+00
  4.47850732e+00  4.52193097e+00  4.52823164e+00  5.24852950e+00  5.28977345e+00
  5.47020923e+00  2.46493459e+01  2.50906232e+01  2.51071728e+01  2.52424046e+01
  2.52762982e+01  2.53667473e+01  3.70528395e+01
Alpha MO coefficients                      R   N=       28224
  5.57607838e-01  4.68213720e-01  3.27715833e-04 -1.47651254e-06 -1.37557984e-03
  5.34505942e-03 -8.79963946e-05  5.27267880e-07  5.16556112e-04 -2.21017999e-03
 -6.42931834e-04 -9.46684068e-08 -9.62960623e-07  1.12762745e-04 -2.48566425e-05
  1.92352495e-07 -2.65625421e-05 -3.77008993e-08  1.32627191e-05 -3.79919603e-05
 -9.43082147e-05  8.79868136e-09  1.82704333e-05  2.66584659e-04 -2.27241029e-04
 -8.52316978e-08 -3.50267434e-05 -1.13741351e-04 -2.07106838e-03 -1.57968983e-07
  1.45772324e-04 -2.94575449e-05  3.56550862e-05  1.26650065e-07  1.53278102e-04
  5.50296076e-08 -7.54203035e-08  2.93686024e-06  4.18590711e-06  1.86746659e-05
  2.28829177e-06 -4.57872204e-05 -2.55018965e-06 -9.80491553e-05 -4.47195137e-06
  1.11331456e-03  6.64344681e-04 -6.74991036e-04 -3.13637327e-05 -1.35326222e-05
 -6.53906460e-06  4.74050684e-06  7.76759674e-06  3.17764707e-05 -7.54201535e-08
  2.93668025e-06  4.18520445e-06 -1.86667299e-05  2.33190965e-06 -4.57912614e-05
 -2.52332658e-06  9.80027230e-05 -4.70306141e-06  1.11295886e-03  6.64235491e-04
  6.74780901e-04 -3.28961857e-05 -1.35174866e-05 -6.47134184e-06 -4.77754811e-06
  7.78209733e-06 -3.17806141e-05 -6.17643785e-07  1.65349903e-06 -7.19499708e-06
 -3.78730015e-07 -1.44195683e-06 -9.82813445e-06  4.12401527e-05  8.13031838e-06
  4.63417898e-06 -8.86025934e-04  2.31573856e-04  2.08854173e-04 -1.56289671e-05
 -4.85372547e-06 -2.33378091e-06  5.45077730e-07 -7.98856659e-06  6.58597855e-06
 -6.17856657e-07  1.65447650e-06 -7.19419094e-06  3.74290910e-07 -1.44244872e-06
 -9.84343047e-06  4.12479230e-05 -8.11187392e-06  4.65213806e-06 -8.85948740e-04
  2.31539005e-04 -2.08851576e-04 -1.51740773e-05 -4.85466636e-06 -2.31739801e-06
 -5.84469387e-07 -7.98889443e-06 -6.59002076e-06 -6.09178038e-07  3.52605973e-06
 -9.83880739e-07 -2.35397575e-09 -4.96266962e-07 -3.73781122e-05  8.58230366e-06
  9.35816067e-09  2.68001619e-07  4.90634459e-04 -2.94856883e-04  1.34749951e-08
  1.38100081e-05 -6.40659776e-06  3.46581085e-07 -1.58918513e-08 -1.96164251e-06
 -3.22483383e-09 -2.15449705e-05  2.36065264e-04  1.54308149e-04  1.98158131e-05
 -2.87601520e-05 -2.44505202e-06 -2.15458508e-05  2.36014263e-04  1.54266381e-04
  1.98142473e-05  2.87479351e-05 -2.50401633e-06 -5.05002404e-06 -3.92324160e-06
 -2.57767212e-05 -1.74068540e-06  3.15035734e-06  8.24616047e-07 -5.04948639e-06
 -3.92830896e-06 -2.57696729e-05 -1.73401759e-06 -3.14711528e-06  8.32616487e-07
 -7.31764899e-06  3.90671443e-05  5.15521463e-05  1.43108480e-06 -9.37295868e-11
 -5.04920950e-07  2.44633203e-04  2.00609710e-04  6.52194805e-06  6.93236640e-05
  5.13581259e-05 -2.30114509e-05  2.44625128e-04  2.00630353e-04  6.50581979e-06
  6.93558921e-05 -5.13993663e-05 -2.28910337e-05  1.16133456e-04  1.97360989e-04
 -1.16003514e-04  2.49629013e-08  2.68202770e-05 -5.62617875e-04 -6.29070838e-04
 -1.79901588e-07 -2.42393907e-05  1.43341907e-03  5.15486792e-04 -8.45862310e-08
 -8.78558929e-05  2.98034341e-05  6.05117752e-05 -1.88102309e-07 -2.36072950e-04
 -4.67777934e-08 -5.63332688e-01 -4.66519043e-01  8.38349550e-04  2.64150892e-07
 -8.07162539e-05 -4.04002313e-03 -8.76745253e-04 -6.40895988e-07  6.65665028e-05
  3.92837013e-04  2.02968995e-03  6.76923633e-07 -9.19805820e-05  4.15323144e-04
  3.87419089e-06  1.12265750e-06  2.48026474e-04 -3.14125226e-07 -6.00032505e-03
 -4.92354500e-03  1.10329674e-04  1.90781527e-04 -3.32474230e-06 -2.25039089e-04
  3.36353736e-05  2.85421976e-05 -4.21661162e-06 -1.11174466e-03 -6.95236811e-04
  5.69813514e-04  3.26788105e-05 -6.36848895e-05 -2.41305745e-06  3.63186606e-06
  3.34749001e-06 -6.38736061e-05 -5.99846353e-03 -4.92196765e-03  1.10287073e-04
 -1.90676774e-04 -2.88592090e-06 -2.25212609e-04  3.39339714e-05 -2.90860992e-05
 -4.15542148e-06 -1.11135179e-03 -6.95827693e-04 -5.69524644e-04  3.39997731e-05
 -6.35756464e-05 -2.55543474e-06 -3.88645567e-06  3.48469330e-06  6.40633347e-05
 -2.56684001e-05 -2.28749497e-05  3.50616559e-06 -7.15344259e-06 -7.14421965e-09
  9.76035033e-06 -2.66106220e-05  1.06111664e-05  7.89077601e-07  8.43908084e-04
 -3.19968218e-04 -7.02589821e-05  9.24031306e-06  1.73175875e-06  2.71824941e-07
  1.35490560e-06  8.62581400e-06 -4.30241184e-05 -2.56951916e-05 -2.28900892e-05
  3.49280079e-06  7.14344104e-06 -2.24097273e-08  9.71908283e-06 -2.64981796e-05
 -1.05702814e-05  8.08596235e-07  8.44276991e-04 -3.20294996e-04  7.02350941e-05
  9.11852727e-06  1.74403801e-06  1.74487179e-07 -1.32740501e-06  8.55845261e-06
  4.30318216e-05  8.86269592e-05  6.98724072e-05  6.86556327e-07 -7.27093835e-09
 -6.69237746e-09  3.13336811e-05 -1.34816567e-05  3.97384341e-08 -9.01406943e-08
 -1.94170850e-04  2.70843129e-04 -1.13889989e-07 -8.74035108e-06  9.13857833e-06
  3.55519262e-08  3.96024922e-08  1.71581071e-05 -2.12734712e-08 -1.88165767e-06
 -1.11691769e-04 -2.15082198e-04  1.96057957e-05  2.19895391e-05 -1.03116726e-07
 -1.88568682e-06 -1.11886314e-04 -2.15039366e-04  1.95750839e-05 -2.20587689e-05
 -5.61371889e-08  8.15403064e-06 -2.60341227e-05  1.57091596e-05  1.42939519e-05
 -1.06419161e-05 -2.48009028e-07  8.14524598e-06 -2.60133762e-05  1.57489518e-05
  1.42956339e-05  1.06419957e-05 -2.73893919e-07  6.76831495e-06 -7.04266742e-05
 -5.19416898e-05  4.20663627e-06  1.56726004e-09 -3.26726133e-07 -1.99738704e-05
 -1.67815431e-04  1.13104209e-04 -5.69648436e-05 -8.29176307e-05 -3.28863249e-05
 -1.99685263e-05 -1.67771267e-04  1.13127300e-04 -5.69780859e-05  8.28191318e-05
 -3.30599482e-05 -5.96542455e-07 -1.76069063e-06 -3.85746579e-07  8.10961108e-08
 -1.03976035e-06  1.28764254e-05  8.75817331e-06 -2.27476748e-07  2.31352081e-06
 -7.57730416e-05 -4.85809075e-05 -4.12129681e-06 -8.47062471e-06  1.78508395e-06
  1.26201614e-06  8.08519376e-08 -4.52970892e-06 -4.53562362e-07 -4.82262689e-04
 -4.07356740e-04  2.81337033e-06 -4.91249318e-07 -2.83782244e-07  5.49073972e-05
  1.23431829e-05 -1.37224233e-06  2.00711661e-07 -8.07173467e-04 -3.79027077e-04
  2.55515717e-05  2.14442829e-05  8.43264563e-06 -1.73776598e-06  1.48100211e-07
  3.71950947e-05 -1.22276411e-06  1.97738329e-02  1.63384540e-02  1.46839922e-04
  2.28194446e-06 -5.84382811e-06  3.12782339e-04  8.28337201e-05 -6.90491218e-06
 -2.68820598e-06  5.21455760e-04  1.06578063e-04 -4.63895851e-04 -7.65968173e-06
  2.49979590e-05 -1.20985054e-06 -5.20229343e-08  7.07973831e-05  7.74662524e-06
  2.17259229e-02  1.79515898e-02  1.60755441e-04 -2.11214155e-06 -6.42177818e-06
  3.43355746e-04  8.98762261e-05  6.31379915e-06 -2.84392989e-06  5.66967331e-04
  8.96450324e-05  4.89026282e-04 -8.40408362e-06  2.79517955e-05 -1.24198163e-06
  2.91539339e-07  7.65379208e-05 -6.83417907e-06  3.79156200e-01  3.14023572e-01
  2.38133282e-05  1.13571173e-04 -5.95467867e-06  2.86417871e-03 -6.60533879e-05
 -1.95437115e-04  4.16159119e-06 -7.95373185e-04  1.41153654e-04  5.58787918e-04
 -4.42960440e-06 -2.90901816e-04 -1.97440446e-05  2.04641806e-06  5.07013976e-06
 -6.48240286e-05  4.14473244e-01  3.43274164e-01  2.53403832e-05 -1.24601236e-04
 -6.17961412e-06  3.12777192e-03 -7.29003217e-05  2.12306964e-04  4.07272132e-06
 -7.98243980e-04  1.58797422e-04 -5.83513748e-04 -3.75384438e-06 -3.18635524e-04
 -2.19582261e-05 -3.51715539e-06  9.98318101e-06  7.19961206e-05  3.01869600e-02
  2.49256643e-02 -1.59602009e-04 -1.22801625e-05  6.19211502e-06  5.54875365e-04
 -4.28303481e-05 -4.77042084e-06  1.50283845e-06  8.54920324e-04 -5.27231394e-04
  8.81289966e-06  1.94535970e-05  7.56461336e-05  7.26054313e-06 -6.28595197e-08
 -5.44786492e-05  4.48471045e-06  1.64534555e-05  7.17572223e-05  1.12991244e-04
  2.61361823e-05  2.90306509e-06 -1.15297452e-06  1.85016098e-05  6.86061838e-05
  1.18170964e-04  2.81971338e-05 -4.21574065e-06 -1.21667202e-06  2.94525038e-04
 -1.67540263e-04  2.77616268e-05  8.75584787e-06 -1.02172554e-05 -7.07198027e-07
  3.22043512e-04 -1.84335257e-04  3.26382553e-05  7.78394380e-06  1.01973222e-05
 -7.21734461e-07  3.08016847e-05  1.77934038e-05  1.57734695e-04 -3.01065492e-06
 -2.09108655e-06  3.14155642e-07  9.29979992e-08 -7.13603072e-06 -2.20776025e-05
  6.64142947e-07 -6.73426544e-07 -2.93766522e-07  2.86837279e-07 -6.36574990e-06
 -2.03349105e-05  3.85310365e-07  6.92489790e-07  1.65259651e-07 -2.69092266e-08
 -7.93477009e-08 -1.61565137e-08 -1.83769454e-06 -4.43151264e-08  5.77313388e-07
  3.90411468e-07  5.18074412e-06  9.68768932e-08 -3.42764838e-06 -2.18495538e-06
  9.32096096e-05 -4.89465505e-07  8.15236418e-08  4.40233152e-08 -1.87912260e-06
 -2.00107394e-07  1.01774015e-05 -2.10650490e-05 -1.78013119e-05  1.21780116e-07
  1.05977395e-05 -2.34416310e-08  2.46986557e-06  5.52400149e-07  3.23591093e-05
 -3.25572112e-08 -3.63136801e-05 -1.70209035e-05 -5.81415050e-04  1.64767355e-06
  3.73368879e-07 -1.10000407e-07 -2.03184110e-06  1.63672982e-06  2.81444644e-05
  2.24476657e-02  1.85487857e-02  1.62409978e-04 -1.89098907e-06 -6.73872302e-06
  3.56256609e-04  8.79811157e-05  6.43445799e-06 -1.81973138e-06  5.40133263e-04
 -1.89353477e-04 -3.09440442e-04  3.93601918e-06  3.39020352e-05 -7.12561411e-07
  4.71126166e-07  6.97132943e-05 -1.03874374e-05 -2.06418047e-02 -1.70567522e-02
 -1.48806068e-04 -2.08818747e-06  6.20564647e-06 -3.27291402e-04 -7.99727120e-05
  7.06035407e-06  1.54772899e-06 -4.91457783e-04  1.97990669e-04 -2.66744662e-04
 -3.99519936e-06 -3.15911655e-05  6.19397118e-07  2.07522337e-07 -6.30529727e-05
 -1.10292565e-05  4.14987895e-01  3.43704701e-01  1.53372029e-05  1.30180685e-04
 -6.07690970e-06  3.09968350e-03 -7.03757254e-05 -2.02781071e-04  4.37442093e-06
 -7.15564417e-05  1.99630347e-04  3.09048036e-04 -7.27217449e-06 -3.25910647e-04
 -2.36861854e-05  2.93065798e-06  5.02398868e-05 -8.69141098e-05 -3.79715508e-01
 -3.14491489e-01 -1.33820726e-05  1.19533755e-04  5.24592834e-06 -2.83336309e-03
  6.49233311e-05 -1.84390636e-04 -3.58776508e-06  8.78652630e-07 -1.86597467e-04
  2.58177796e-04  6.27818618e-06  2.98792571e-04  2.20493160e-05  3.78975051e-06
 -4.99990073e-05 -8.06276769e-05  1.35420131e-03  1.11822596e-03 -7.14773296e-06
  2.77829489e-04 -3.93555361e-08  2.46713898e-05 -1.69405980e-06  1.00641187e-04
 -5.56162441e-08  3.80215976e-05 -2.33137641e-05 -1.90823326e-04  1.07485494e-06
  3.40637514e-06  4.33521709e-07  3.22397223e-06 -2.37760346e-06 -9.79807471e-05
  2.35318940e-05 -3.05916893e-05  6.33302696e-05  2.47773982e-05  1.45286497e-05
 -9.19473700e-07 -2.20030563e-05  3.69763238e-05 -5.30711791e-05 -2.23348238e-05
  1.42500357e-05  7.80568080e-07  3.23558410e-04 -1.98299992e-04  5.60859790e-05
 -9.55823340e-06 -2.13855985e-07  1.87829792e-08 -2.96146214e-04  1.82565688e-04
 -5.33587976e-05  1.03757122e-05  6.87837909e-07 -8.71717302e-08  1.36974429e-06
  6.55490220e-07  7.02892719e-06 -8.05034783e-08  4.70093253e-05 -4.08046212e-08
  2.18773242e-06  8.56526207e-06  1.86783820e-05 -3.11359454e-06 -2.09732749e-07
  5.23582982e-06 -2.16891671e-06 -9.17659810e-06 -2.05668110e-05  3.15508942e-06
 -1.58346180e-07 -5.23794991e-06 -2.62605083e-06 -1.56795307e-06  7.61469274e-06
 -1.13710428e-05  6.78595815e-07 -1.69719808e-05 -1.58470312e-05  1.89629403e-05
 -4.96593101e-06  1.16610802e-04  6.87391304e-05  1.71556307e-05 -1.01468474e-05
 -2.91891017e-06  1.38202696e-06  1.47450003e-07 -1.49183694e-06  2.45606577e-05
  3.06388048e-03  2.56826179e-03 -5.99538971e-05  2.59228332e-04  2.01499290e-06
 -1.19507726e-04 -1.89479087e-05  1.78508741e-04 -4.03966708e-07 -2.94066082e-04
 -1.39533931e-05 -3.40620256e-04  1.59053034e-06 -3.04582718e-05 -3.68987764e-06
 -4.60589256e-06  2.12789817e-05  1.11024737e-04  2.32486718e-01  1.92557773e-01
 -6.89434958e-05  1.15157459e-05 -2.04439743e-06  1.79754735e-03  9.71520229e-05