
    -----------------------------------------------------------------------
          Psi4: An Open-Source Ab Initio Electronic Structure Package
                               Psi4 1.6 release

                         Git: Rev {HEAD} 77475b5 


    D. G. A. Smith, L. A. Burns, A. C. Simmonett, R. M. Parrish,
    M. C. Schieber, R. Galvelis, P. Kraus, H. Kruse, R. Di Remigio,
    A. Alenaizan, A. M. James, S. Lehtola, J. P. Misiewicz, M. Scheurer,
    R. A. Shaw, J. B. Schriber, Y. Xie, Z. L. Glick, D. A. Sirianni,
    J. S. O'Brien, J. M. Waldrop, A. Kumar, E. G. Hohenstein,
    B. P. Pritchard, B. R. Brooks, H. F. Schaefer III, A. Yu. Sokolov,
    K. Patkowski, A. E. DePrince III, U. Bozkaya, R. A. King,
    F. A. Evangelista, J. M. Turney, T. D. Crawford, C. D. Sherrill,
    J. Chem. Phys. 152(18) 184108 (2020). https://doi.org/10.1063/5.0006002

                            Additional Code Authors
    E. T. Seidl, C. L. Janssen, E. F. Valeev, M. L. Leininger,
    J. F. Gonthier, R. M. Richard, H. R. McAlexander, M. Saitow, X. Wang,
    P. Verma, M. H. Lechner, and A. Jiang

             Previous Authors, Complete List of Code Contributors,
                       and Citations for Specific Modules
    https://github.com/psi4/psi4/blob/master/codemeta.json
    https://github.com/psi4/psi4/graphs/contributors
    http://psicode.org/psi4manual/master/introduction.html#citing-psifour

    -----------------------------------------------------------------------


    Psi4 started on: Saturday, 18 November 2023 09:16AM

    Process ID: 1140645
    Host:       node165.bme.utexas.edu
    PSIDATADIR: /home/liuchw/anaconda3/envs/poltype2022/share/psi4
    Memory:     500.0 MiB
    Threads:    1
    
  ==> Input File <==

--------------------------------------------------------------------------
molecule { 
0 1
 H    1.048685    1.200308    1.186917
 N    0.936383    0.735711    0.292498
 C   -0.411845    0.608940   -0.018039
 C   -1.143428   -0.680721    0.097101
 C    1.920612   -0.233921    0.122074
 C   -1.149653    1.744164   -0.167476
 C   -2.562713    1.867113   -0.430736
 N   -1.716606    3.931652   -0.260309
 C   -0.629204    3.120412   -0.037040
 C   -2.853223    3.179351   -0.493940
 C   -1.539843   -1.065278    1.373745
 C   -1.395137   -1.529861   -0.974055
 C   -2.197760   -2.266280    1.569112
 C   -2.054781   -2.729930   -0.775906
 C   -2.451349   -3.103772    0.496555
 C    1.837661   -1.284913   -0.787676
 C    3.134416   -0.025630    0.785859
 C    2.910576   -2.139156   -0.967528
 C    4.200930   -0.878993    0.597974
 C    4.092804   -1.950264   -0.274946
 H   -1.679693    4.936878   -0.241042
 O    0.485860    3.507969    0.257728
 H   -1.341852   -0.414059    2.213226
 H   -1.124077   -1.223930   -1.974806
 H   -2.508777   -2.549663    2.563763
 H   -2.254017   -3.377149   -1.617285
 H   -2.960771   -4.043131    0.651409
 H    0.941804   -1.437898   -1.361910
 H    3.225184    0.814176    1.460576
 H    2.820176   -2.956461   -1.668219
 H    5.125559   -0.703050    1.127843
 H   -3.236979    1.046428   -0.573535
 H   -3.792002    3.663446   -0.686362
 H    4.926453   -2.619488   -0.423511
}
memory 20GB
set_num_threads(5)
psi4_io.set_default_path("/scratch/liuchw/Psi4-1_7_Index_0-farH_in17")
set freeze_core True
E, wfn = energy('wb97x-d/6-311+G*',return_wfn=True)
oeprop(wfn,"WIBERG_LOWDIN_INDICES")
clean()
--------------------------------------------------------------------------

  Memory set to  18.626 GiB by Python driver.
  Threads set to 5 by Python driver.

Scratch directory: /scratch/liuchw/Psi4-1_7_Index_0-farH_in17/

*** tstart() called on node165.bme.utexas.edu
*** at Sat Nov 18 09:16:33 2023

   => Loading Basis Set <=

    Name: 6-311+G*
    Role: ORBITAL
    Keyword: BASIS
    atoms 1, 21, 23-34 entry H          line    47 file /home/liuchw/anaconda3/envs/poltype2022/share/psi4/basis/6-311pgs.gbs 
    atoms 2, 8         entry N          line   151 file /home/liuchw/anaconda3/envs/poltype2022/share/psi4/basis/6-311pgs.gbs 
    atoms 3-7, 9-20    entry C          line   130 file /home/liuchw/anaconda3/envs/poltype2022/share/psi4/basis/6-311pgs.gbs 
    atoms 22           entry O          line   172 file /home/liuchw/anaconda3/envs/poltype2022/share/psi4/basis/6-311pgs.gbs 

   => WB97X-D: Empirical Dispersion <=

    Chai and Head-Gordon Dispersion Correction
    Chai, J.-D.; Head-Gordon, M. (2010), J. Chem. Phys., 132: 6615-6620

        s6 =       1.000000


         ---------------------------------------------------------
                                   SCF
               by Justin Turney, Rob Parrish, Andy Simmonett
                          and Daniel G. A. Smith
                              RKS Reference
                        5 Threads,  19073 MiB Core
         ---------------------------------------------------------

  ==> Geometry <==

    Molecular point group: c1
    Full point group: C1

    Geometry (in Angstrom), charge = 0, multiplicity = 1:

       Center              X                  Y                   Z               Mass       
    ------------   -----------------  -----------------  -----------------  -----------------
         H            1.077200147794     1.103712654325     1.161674894106     1.007825032230
         N            0.964898147794     0.639115654325     0.267255894106    14.003074004430
         C           -0.383329852206     0.512344654325    -0.043281105894    12.000000000000
         C           -1.114912852206    -0.777316345675     0.071858894106    12.000000000000
         C            1.949127147794    -0.330516345675     0.096831894106    12.000000000000
         C           -1.121137852206     1.647568654325    -0.192718105894    12.000000000000
         C           -2.534197852206     1.770517654325    -0.455978105894    12.000000000000
         N           -1.688090852206     3.835056654325    -0.285551105894    14.003074004430
         C           -0.600688852206     3.023816654325    -0.062282105894    12.000000000000
         C           -2.824707852206     3.082755654325    -0.519182105894    12.000000000000
         C           -1.511327852206    -1.161873345675     1.348502894106    12.000000000000
         C           -1.366621852206    -1.626456345675    -0.999297105894    12.000000000000
         C           -2.169244852206    -2.362875345675     1.543869894106    12.000000000000
         C           -2.026265852206    -2.826525345675    -0.801148105894    12.000000000000
         C           -2.422833852206    -3.200367345675     0.471312894106    12.000000000000
         C            1.866176147794    -1.381508345675    -0.812918105894    12.000000000000
         C            3.162931147794    -0.122225345675     0.760616894106    12.000000000000
         C            2.939091147794    -2.235751345675    -0.992770105894    12.000000000000
         C            4.229445147794    -0.975588345675     0.572731894106    12.000000000000
         C            4.121319147794    -2.046859345675    -0.300188105894    12.000000000000
         H           -1.651177852206     4.840282654325    -0.266284105894     1.007825032230
         O            0.514375147794     3.411373654325     0.232485894106    15.994914619570
         H           -1.313336852206    -0.510654345675     2.187983894106     1.007825032230
         H           -1.095561852206    -1.320525345675    -2.000048105894     1.007825032230
         H           -2.480261852206    -2.646258345675     2.538520894106     1.007825032230
         H           -2.225501852206    -3.473744345675    -1.642527105894     1.007825032230
         H           -2.932255852206    -4.139726345675     0.626166894106     1.007825032230
         H            0.970319147794    -1.534493345675    -1.387152105894     1.007825032230
         H            3.253699147794     0.717580654325     1.435333894106     1.007825032230
         H            2.848691147794    -3.053056345675    -1.693461105894     1.007825032230
         H            5.154074147794    -0.799645345675     1.102600894106     1.007825032230
         H           -3.208463852206     0.949832654325    -0.598777105894     1.007825032230
         H           -3.763486852206     3.566850654325    -0.711604105894     1.007825032230
         H            4.954968147794    -2.716083345675    -0.448753105894     1.007825032230

  Running in c1 symmetry.

  Rotational constants: A =      0.01426  B =      0.00976  C =      0.00642 [cm^-1]
  Rotational constants: A =    427.43855  B =    292.68071  C =    192.56552 [MHz]
  Nuclear repulsion = 1425.666980311312273

  Charge       = 0
  Multiplicity = 1
  Electrons    = 138
  Nalpha       = 69
  Nbeta        = 69

  ==> Algorithm <==

  SCF Algorithm Type is DF.
  DIIS enabled.
  MOM disabled.
  Fractional occupation disabled.
  Guess Type is SAD.
  Energy threshold   = 1.00e-06
  Density threshold  = 1.00e-06
  Integral threshold = 1.00e-12

  ==> Primary Basis <==

  Basis Set: 6-311+G*
    Blend: 6-311+G*
    Number of shells: 242
    Number of basis functions: 482
    Number of Cartesian functions: 502
    Spherical Harmonics?: true
    Max angular momentum: 2

  ==> DFT Potential <==

   => LibXC <=

    Version 5.1.5
    S. Lehtola, C. Steigemann, M. J. Oliveira, and M. A. Marques, SoftwareX 7, 1 (2018) (10.1016/j.softx.2017.11.002)

   => Composite Functional: WB97X-D <= 

    wB97X-D Hyb-GGA Exchange-Correlation Functional

    J.-D. Chai and M. Head-Gordon, Phys. Chem. Chem. Phys. 10, 6615 (2008) (10.1039/B810189B)

    Deriv               =              1
    GGA                 =           TRUE
    Meta                =          FALSE

    Exchange Hybrid     =           TRUE
    MP2 Hybrid          =          FALSE

   => Exchange-Correlation Functionals <=

    1.0000   wB97X-D range-separated functional

   => Exact (HF) Exchange <=

    0.7780            HF,LR [omega = 0.2000]
    0.2220               HF 

   => LibXC Density Thresholds  <==

    XC_HYB_GGA_XC_WB97X_D:  1.00E-14 

   => Molecular Quadrature <=

    Radial Scheme          =       TREUTLER
    Pruning Scheme         =           NONE
    Nuclear Scheme         =       TREUTLER

    Blocking Scheme        =         OCTREE
    BS radius alpha        =              1
    Pruning alpha          =              1
    Radial Points          =             75
    Spherical Points       =            302
    Total Points           =         703603
    Total Blocks           =           5061
    Max Points             =            256
    Max Functions          =            381
    Weights Tolerance      =       1.00E-15

   => Loading Basis Set <=

    Name: (6-311+G* AUX)
    Role: JKFIT
    Keyword: DF_BASIS_SCF
    atoms 1, 21, 23-34 entry H          line   116 file /home/liuchw/anaconda3/envs/poltype2022/share/psi4/basis/heavy-aug-cc-pvtz-jkfit.gbs 
    atoms 2, 8         entry N          line   262 file /home/liuchw/anaconda3/envs/poltype2022/share/psi4/basis/heavy-aug-cc-pvtz-jkfit.gbs 
    atoms 3-7, 9-20    entry C          line   200 file /home/liuchw/anaconda3/envs/poltype2022/share/psi4/basis/heavy-aug-cc-pvtz-jkfit.gbs 
    atoms 22           entry O          line   324 file /home/liuchw/anaconda3/envs/poltype2022/share/psi4/basis/heavy-aug-cc-pvtz-jkfit.gbs 

  ==> Integral Setup <==

  DFHelper Memory: AOs need 10.764 GiB; user supplied 10.764 GiB. Using in-core AOs.

  ==> MemDFJK: Density-Fitted J/K Matrices <==

    J tasked:                   Yes
    K tasked:                   Yes
    wK tasked:                  Yes
    Omega:                2.000E-01
    OpenMP threads:               5
    Memory [MiB]:             11021
    Algorithm:                 Core
    Schwarz Cutoff:           1E-12
    Mask sparsity (%):      17.8742
    Fitting Condition:        1E-10

   => Auxiliary Basis Set <=

  Basis Set: (6-311+G* AUX)
    Blend: HEAVY-AUG-CC-PVTZ-JKFIT
    Number of shells: 740
    Number of basis functions: 2500
    Number of Cartesian functions: 3110
    Spherical Harmonics?: true
    Max angular momentum: 4

  Cached 50.0% of DFT collocation blocks in 2.732 [GiB].

  Minimum eigenvalue in the overlap matrix is 2.4180263665E-07.
  Reciprocal condition number of the overlap matrix is 1.4137434364E-08.
    Using symmetric orthogonalization.

  ==> Pre-Iterations <==

  SCF Guess: Superposition of Atomic Densities via on-the-fly atomic UHF (no occupation information).

   -------------------------
    Irrep   Nso     Nmo    
   -------------------------
     A        482     482 
   -------------------------
    Total     482     482
   -------------------------

  ==> Iterations <==

                           Total Energy        Delta E     RMS |[F,P]|

   @DF-RKS iter SAD:  -840.62810569746921   -8.40628e+02   0.00000e+00 
   @DF-RKS iter   1:  -839.98775334998436    6.40352e-01   2.71215e-03 ADIIS/DIIS
   @DF-RKS iter   2:  -840.36414832155970   -3.76395e-01   2.16990e-03 ADIIS/DIIS
   @DF-RKS iter   3:  -840.82896349475413   -4.64815e-01   3.77659e-04 ADIIS/DIIS
   @DF-RKS iter   4:  -840.83912393230628   -1.01604e-02   1.75957e-04 ADIIS/DIIS
   @DF-RKS iter   5:  -840.84182375666023   -2.69982e-03   3.81003e-05 DIIS
   @DF-RKS iter   6:  -840.84196599453389   -1.42238e-04   1.26949e-05 DIIS
   @DF-RKS iter   7:  -840.84198474086293   -1.87463e-05   3.55048e-06 DIIS
   @DF-RKS iter   8:  -840.84198658357468   -1.84271e-06   1.51835e-06 DIIS
   @DF-RKS iter   9:  -840.84198710691135   -5.23337e-07   5.75401e-07 DIIS
  Energy and wave function converged.


  ==> Post-Iterations <==

   Electrons on quadrature grid:
      Ntotal   =  138.0000614057 ; deviation = 6.141e-05 

    Orbital Energies [Eh]
    ---------------------

    Doubly Occupied:                                                      

       1A    -19.213043     2A    -14.468204     3A    -14.460847  
       4A    -10.385115     5A    -10.354744     6A    -10.329537  
       7A    -10.328309     8A    -10.312826     9A    -10.301299  
      10A    -10.301082    11A    -10.299187    12A    -10.298790  
      13A    -10.298123    14A    -10.295555    15A    -10.283806  
      16A    -10.283674    17A    -10.280944    18A    -10.279717  
      19A    -10.278798    20A    -10.275243    21A     -1.147042  
      22A     -1.068569    23A     -1.066263    24A     -0.982392  
      25A     -0.956864    26A     -0.916197    27A     -0.875140  
      28A     -0.865084    29A     -0.849011    30A     -0.848391  
      31A     -0.816242    32A     -0.773023    33A     -0.720865  
      34A     -0.719287    35A     -0.712199    36A     -0.698205  
      37A     -0.684533    38A     -0.653415    39A     -0.635501  
      40A     -0.620072    41A     -0.605052    42A     -0.586488  
      43A     -0.577005    44A     -0.562727    45A     -0.554754  
      46A     -0.535531    47A     -0.532921    48A     -0.528337  
      49A     -0.524627    50A     -0.520725    51A     -0.519880  
      52A     -0.508183    53A     -0.504186    54A     -0.489734  
      55A     -0.477803    56A     -0.469179    57A     -0.448221  
      58A     -0.444819    59A     -0.440910    60A     -0.424863  
      61A     -0.420741    62A     -0.412338    63A     -0.372802  
      64A     -0.345330    65A     -0.344455    66A     -0.338241  
      67A     -0.328183    68A     -0.300616    69A     -0.265027  

    Virtual:                                                              

      70A     -0.002589    71A      0.039590    72A      0.043873  
      73A      0.051246    74A      0.059358    75A      0.060457  
      76A      0.067945    77A      0.069482    78A      0.076839  
      79A      0.079975    80A      0.080127    81A      0.086627  
      82A      0.093542    83A      0.097940    84A      0.101606  
      85A      0.104666    86A      0.106907    87A      0.111328  
      88A      0.114133    89A      0.122800    90A      0.124104  
      91A      0.126034    92A      0.134857    93A      0.141215  
      94A      0.142004    95A      0.143871    96A      0.151339  
      97A      0.156323    98A      0.163662    99A      0.166334  
     100A      0.170499   101A      0.177788   102A      0.179319  
     103A      0.180154   104A      0.184994   105A      0.187603  
     106A      0.193745   107A      0.194725   108A      0.201326  
     109A      0.204669   110A      0.206274   111A      0.210557  
     112A      0.212732   113A      0.214291   114A      0.217375  
     115A      0.219710   116A      0.223276   117A      0.224987  
     118A      0.227715   119A      0.238804   120A      0.241850  
     121A      0.242596   122A      0.243788   123A      0.248821  
     124A      0.251763   125A      0.255240   126A      0.256830  
     127A      0.259811   128A      0.264788   129A      0.266475  
     130A      0.270850   131A      0.271221   132A      0.271989  
     133A      0.275530   134A      0.276615   135A      0.279451  
     136A      0.284488   137A      0.287574   138A      0.288439  
     139A      0.293032   140A      0.294518   141A      0.298555  
     142A      0.300594   143A      0.305862   144A      0.308901  
     145A      0.315828   146A      0.316796   147A      0.320574  
     148A      0.321516   149A      0.323994   150A      0.329441  
     151A      0.330851   152A      0.333868   153A      0.338579  
     154A      0.341725   155A      0.342686   156A      0.350693  
     157A      0.353365   158A      0.355851   159A      0.360106  
     160A      0.364874   161A      0.368034   162A      0.376014  
     163A      0.379279   164A      0.383166   165A      0.392083  
     166A      0.393517   167A      0.399097   168A      0.401505  
     169A      0.405724   170A      0.412579   171A      0.416814  
     172A      0.421415   173A      0.425032   174A      0.430056  
     175A      0.432258   176A      0.439810   177A      0.447609  
     178A      0.451502   179A      0.454767   180A      0.460702  
     181A      0.462867   182A      0.474238   183A      0.490227  
     184A      0.493785   185A      0.498008   186A      0.512705  
     187A      0.540668   188A      0.550096   189A      0.557615  
     190A      0.571817   191A      0.586639   192A      0.601178  
     193A      0.612628   194A      0.615035   195A      0.618674  
     196A      0.622336   197A      0.623871   198A      0.633217  
     199A      0.635211   200A      0.637843   201A      0.648127  
     202A      0.649432   203A      0.652756   204A      0.663507  
     205A      0.665847   206A      0.678875   207A      0.679642  
     208A      0.689072   209A      0.703135   210A      0.711747  
     211A      0.714857   212A      0.718719   213A      0.722838  
     214A      0.728799   215A      0.737981   216A      0.750827  
     217A      0.757043   218A      0.759640   219A      0.765370  
     220A      0.769290   221A      0.775960   222A      0.777357  
     223A      0.783798   224A      0.794128   225A      0.798008  
     226A      0.802096   227A      0.807452   228A      0.810283  
     229A      0.812101   230A      0.818738   231A      0.823891  
     232A      0.831393   233A      0.834050   234A      0.838068  
     235A      0.847307   236A      0.853353   237A      0.857301  
     238A      0.860453   239A      0.873611   240A      0.876138  
     241A      0.879594   242A      0.887227   243A      0.900552  
     244A      0.907875   245A      0.916344   246A      0.923212  
     247A      0.929499   248A      0.932920   249A      0.934082  
     250A      0.943884   251A      0.948004   252A      0.950278  
     253A      0.955058   254A      0.962128   255A      0.963035  
     256A      0.981952   257A      0.985529   258A      1.002583  
     259A      1.003987   260A      1.009030   261A      1.020173  
     262A      1.023001   263A      1.040618   264A      1.050767  
     265A      1.054327   266A      1.068547   267A      1.082835  
     268A      1.088040   269A      1.099294   270A      1.108409  
     271A      1.115327   272A      1.122575   273A      1.132585  
     274A      1.152558   275A      1.155340   276A      1.169723  
     277A      1.170578   278A      1.183060   279A      1.205931  
     280A      1.225639   281A      1.239579   282A      1.242322  
     283A      1.244743   284A      1.257141   285A      1.270223  
     286A      1.291083   287A      1.292320   288A      1.296549  
     289A      1.303796   290A      1.318208   291A      1.332432  
     292A      1.338491   293A      1.347229   294A      1.350493  
     295A      1.366908   296A      1.388698   297A      1.391138  
     298A      1.400345   299A      1.407447   300A      1.433601  
     301A      1.438833   302A      1.462315   303A      1.471243  
     304A      1.531734   305A      1.542383   306A      1.598138  
     307A      1.606470   308A      1.611560   309A      1.617959  
     310A      1.638471   311A      1.647778   312A      1.668156  
     313A      1.673174   314A      1.680039   315A      1.691602  
     316A      1.717449   317A      1.721260   318A      1.750065  
     319A      1.767558   320A      1.813643   321A      1.837408  
     322A      1.857303   323A      1.858230   324A      1.865421  
     325A      1.876345   326A      1.884253   327A      1.888250  
     328A      1.893202   329A      1.895544   330A      1.906128  
     331A      1.918242   332A      1.931461   333A      1.939820  
     334A      1.944210   335A      1.963412   336A      1.971643  
     337A      1.982438   338A      2.003561   339A      2.010388  
     340A      2.022340   341A      2.032381   342A      2.038380  
     343A      2.049632   344A      2.051851   345A      2.065375  
     346A      2.079952   347A      2.086791   348A      2.094764  
     349A      2.104205   350A      2.112858   351A      2.130203  
     352A      2.166184   353A      2.201851   354A      2.217647  
     355A      2.264905   356A      2.273069   357A      2.294564  
     358A      2.321047   359A      2.348368   360A      2.351111  
     361A      2.364649   362A      2.378497   363A      2.391435  
     364A      2.395920   365A      2.414654   366A      2.418373  
     367A      2.431068   368A      2.441070   369A      2.447061  
     370A      2.462962   371A      2.487043   372A      2.505284  
     373A      2.525437   374A      2.534070   375A      2.554724  
     376A      2.565079   377A      2.573093   378A      2.592539  
     379A      2.622774   380A      2.661995   381A      2.679157  
     382A      2.750860   383A      2.758316   384A      2.777869  
     385A      2.799072   386A      2.801756   387A      2.809956  
     388A      2.842116   389A      2.862855   390A      2.875102  
     391A      2.886402   392A      2.896676   393A      2.903506  
     394A      2.917396   395A      2.936497   396A      2.967875  
     397A      2.979441   398A      2.985971   399A      2.988708  
     400A      3.014237   401A      3.021256   402A      3.041003  
     403A      3.049551   404A      3.060936   405A      3.067593  
     406A      3.086004   407A      3.117282   408A      3.129539  
     409A      3.174075   410A      3.191568   411A      3.204041  
     412A      3.226300   413A      3.239061   414A      3.258357  
     415A      3.291227   416A      3.321519   417A      3.373920  
     418A      3.419111   419A      3.421848   420A      3.426169  
     421A      3.438858   422A      3.441713   423A      3.449512  
     424A      3.455463   425A      3.459477   426A      3.471726  
     427A      3.477035   428A      3.482889   429A      3.508916  
     430A      3.533439   431A      3.570953   432A      3.596091  
     433A      3.642875   434A      3.648486   435A      3.671269  
     436A      3.695510   437A      3.719627   438A      3.753283  
     439A      3.778266   440A      3.794496   441A      3.802360  
     442A      3.897209   443A      3.923477   444A      3.982456  
     445A      4.019041   446A      4.101965   447A      4.137770  
     448A      4.154177   449A      4.162498   450A      4.172742  
     451A      4.243393   452A      4.358886   453A      4.481432  
     454A      4.630912   455A      4.656642   456A      4.897963  
     457A      4.916360   458A      5.142046   459A      5.200841  
     460A      5.242450   461A      5.410953   462A      5.931182  
     463A     23.506339   464A     23.536799   465A     23.723489  
     466A     23.944301   467A     24.002714   468A     24.010284  
     469A     24.050492   470A     24.061300   471A     24.065028  
     472A     24.170019   473A     24.191781   474A     24.204616  
     475A     24.228940   476A     24.281317   477A     24.302702  
     478A     24.324896   479A     24.352614   480A     35.660142  
     481A     35.750218   482A     50.216150  

    Final Occupation by Irrep:
              A 
    DOCC [    69 ]

  @DF-RKS Final Energy:  -840.84198710691135

   => Energetics <=

    Nuclear Repulsion Energy =           1425.6669803113122725
    One-Electron Energy =               -3970.1196580602545509
    Two-Electron Energy =                1786.4146801154263358
    DFT Exchange-Correlation Energy =     -82.7797247859364234
    Empirical Dispersion Energy =          -0.0242646874589543
    VV10 Nonlocal Energy =                  0.0000000000000000
    Total Energy =                       -840.8419871069113469

Computation Completed


Properties will be evaluated at   0.000000,   0.000000,   0.000000 [a0]

Properties computed using the SCF density matrix


 Multipole Moments:

 ------------------------------------------------------------------------------------
     Multipole            Electronic (a.u.)      Nuclear  (a.u.)        Total (a.u.)
 ------------------------------------------------------------------------------------

 L = 1.  Multiply by 2.5417464519 to convert [e a0] to [Debye]
 Dipole X            :         -0.9631571           -0.3808169           -1.3439739
 Dipole Y            :          7.9242450           -8.4487609           -0.5245159
 Dipole Z            :         -0.1337074            0.2858558            0.1521484
 Magnitude           :                                                    1.4507005

 ------------------------------------------------------------------------------------

*** tstop() called on node165.bme.utexas.edu at Sat Nov 18 09:17:32 2023
Module time:
	user time   =     277.63 seconds =       4.63 minutes
	system time =       6.02 seconds =       0.10 minutes
	total time  =         59 seconds =       0.98 minutes
Total time:
	user time   =     277.63 seconds =       4.63 minutes
	system time =       6.02 seconds =       0.10 minutes
	total time  =         59 seconds =       0.98 minutes


Properties will be evaluated at   0.000000,   0.000000,   0.000000 [a0]
OEProp: No title given, name of density matrix used for the following properties is 'SCF density'


  Wiberg Bond Indices using Orthogonal Lowdin Orbitals:

  Irrep: 1 Size: 34 x 34

                 1                   2                   3                   4                   5

    1     0.00000000000000     0.76360925154867     0.04149172956363     0.00481550227526     0.04305658668401
    2     0.76360925154867     0.00000000000000     1.25689589523965     0.09582924630068     1.24090870953006
    3     0.04149172956363     1.25689589523965     0.00000000000000     0.98687006971365     0.10144861271211
    4     0.00481550227526     0.09582924630068     0.98687006971365     0.00000000000000     0.02828291803529
    5     0.04305658668401     1.24090870953006     0.10144861271211     0.02828291803529     0.00000000000000
    6     0.01974510805123     0.16059347939694     1.56009046653740     0.13099105785523     0.02294068820805
    7     0.00100357684592     0.01794792391327     0.11729600600986     0.04297121551085     0.00277662111254
    8     0.00043591251281     0.00361282508468     0.01669466343659     0.00305481959122     0.00053791146326
    9     0.00637319223564     0.05010015801200     0.13017609523477     0.01561004973802     0.00516795166459
   10     0.00293950629087     0.01687398964937     0.09001129107041     0.00838331636416     0.00227419963623
   11     0.00132058252712     0.02995210355311     0.12586389034087     1.40806279814893     0.01148228332833
   12     0.00058850750610     0.02033413567917     0.11661415551256     1.41474496078424     0.01195817195011
   13     0.00016854488499     0.00331517222095     0.01739721560251     0.13593172073191     0.00173544272499
   14     0.00014849997569     0.00271052998476     0.01634612157820     0.13682985069079     0.00228214371381
   15     0.00007691225118     0.00394708479716     0.01044865156868     0.13897642820633     0.00107568236918
   16     0.00789266259465     0.13197882545248     0.03619486002285     0.03331578678558     1.38711628532912
   17     0.01607588774719     0.14738579186015     0.02491216354713     0.00479172733228     1.37725967183721
   18     0.00097701972609     0.01752100110462     0.00382796245377     0.00424712413196     0.13661155043468
   19     0.00150678242727     0.01987850587743     0.00342415805134     0.00133789402440     0.13518433998840
   20     0.00072820297474     0.02173011757736     0.00515550500309     0.00154768468502     0.13044147294964
   21     0.00004729453495     0.00031522597728     0.00161834593058     0.00048539915342     0.00006290608106
   22     0.01344367876456     0.07498035939401     0.08758726168490     0.00532733080053     0.00789693997373
   23     0.00019604228633     0.00390217884114     0.01957570873790     0.05599948358972     0.00152720623110
   24     0.00003631535160     0.00107415792740     0.01665094248233     0.05577049108199     0.00168089650129
   25     0.00000561649141     0.00010151016600     0.00128735189306     0.01060559847226     0.00005985996879
   26     0.00000460640586     0.00021701269079     0.00119348484815     0.01077436570316     0.00006327519654
   27     0.00001317543171     0.00003902364497     0.00029151961247     0.00298745788012     0.00001666280051
   28     0.00014845259427     0.01263713548519     0.00878757400086     0.01254419567203     0.05403240323118
   29     0.00266929503978     0.02127993923927     0.00204570305030     0.00030642650302     0.05710368010746
   30     0.00032190174004     0.00088849022706     0.00024403887983     0.00018112839521     0.01082970449869
   31     0.00003329377368     0.00089579851905     0.00037894585410     0.00005639440633     0.01088593763546
   32     0.00001946951242     0.00017930623990     0.01178783716069     0.01169407102325     0.00012507196102
   33     0.00002988266715     0.00045191239937     0.00166050991007     0.00038623678229     0.00012138618844
   34     0.00001671598951     0.00027389082842     0.00006282950373     0.00005706557647     0.00291813848860

                 6                   7                   8                   9                  10

    1     0.01974510805123     0.00100357684592     0.00043591251281     0.00637319223564     0.00293950629087
    2     0.16059347939694     0.01794792391327     0.00361282508468     0.05010015801200     0.01687398964937
    3     1.56009046653740     0.11729600600986     0.01669466343659     0.13017609523477     0.09001129107041
    4     0.13099105785523     0.04297121551085     0.00305481959122     0.01561004973802     0.00838331636416
    5     0.02294068820805     0.00277662111254     0.00053791146326     0.00516795166459     0.00227419963623
    6     0.00000000000000     1.14283527640360     0.13208914180009     1.01261895729781     0.15943777571697
    7     1.14283527640360     0.00000000000000     0.20511997144851     0.12989839995446     1.80179540556731
    8     0.13208914180009     0.20511997144851     0.00000000000000     1.31621175066080     1.28473874923312
    9     1.01261895729781     0.12989839995446     1.31621175066080     0.00000000000000     0.13205512923606
   10     0.15943777571697     1.80179540556731     1.28473874923312     0.13205512923606     0.00000000000000
   11     0.04189151024237     0.01982154072924     0.00115166942909     0.00504987985367     0.00378630697446
   12     0.03410542245812     0.01958466957979     0.00098169150558     0.00367016929545     0.00290676051023
   13     0.00555040342655     0.00330756514664     0.00030928864893     0.00075443284851     0.00075998185350
   14     0.00381759935807     0.00337651921094     0.00025506479805     0.00053463216290     0.00046957893388
   15     0.00393102230728     0.00204578772917     0.00018671651742     0.00078575085714     0.00031577259112
   16     0.00948963232001     0.00107229971634     0.00020999262674     0.00250658697594     0.00249456432053
   17     0.00686443333032     0.00083328615541     0.00023000695072     0.00240309316799     0.00198040665687
   18     0.00075050844548     0.00015125039443     0.00003192739294     0.00027070338547     0.00019991492032
   19     0.00122088083500     0.00018501610615     0.00002757563236     0.00028646272997     0.00025588546595
   20     0.00367674866590     0.00031079945685     0.00006101510863     0.00125014949784     0.00168439586840
   21     0.01178411392503     0.01090403209656     0.80468466282560     0.04322768569059     0.04319236738176
   22     0.13797725051982     0.02308344662012     0.22434552981314     2.20535846017038     0.02678616036040
   23     0.00666438727927     0.00228393655520     0.00005838895194     0.00066981029898     0.00015132316800
   24     0.00368164002517     0.00192645845173     0.00005825085424     0.00015172388413     0.00013273841087
   25     0.00050029786654     0.00008723188479     0.00001301363382     0.00008199778694     0.00009027311284
   26     0.00025773667106     0.00007767756224     0.00001236059205     0.00004770390821     0.00002941934942
   27     0.00005402344932     0.00001738546191     0.00000389912075     0.00001309327486     0.00000605159426
   28     0.00104038133537     0.00013636885317     0.00003602512946     0.00008276269920     0.00005874459225
   29     0.00027977318474     0.00005535543992     0.00000728210017     0.00016590032607     0.00002851962142
   30     0.00006514139595     0.00001373870094     0.00000273563145     0.00004472244473     0.00001053251667
   31     0.00007545631384     0.00002005225483     0.00000150147742     0.00001494365142     0.00000668101700
   32     0.04888395606769     0.80954517236785     0.01091048012751     0.00947006446542     0.05961966079365
   33     0.01376668390443     0.05894739011881     0.05631606370687     0.01228219304325     0.83247094464530
   34     0.00002600736042     0.00000554755772     0.00000150614086     0.00000979856130     0.00000438102967

                11                  12                  13                  14                  15

    1     0.00132058252712     0.00058850750610     0.00016854488499     0.00014849997569     0.00007691225118
    2     0.02995210355311     0.02033413567917     0.00331517222095     0.00271052998476     0.00394708479716
    3     0.12586389034087     0.11661415551256     0.01739721560251     0.01634612157820     0.01044865156868
    4     1.40806279814893     1.41474496078424     0.13593172073191     0.13682985069079     0.13897642820633
    5     0.01148228332833     0.01195817195011     0.00173544272499     0.00228214371381     0.00107568236918
    6     0.04189151024237     0.03410542245812     0.00555040342655     0.00381759935807     0.00393102230728
    7     0.01982154072924     0.01958466957979     0.00330756514664     0.00337651921094     0.00204578772917
    8     0.00115166942909     0.00098169150558     0.00030928864893     0.00025506479805     0.00018671651742
    9     0.00504987985367     0.00367016929545     0.00075443284851     0.00053463216290     0.00078575085714
   10     0.00378630697446     0.00290676051023     0.00075998185350     0.00046957893388     0.00031577259112
   11     0.00000000000000     0.13078304080305     1.51807255667443     0.14613373876221     0.14122930719494
   12     0.13078304080305     0.00000000000000     0.14504247569233     1.51296414626145     0.14098405985205
   13     1.51807255667443     0.14504247569233     0.00000000000000     0.14041871288368     1.51719357676124
   14     0.14613373876221     1.51296414626145     0.14041871288368     0.00000000000000     1.51986468820360
   15     0.14122930719494     0.14098405985205     1.51719357676124     1.51986468820360     0.00000000000000
   16     0.00938365083462     0.04164494883524     0.00330438589942     0.01136355275616     0.00267880749168
   17     0.00177932904187     0.00152196857824     0.00018393265803     0.00041455614859     0.00024284559879
   18     0.00110175419736     0.00577648855112     0.00038194320873     0.00148104547035     0.00035394798395
   19     0.00050773945053     0.00098581883779     0.00020318060522     0.00039130768688     0.00022530923025
   20     0.00040865820530     0.00113581432188     0.00017584066712     0.00028471929230     0.00010449054504
   21     0.00013120036537     0.00014215330820     0.00001875065166     0.00002280218390     0.00005536432229
   22     0.00255670040730     0.00196835999822     0.00049879256078     0.00022426668465     0.00023264144790
   23     0.80638390457513     0.00936568544684     0.05580103408718     0.00217304430485     0.01041391871627
   24     0.00934014045546     0.80684788160368     0.00212158079979     0.05555318958116     0.01038965203265
   25     0.06116505592539     0.00255180406272     0.83082597567254     0.01131444711616     0.05957100052588
   26     0.00252667274854     0.06088068645058     0.01132952917377     0.83082614348971     0.05970115443595
   27     0.01136833544610     0.01138994260812     0.05978953778821     0.05971851498935     0.83312043932042
   28     0.00241999109298     0.02265337222838     0.00107649038229     0.00430596309544     0.00054669169946
   29     0.00009686124428     0.00010481597462     0.00002596469202     0.00004347871799     0.00002042568175
   30     0.00003258016633     0.00029175046382     0.00001851658172     0.00004503708423     0.00001239984762
   31     0.00001484807901     0.00004693120339     0.00000414278788     0.00001160099104     0.00000504668232
   32     0.00474173991160     0.00599007518707     0.00085540212072     0.00096601805351     0.00065052773048
   33     0.00009904650712     0.00009783397589     0.00001515930019     0.00001716133260     0.00000772788936
   34     0.00002004492255     0.00006597077387     0.00001173368929     0.00003220008488     0.00000751046630

                16                  17                  18                  19                  20

    1     0.00789266259465     0.01607588774719     0.00097701972609     0.00150678242727     0.00072820297474
    2     0.13197882545248     0.14738579186015     0.01752100110462     0.01987850587743     0.02173011757736
    3     0.03619486002285     0.02491216354713     0.00382796245377     0.00342415805134     0.00515550500309
    4     0.03331578678558     0.00479172733228     0.00424712413196     0.00133789402440     0.00154768468502
    5     1.38711628532912     1.37725967183721     0.13661155043468     0.13518433998840     0.13044147294964
    6     0.00948963232001     0.00686443333032     0.00075050844548     0.00122088083500     0.00367674866590
    7     0.00107229971634     0.00083328615541     0.00015125039443     0.00018501610615     0.00031079945685
    8     0.00020999262674     0.00023000695072     0.00003192739294     0.00002757563236     0.00006101510863
    9     0.00250658697594     0.00240309316799     0.00027070338547     0.00028646272997     0.00125014949784
   10     0.00249456432053     0.00198040665687     0.00019991492032     0.00025588546595     0.00168439586840
   11     0.00938365083462     0.00177932904187     0.00110175419736     0.00050773945053     0.00040865820530
   12     0.04164494883524     0.00152196857824     0.00577648855112     0.00098581883779     0.00113581432188
   13     0.00330438589942     0.00018393265803     0.00038194320873     0.00020318060522     0.00017584066712
   14     0.01136355275616     0.00041455614859     0.00148104547035     0.00039130768688     0.00028471929230
   15     0.00267880749168     0.00024284559879     0.00035394798395     0.00022530923025     0.00010449054504
   16     0.00000000000000     0.12852886353819     1.51390136408617     0.13763349336691     0.14054302681607
   17     0.12852886353819     0.00000000000000     0.14354056127646     1.54925213541459     0.14160074200443
   18     1.51390136408617     0.14354056127646     0.00000000000000     0.14055717533608     1.52655383885201
   19     0.13763349336691     1.54925213541459     0.14055717533608     0.00000000000000     1.50286871056063
   20     0.14054302681607     0.14160074200443     1.52655383885201     1.50286871056063     0.00000000000000
   21     0.00002963302607     0.00002459250388     0.00000376468606     0.00000362542905     0.00000465642957
   22     0.00295553826514     0.00429076663938     0.00033609186027     0.00029238649269     0.00141955783303
   23     0.00047577878502     0.00016266524198     0.00001744275324     0.00001355680803     0.00005445301804
   24     0.00926380305096     0.00011049409453     0.00068148348347     0.00003939067279     0.00013340698929
   25     0.00005475889694     0.00000805063887     0.00000713228686     0.00000406615718     0.00000561246392
   26     0.00023037672431     0.00001431630147     0.00002028105745     0.00000620983042     0.00002030135049
   27     0.00004494740295     0.00000562724352     0.00001037690121     0.00000391689277     0.00000330030173
   28     0.78914135758488     0.00910112733015     0.05482000396822     0.00222161580143     0.00992456530196
   29     0.00998958085412     0.81454629972061     0.00264016234848     0.05770345567878     0.01105483107153
   30     0.06112581349472     0.00252150579798     0.83138292992822     0.01161808216516     0.05943652720928
   31     0.00268856688825     0.06182364943702     0.01146108207747     0.83184088865417     0.05915335173363
   32     0.00013969520453     0.00005578808236     0.00004040325229     0.00002206069271     0.00001958130850
   33     0.00003120124153     0.00004636979413     0.00000640701368     0.00000695914156     0.00000343649437
   34     0.01127526510957     0.01138454956029     0.06043503196223     0.06003856551178     0.83359768477885

                21                  22                  23                  24                  25

    1     0.00004729453495     0.01344367876456     0.00019604228633     0.00003631535160     0.00000561649141
    2     0.00031522597728     0.07498035939401     0.00390217884114     0.00107415792740     0.00010151016600
    3     0.00161834593058     0.08758726168490     0.01957570873790     0.01665094248233     0.00128735189306
    4     0.00048539915342     0.00532733080053     0.05599948358972     0.05577049108199     0.01060559847226
    5     0.00006290608106     0.00789693997373     0.00152720623110     0.00168089650129     0.00005985996879
    6     0.01178411392503     0.13797725051982     0.00666438727927     0.00368164002517     0.00050029786654
    7     0.01090403209656     0.02308344662012     0.00228393655520     0.00192645845173     0.00008723188479
    8     0.80468466282560     0.22434552981314     0.00005838895194     0.00005825085424     0.00001301363382
    9     0.04322768569059     2.20535846017038     0.00066981029898     0.00015172388413     0.00008199778694
   10     0.04319236738176     0.02678616036040     0.00015132316800     0.00013273841087     0.00009027311284
   11     0.00013120036537     0.00255670040730     0.80638390457513     0.00934014045546     0.06116505592539
   12     0.00014215330820     0.00196835999822     0.00936568544684     0.80684788160368     0.00255180406272
   13     0.00001875065166     0.00049879256078     0.05580103408718     0.00212158079979     0.83082597567254
   14     0.00002280218390     0.00022426668465     0.00217304430485     0.05555318958116     0.01131444711616
   15     0.00005536432229     0.00023264144790     0.01041391871627     0.01038965203265     0.05957100052588
   16     0.00002963302607     0.00295553826514     0.00047577878502     0.00926380305096     0.00005475889694
   17     0.00002459250388     0.00429076663938     0.00016266524198     0.00011049409453     0.00000805063887
   18     0.00000376468606     0.00033609186027     0.00001744275324     0.00068148348347     0.00000713228686
   19     0.00000362542905     0.00029238649269     0.00001355680803     0.00003939067279     0.00000406615718
   20     0.00000465642957     0.00141955783303     0.00005445301804     0.00013340698929     0.00000561246392
   21     0.00000000000000     0.01048446234986     0.00000064294247     0.00000260312630     0.00000045518675
   22     0.01048446234986     0.00000000000000     0.00017621493405     0.00014748670906     0.00008958117723
   23     0.00000064294247     0.00017621493405     0.00000000000000     0.00035319016933     0.00535775175131
   24     0.00000260312630     0.00014748670906     0.00035319016933     0.00000000000000     0.00025099283142
   25     0.00000045518675     0.00008958117723     0.00535775175131     0.00025099283142     0.00000000000000
   26     0.00000037476256     0.00002557338590     0.00025733314852     0.00537395528427     0.00024387671470
   27     0.00000056927341     0.00000450410514     0.00022841186330     0.00023310846694     0.00540461004099
   28     0.00000201311660     0.00009936986659     0.00000508181243     0.00279150860631     0.00001144835608
   29     0.00000112818287     0.00019199170647     0.00000138438966     0.00002109429668     0.00000229557427
   30     0.00000058920731     0.00003304655448     0.00000141366660     0.00004057904081     0.00000099666599
   31     0.00000030311701     0.00001202682983     0.00000208002050     0.00000729214138     0.00000034977336
   32     0.00044169028073     0.00202747364989     0.00025011941367     0.00034325646118     0.00000246940705
   33     0.00318962592317     0.00181396645471     0.00000523886947     0.00000751444621     0.00000227896045
   34     0.00000021016536     0.00001225391137     0.00000170931842     0.00001636207115     0.00000027735318

                26                  27                  28                  29                  30

    1     0.00000460640586     0.00001317543171     0.00014845259427     0.00266929503978     0.00032190174004
    2     0.00021701269079     0.00003902364497     0.01263713548519     0.02127993923927     0.00088849022706
    3     0.00119348484815     0.00029151961247     0.00878757400086     0.00204570305030     0.00024403887983
    4     0.01077436570316     0.00298745788012     0.01254419567203     0.00030642650302     0.00018112839521
    5     0.00006327519654     0.00001666280051     0.05403240323118     0.05710368010746     0.01082970449869
    6     0.00025773667106     0.00005402344932     0.00104038133537     0.00027977318474     0.00006514139595
    7     0.00007767756224     0.00001738546191     0.00013636885317     0.00005535543992     0.00001373870094
    8     0.00001236059205     0.00000389912075     0.00003602512946     0.00000728210017     0.00000273563145
    9     0.00004770390821     0.00001309327486     0.00008276269920     0.00016590032607     0.00004472244473
   10     0.00002941934942     0.00000605159426     0.00005874459225     0.00002851962142     0.00001053251667
   11     0.00252667274854     0.01136833544610     0.00241999109298     0.00009686124428     0.00003258016633
   12     0.06088068645058     0.01138994260812     0.02265337222838     0.00010481597462     0.00029175046382
   13     0.01132952917377     0.05978953778821     0.00107649038229     0.00002596469202     0.00001851658172
   14     0.83082614348971     0.05971851498935     0.00430596309544     0.00004347871799     0.00004503708423
   15     0.05970115443595     0.83312043932042     0.00054669169946     0.00002042568175     0.00001239984762
   16     0.00023037672431     0.00004494740295     0.78914135758488     0.00998958085412     0.06112581349472
   17     0.00001431630147     0.00000562724352     0.00910112733015     0.81454629972061     0.00252150579798
   18     0.00002028105745     0.00001037690121     0.05482000396822     0.00264016234848     0.83138292992822
   19     0.00000620983042     0.00000391689277     0.00222161580143     0.05770345567878     0.01161808216516
   20     0.00002030135049     0.00000330030173     0.00992456530196     0.01105483107153     0.05943652720928
   21     0.00000037476256     0.00000056927341     0.00000201311660     0.00000112818287     0.00000058920731
   22     0.00002557338590     0.00000450410514     0.00009936986659     0.00019199170647     0.00003304655448
   23     0.00025733314852     0.00022841186330     0.00000508181243     0.00000138438966     0.00000141366660
   24     0.00537395528427     0.00023310846694     0.00279150860631     0.00002109429668     0.00004057904081
   25     0.00024387671470     0.00540461004099     0.00001144835608     0.00000229557427     0.00000099666599
   26     0.00000000000000     0.00539919331595     0.00006251190362     0.00000099880704     0.00000111716642
   27     0.00539919331595     0.00000000000000     0.00000386845164     0.00000039269531     0.00000147367704
   28     0.00006251190362     0.00000386845164     0.00000000000000     0.00043625392094     0.00576055567583
   29     0.00000099880704     0.00000039269531     0.00043625392094     0.00000000000000     0.00024383388639
   30     0.00000111716642     0.00000147367704     0.00576055567583     0.00024383388639     0.00000000000000
   31     0.00000034598561     0.00000022440983     0.00021540829560     0.00552587543353     0.00026242669003
   32     0.00000675420245     0.00000215580294     0.00004049453347     0.00000195560401     0.00000154087051
   33     0.00000171070703     0.00000052461225     0.00000560381500     0.00000165098076     0.00000074216235
   34     0.00000024261490     0.00000014005043     0.00020476667407     0.00020879772425     0.00533966556428

                31                  32                  33                  34

    1     0.00003329377368     0.00001946951242     0.00002988266715     0.00001671598951
    2     0.00089579851905     0.00017930623990     0.00045191239937     0.00027389082842
    3     0.00037894585410     0.01178783716069     0.00166050991007     0.00006282950373
    4     0.00005639440633     0.01169407102325     0.00038623678229     0.00005706557647
    5     0.01088593763546     0.00012507196102     0.00012138618844     0.00291813848860
    6     0.00007545631384     0.04888395606769     0.01376668390443     0.00002600736042
    7     0.00002005225483     0.80954517236785     0.05894739011881     0.00000554755772
    8     0.00000150147742     0.01091048012751     0.05631606370687     0.00000150614086
    9     0.00001494365142     0.00947006446542     0.01228219304325     0.00000979856130
   10     0.00000668101700     0.05961966079365     0.83247094464530     0.00000438102967
   11     0.00001484807901     0.00474173991160     0.00009904650712     0.00002004492255
   12     0.00004693120339     0.00599007518707     0.00009783397589     0.00006597077387
   13     0.00000414278788     0.00085540212072     0.00001515930019     0.00001173368929
   14     0.00001160099104     0.00096601805351     0.00001716133260     0.00003220008488
   15     0.00000504668232     0.00065052773048     0.00000772788936     0.00000751046630
   16     0.00268856688825     0.00013969520453     0.00003120124153     0.01127526510957
   17     0.06182364943702     0.00005578808236     0.00004636979413     0.01138454956029
   18     0.01146108207747     0.00004040325229     0.00000640701368     0.06043503196223
   19     0.83184088865417     0.00002206069271     0.00000695914156     0.06003856551178
   20     0.05915335173363     0.00001958130850     0.00000343649437     0.83359768477885
   21     0.00000030311701     0.00044169028073     0.00318962592317     0.00000021016536
   22     0.00001202682983     0.00202747364989     0.00181396645471     0.00001225391137
   23     0.00000208002050     0.00025011941367     0.00000523886947     0.00000170931842
   24     0.00000729214138     0.00034325646118     0.00000751444621     0.00001636207115
   25     0.00000034977336     0.00000246940705     0.00000227896045     0.00000027735318
   26     0.00000034598561     0.00000675420245     0.00000171070703     0.00000024261490
   27     0.00000022440983     0.00000215580294     0.00000052461225     0.00000014005043
   28     0.00021540829560     0.00004049453347     0.00000560381500     0.00020476667407
   29     0.00552587543353     0.00000195560401     0.00000165098076     0.00020879772425
   30     0.00026242669003     0.00000154087051     0.00000074216235     0.00533966556428
   31     0.00000000000000     0.00000063206021     0.00000190473587     0.00532607029604
   32     0.00000063206021     0.00000000000000     0.00256117242926     0.00000031398924
   33     0.00000190473587     0.00256117242926     0.00000000000000     0.00000027498432
   34     0.00532607029604     0.00000031398924     0.00000027498432     0.00000000000000



  Atomic Valences: 

 #  #
 Irrep: 1
      1:    0.929939709206333
      2:    4.122360688362352
      3:    4.814331566748025
      4:    4.763769815945605
      5:    4.789865312535479
      6:    4.677696961955070
      7:    4.419436924917068
      8:    4.062392393946821
      9:    5.087344405014470
     10:    4.475950728453253
     11:    4.498679462138652
     12:    4.528724669799900
     13:    4.456598983427697
     14:    4.465340875581763
     15:    4.459401342854854
     16:    4.488699906297723
     17:    4.453897205230617
     18:    4.460099674931140
     19:    4.459747151555663
     20:    4.455093199336445
     21:    0.930883244137309
     22:    2.836679471925524
     23:    0.982530521975894
     24:    0.985233581385578
     25:    0.989708038815684
     26:    0.989607302489144
     27:    0.990176407930443
     28:    0.995354107106372
     29:    0.986805403798500
     30:    0.990775257997720
     31:    0.990774053226110
     32:    0.981396409967796
     33:    0.984356715137287
     34:    0.991355522613320


    Psi4 stopped on: Saturday, 18 November 2023 09:17AM
    Psi4 wall time for execution: 0:00:59.62

*** Psi4 exiting successfully. Buy a developer a beer!
