
    -----------------------------------------------------------------------
          Psi4: An Open-Source Ab Initio Electronic Structure Package
                               Psi4 1.6 release

                         Git: Rev {HEAD} 77475b5 


    D. G. A. Smith, L. A. Burns, A. C. Simmonett, R. M. Parrish,
    M. C. Schieber, R. Galvelis, P. Kraus, H. Kruse, R. Di Remigio,
    A. Alenaizan, A. M. James, S. Lehtola, J. P. Misiewicz, M. Scheurer,
    R. A. Shaw, J. B. Schriber, Y. Xie, Z. L. Glick, D. A. Sirianni,
    J. S. O'Brien, J. M. Waldrop, A. Kumar, E. G. Hohenstein,
    B. P. Pritchard, B. R. Brooks, H. F. Schaefer III, A. Yu. Sokolov,
    K. Patkowski, A. E. DePrince III, U. Bozkaya, R. A. King,
    F. A. Evangelista, J. M. Turney, T. D. Crawford, C. D. Sherrill,
    J. Chem. Phys. 152(18) 184108 (2020). https://doi.org/10.1063/5.0006002

                            Additional Code Authors
    E. T. Seidl, C. L. Janssen, E. F. Valeev, M. L. Leininger,
    J. F. Gonthier, R. M. Richard, H. R. McAlexander, M. Saitow, X. Wang,
    P. Verma, M. H. Lechner, and A. Jiang

             Previous Authors, Complete List of Code Contributors,
                       and Citations for Specific Modules
    https://github.com/psi4/psi4/blob/master/codemeta.json
    https://github.com/psi4/psi4/graphs/contributors
    http://psicode.org/psi4manual/master/introduction.html#citing-psifour

    -----------------------------------------------------------------------


    Psi4 started on: Saturday, 18 November 2023 09:11AM

    Process ID: 1139812
    Host:       node165.bme.utexas.edu
    PSIDATADIR: /home/liuchw/anaconda3/envs/poltype2022/share/psi4
    Memory:     500.0 MiB
    Threads:    1
    
  ==> Input File <==

--------------------------------------------------------------------------
molecule { 
0 1
 H    0.942748    0.274030   -1.898506
 N    0.770172   -0.221804   -1.032207
 C   -0.512027    0.039494   -0.493479
 C   -1.485499   -1.068360   -0.634615
 C    1.886375   -0.252024   -0.200264
 C   -0.845300    1.218563    0.071946
 C   -2.083437    1.603600    0.711444
 N   -0.706831    3.371605    0.767437
 C    0.036423    2.415364    0.119821
 C   -1.951602    2.877908    1.116574
 C   -1.441346   -2.170858    0.210709
 C   -2.405164   -1.046226   -1.677775
 C   -2.328194   -3.217987    0.035077
 C   -3.286299   -2.097974   -1.853621
 C   -3.251660   -3.184329   -0.995917
 C    1.774685   -0.450813    1.173990
 C    3.158089   -0.194082   -0.769029
 C    2.907430   -0.577920    1.954992
 C    4.283635   -0.324529    0.018145
 C    4.166824   -0.518381    1.384943
 H   -0.375496    4.301381    0.963034
 O    1.145828    2.579813   -0.341624
 H   -0.714501   -2.205360    1.007788
 H   -2.432436   -0.196211   -2.344086
 H   -2.293043   -4.066305    0.702611
 H   -3.998774   -2.070770   -2.664966
 H   -3.939749   -4.005123   -1.134019
 H    0.797441   -0.489550    1.633871
 H    3.254523   -0.033137   -1.833215
 H    2.802012   -0.723508    3.020793
 H    5.261553   -0.270904   -0.438144
 H   -2.930245    0.960745    0.843476
 H   -2.651627    3.504063    1.637350
 H    5.048891   -0.617407    1.999525
}
memory 20GB
set_num_threads(5)
psi4_io.set_default_path("/scratch/liuchw/Psi4-1_7_Index_0-farH_in17")
set freeze_core True
E, wfn = energy('wb97x-d/6-311+G*',return_wfn=True)
oeprop(wfn,"WIBERG_LOWDIN_INDICES")
clean()
--------------------------------------------------------------------------

  Memory set to  18.626 GiB by Python driver.
  Threads set to 5 by Python driver.

Scratch directory: /scratch/liuchw/Psi4-1_7_Index_0-farH_in17/

*** tstart() called on node165.bme.utexas.edu
*** at Sat Nov 18 09:11:29 2023

   => Loading Basis Set <=

    Name: 6-311+G*
    Role: ORBITAL
    Keyword: BASIS
    atoms 1, 21, 23-34 entry H          line    47 file /home/liuchw/anaconda3/envs/poltype2022/share/psi4/basis/6-311pgs.gbs 
    atoms 2, 8         entry N          line   151 file /home/liuchw/anaconda3/envs/poltype2022/share/psi4/basis/6-311pgs.gbs 
    atoms 3-7, 9-20    entry C          line   130 file /home/liuchw/anaconda3/envs/poltype2022/share/psi4/basis/6-311pgs.gbs 
    atoms 22           entry O          line   172 file /home/liuchw/anaconda3/envs/poltype2022/share/psi4/basis/6-311pgs.gbs 

   => WB97X-D: Empirical Dispersion <=

    Chai and Head-Gordon Dispersion Correction
    Chai, J.-D.; Head-Gordon, M. (2010), J. Chem. Phys., 132: 6615-6620

        s6 =       1.000000


         ---------------------------------------------------------
                                   SCF
               by Justin Turney, Rob Parrish, Andy Simmonett
                          and Daniel G. A. Smith
                              RKS Reference
                        5 Threads,  19073 MiB Core
         ---------------------------------------------------------

  ==> Geometry <==

    Molecular point group: c1
    Full point group: C1

    Geometry (in Angstrom), charge = 0, multiplicity = 1:

       Center              X                  Y                   Z               Mass       
    ------------   -----------------  -----------------  -----------------  -----------------
         H            0.937211146373     0.288123427026    -1.877181666274     1.007825032230
         N            0.764635146373    -0.207710572974    -1.010882666274    14.003074004430
         C           -0.517563853627     0.053587427026    -0.472154666274    12.000000000000
         C           -1.491035853627    -1.054266572974    -0.613290666274    12.000000000000
         C            1.880838146373    -0.237930572974    -0.178939666274    12.000000000000
         C           -0.850836853627     1.232656427026     0.093270333726    12.000000000000
         C           -2.088973853627     1.617693427026     0.732768333726    12.000000000000
         N           -0.712367853627     3.385698427026     0.788761333726    14.003074004430
         C            0.030886146373     2.429457427026     0.141145333726    12.000000000000
         C           -1.957138853627     2.892001427026     1.137898333726    12.000000000000
         C           -1.446882853627    -2.156764572974     0.232033333726    12.000000000000
         C           -2.410700853627    -1.032132572974    -1.656450666274    12.000000000000
         C           -2.333730853627    -3.203893572974     0.056401333726    12.000000000000
         C           -3.291835853627    -2.083880572974    -1.832296666274    12.000000000000
         C           -3.257196853627    -3.170235572974    -0.974592666274    12.000000000000
         C            1.769148146373    -0.436719572974     1.195314333726    12.000000000000
         C            3.152552146373    -0.179988572974    -0.747704666274    12.000000000000
         C            2.901893146373    -0.563826572974     1.976316333726    12.000000000000
         C            4.278098146373    -0.310435572974     0.039469333726    12.000000000000
         C            4.161287146373    -0.504287572974     1.406267333726    12.000000000000
         H           -0.381032853627     4.315474427026     0.984358333726     1.007825032230
         O            1.140291146373     2.593906427026    -0.320299666274    15.994914619570
         H           -0.720037853627    -2.191266572974     1.029112333726     1.007825032230
         H           -2.437972853627    -0.182117572974    -2.322761666274     1.007825032230
         H           -2.298579853627    -4.052211572974     0.723935333726     1.007825032230
         H           -4.004310853627    -2.056676572974    -2.643641666274     1.007825032230
         H           -3.945285853627    -3.991029572974    -1.112694666274     1.007825032230
         H            0.791904146373    -0.475456572974     1.655195333726     1.007825032230
         H            3.248986146373    -0.019043572974    -1.811890666274     1.007825032230
         H            2.796475146373    -0.709414572974     3.042117333726     1.007825032230
         H            5.256016146373    -0.256810572974    -0.416819666274     1.007825032230
         H           -2.935781853627     0.974838427026     0.864800333726     1.007825032230
         H           -2.657163853627     3.518156427026     1.658674333726     1.007825032230
         H            5.043354146373    -0.603313572974     2.020849333726     1.007825032230

  Running in c1 symmetry.

  Rotational constants: A =      0.01546  B =      0.00939  C =      0.00680 [cm^-1]
  Rotational constants: A =    463.49088  B =    281.60454  C =    203.72244 [MHz]
  Nuclear repulsion = 1438.077367211767978

  Charge       = 0
  Multiplicity = 1
  Electrons    = 138
  Nalpha       = 69
  Nbeta        = 69

  ==> Algorithm <==

  SCF Algorithm Type is DF.
  DIIS enabled.
  MOM disabled.
  Fractional occupation disabled.
  Guess Type is SAD.
  Energy threshold   = 1.00e-06
  Density threshold  = 1.00e-06
  Integral threshold = 1.00e-12

  ==> Primary Basis <==

  Basis Set: 6-311+G*
    Blend: 6-311+G*
    Number of shells: 242
    Number of basis functions: 482
    Number of Cartesian functions: 502
    Spherical Harmonics?: true
    Max angular momentum: 2

  ==> DFT Potential <==

   => LibXC <=

    Version 5.1.5
    S. Lehtola, C. Steigemann, M. J. Oliveira, and M. A. Marques, SoftwareX 7, 1 (2018) (10.1016/j.softx.2017.11.002)

   => Composite Functional: WB97X-D <= 

    wB97X-D Hyb-GGA Exchange-Correlation Functional

    J.-D. Chai and M. Head-Gordon, Phys. Chem. Chem. Phys. 10, 6615 (2008) (10.1039/B810189B)

    Deriv               =              1
    GGA                 =           TRUE
    Meta                =          FALSE

    Exchange Hybrid     =           TRUE
    MP2 Hybrid          =          FALSE

   => Exchange-Correlation Functionals <=

    1.0000   wB97X-D range-separated functional

   => Exact (HF) Exchange <=

    0.7780            HF,LR [omega = 0.2000]
    0.2220               HF 

   => LibXC Density Thresholds  <==

    XC_HYB_GGA_XC_WB97X_D:  1.00E-14 

   => Molecular Quadrature <=

    Radial Scheme          =       TREUTLER
    Pruning Scheme         =           NONE
    Nuclear Scheme         =       TREUTLER

    Blocking Scheme        =         OCTREE
    BS radius alpha        =              1
    Pruning alpha          =              1
    Radial Points          =             75
    Spherical Points       =            302
    Total Points           =         703639
    Total Blocks           =           5037
    Max Points             =            256
    Max Functions          =            382
    Weights Tolerance      =       1.00E-15

   => Loading Basis Set <=

    Name: (6-311+G* AUX)
    Role: JKFIT
    Keyword: DF_BASIS_SCF
    atoms 1, 21, 23-34 entry H          line   116 file /home/liuchw/anaconda3/envs/poltype2022/share/psi4/basis/heavy-aug-cc-pvtz-jkfit.gbs 
    atoms 2, 8         entry N          line   262 file /home/liuchw/anaconda3/envs/poltype2022/share/psi4/basis/heavy-aug-cc-pvtz-jkfit.gbs 
    atoms 3-7, 9-20    entry C          line   200 file /home/liuchw/anaconda3/envs/poltype2022/share/psi4/basis/heavy-aug-cc-pvtz-jkfit.gbs 
    atoms 22           entry O          line   324 file /home/liuchw/anaconda3/envs/poltype2022/share/psi4/basis/heavy-aug-cc-pvtz-jkfit.gbs 

  ==> Integral Setup <==

  DFHelper Memory: AOs need 10.867 GiB; user supplied 10.867 GiB. Using in-core AOs.

  ==> MemDFJK: Density-Fitted J/K Matrices <==

    J tasked:                   Yes
    K tasked:                   Yes
    wK tasked:                  Yes
    Omega:                2.000E-01
    OpenMP threads:               5
    Memory [MiB]:             11128
    Algorithm:                 Core
    Schwarz Cutoff:           1E-12
    Mask sparsity (%):      17.0762
    Fitting Condition:        1E-10

   => Auxiliary Basis Set <=

  Basis Set: (6-311+G* AUX)
    Blend: HEAVY-AUG-CC-PVTZ-JKFIT
    Number of shells: 740
    Number of basis functions: 2500
    Number of Cartesian functions: 3110
    Spherical Harmonics?: true
    Max angular momentum: 4

  Cached 50.0% of DFT collocation blocks in 2.740 [GiB].

  Minimum eigenvalue in the overlap matrix is 4.6439542165E-07.
  Reciprocal condition number of the overlap matrix is 2.6943828760E-08.
    Using symmetric orthogonalization.

  ==> Pre-Iterations <==

  SCF Guess: Superposition of Atomic Densities via on-the-fly atomic UHF (no occupation information).

   -------------------------
    Irrep   Nso     Nmo    
   -------------------------
     A        482     482 
   -------------------------
    Total     482     482
   -------------------------

  ==> Iterations <==

                           Total Energy        Delta E     RMS |[F,P]|

   @DF-RKS iter SAD:  -840.58052366428694   -8.40581e+02   0.00000e+00 
   @DF-RKS iter   1:  -839.98115467772982    5.99369e-01   2.71551e-03 ADIIS/DIIS
   @DF-RKS iter   2:  -840.35627177088907   -3.75117e-01   2.18271e-03 ADIIS/DIIS
   @DF-RKS iter   3:  -840.82728922909837   -4.71017e-01   4.04483e-04 ADIIS/DIIS
   @DF-RKS iter   4:  -840.83873926754620   -1.14500e-02   1.80411e-04 ADIIS/DIIS
   @DF-RKS iter   5:  -840.84153418395408   -2.79492e-03   3.63248e-05 DIIS
   @DF-RKS iter   6:  -840.84166861772269   -1.34434e-04   1.19887e-05 DIIS
   @DF-RKS iter   7:  -840.84168640291671   -1.77852e-05   3.18181e-06 DIIS
   @DF-RKS iter   8:  -840.84168836696688   -1.96405e-06   1.61289e-06 DIIS
   @DF-RKS iter   9:  -840.84168899476549   -6.27799e-07   5.99947e-07 DIIS
  Energy and wave function converged.


  ==> Post-Iterations <==

   Electrons on quadrature grid:
      Ntotal   =  138.0001361452 ; deviation = 1.361e-04 

    Orbital Energies [Eh]
    ---------------------

    Doubly Occupied:                                                      

       1A    -19.225189     2A    -14.477601     3A    -14.443238  
       4A    -10.396712     5A    -10.350746     6A    -10.341318  
       7A    -10.320034     8A    -10.309102     9A    -10.305207  
      10A    -10.296117    11A    -10.294891    12A    -10.294565  
      13A    -10.294020    14A    -10.293354    15A    -10.288426  
      16A    -10.275577    17A    -10.274846    18A    -10.269690  
      19A    -10.269592    20A    -10.264670    21A     -1.159042  
      22A     -1.077232    23A     -1.055201    24A     -0.976971  
      25A     -0.946627    26A     -0.917372    27A     -0.876357  
      28A     -0.859485    29A     -0.841774    30A     -0.837616  
      31A     -0.820491    32A     -0.774628    33A     -0.715537  
      34A     -0.711973    35A     -0.705804    36A     -0.699258  
      37A     -0.688812    38A     -0.651405    39A     -0.625749  
      40A     -0.618663    41A     -0.608967    42A     -0.586985  
      43A     -0.565668    44A     -0.557391    45A     -0.554587  
      46A     -0.543146    47A     -0.532385    48A     -0.529692  
      49A     -0.522630    50A     -0.519766    51A     -0.515109  
      52A     -0.512684    53A     -0.499213    54A     -0.494897  
      55A     -0.467511    56A     -0.462630    57A     -0.442226  
      58A     -0.439410    59A     -0.432703    60A     -0.430230  
      61A     -0.416985    62A     -0.390100    63A     -0.384550  
      64A     -0.347170    65A     -0.340878    66A     -0.337833  
      67A     -0.320884    68A     -0.293985    69A     -0.272741  

    Virtual:                                                              

      70A     -0.010956    71A      0.048042    72A      0.048724  
      73A      0.051734    74A      0.059341    75A      0.068129  
      76A      0.068790    77A      0.070060    78A      0.077076  
      79A      0.080905    80A      0.083751    81A      0.085148  
      82A      0.095871    83A      0.096148    84A      0.101087  
      85A      0.103407    86A      0.106631    87A      0.111148  
      88A      0.116459    89A      0.120478    90A      0.121328  
      91A      0.131250    92A      0.133183    93A      0.140179  
      94A      0.143612    95A      0.147454    96A      0.153136  
      97A      0.159620    98A      0.163496    99A      0.166419  
     100A      0.170758   101A      0.176580   102A      0.178773  
     103A      0.184316   104A      0.188378   105A      0.192142  
     106A      0.193323   107A      0.197520   108A      0.200854  
     109A      0.203918   110A      0.205404   111A      0.209831  
     112A      0.213605   113A      0.215695   114A      0.219257  
     115A      0.223838   116A      0.225969   117A      0.231682  
     118A      0.232007   119A      0.235634   120A      0.240307  
     121A      0.241671   122A      0.246617   123A      0.248872  
     124A      0.255496   125A      0.257689   126A      0.259823  
     127A      0.262502   128A      0.264831   129A      0.265866  
     130A      0.270560   131A      0.273269   132A      0.277124  
     133A      0.279301   134A      0.280025   135A      0.282068  
     136A      0.283548   137A      0.285554   138A      0.290000  
     139A      0.291459   140A      0.297020   141A      0.299841  
     142A      0.301406   143A      0.304493   144A      0.308219  
     145A      0.312958   146A      0.315224   147A      0.318795  
     148A      0.322013   149A      0.323258   150A      0.325217  
     151A      0.329984   152A      0.336269   153A      0.344139  
     154A      0.345224   155A      0.349880   156A      0.354239  
     157A      0.356767   158A      0.359125   159A      0.361146  
     160A      0.367595   161A      0.368955   162A      0.382707  
     163A      0.384922   164A      0.390305   165A      0.397817  
     166A      0.399563   167A      0.404139   168A      0.407751  
     169A      0.410086   170A      0.413912   171A      0.418658  
     172A      0.425033   173A      0.432211   174A      0.438787  
     175A      0.443261   176A      0.446234   177A      0.450760  
     178A      0.459252   179A      0.464180   180A      0.472364  
     181A      0.478419   182A      0.482990   183A      0.492235  
     184A      0.496458   185A      0.514498   186A      0.519287  
     187A      0.540672   188A      0.560891   189A      0.570683  
     190A      0.584464   191A      0.586429   192A      0.603183  
     193A      0.606982   194A      0.614638   195A      0.623064  
     196A      0.627834   197A      0.630809   198A      0.632341  
     199A      0.640247   200A      0.641223   201A      0.649726  
     202A      0.658014   203A      0.661732   204A      0.663940  
     205A      0.671494   206A      0.677813   207A      0.685260  
     208A      0.688848   209A      0.698419   210A      0.705147  
     211A      0.715175   212A      0.721814   213A      0.724021  
     214A      0.732206   215A      0.735336   216A      0.744353  
     217A      0.758867   218A      0.760495   219A      0.767087  
     220A      0.771638   221A      0.775528   222A      0.787179  
     223A      0.790725   224A      0.794208   225A      0.798412  
     226A      0.803982   227A      0.805979   228A      0.809555  
     229A      0.812343   230A      0.821198   231A      0.822610  
     232A      0.832648   233A      0.835808   234A      0.840625  
     235A      0.852498   236A      0.853406   237A      0.858481  
     238A      0.866205   239A      0.874138   240A      0.886744  
     241A      0.889400   242A      0.900532   243A      0.914468  
     244A      0.918769   245A      0.923119   246A      0.924487  
     247A      0.929428   248A      0.935065   249A      0.940067  
     250A      0.943985   251A      0.950914   252A      0.960658  
     253A      0.965181   254A      0.968216   255A      0.973370  
     256A      0.982175   257A      0.999332   258A      1.005490  
     259A      1.010490   260A      1.025125   261A      1.032973  
     262A      1.038655   263A      1.042962   264A      1.049759  
     265A      1.065597   266A      1.077972   267A      1.081253  
     268A      1.093677   269A      1.101990   270A      1.105587  
     271A      1.118264   272A      1.130917   273A      1.135480  
     274A      1.142425   275A      1.154875   276A      1.159071  
     277A      1.176995   278A      1.186451   279A      1.193869  
     280A      1.212717   281A      1.241662   282A      1.246974  
     283A      1.249038   284A      1.257568   285A      1.274709  
     286A      1.284768   287A      1.291498   288A      1.295327  
     289A      1.300198   290A      1.310761   291A      1.337376  
     292A      1.345244   293A      1.352190   294A      1.362618  
     295A      1.377180   296A      1.385294   297A      1.402359  
     298A      1.410270   299A      1.413933   300A      1.443219  
     301A      1.456921   302A      1.471077   303A      1.504260  
     304A      1.536264   305A      1.547913   306A      1.599353  
     307A      1.603288   308A      1.609690   309A      1.624251  
     310A      1.636355   311A      1.647931   312A      1.656373  
     313A      1.675690   314A      1.697506   315A      1.698982  
     316A      1.709145   317A      1.741486   318A      1.750333  
     319A      1.767610   320A      1.807055   321A      1.839988  
     322A      1.858952   323A      1.860121   324A      1.871271  
     325A      1.874854   326A      1.888747   327A      1.891078  
     328A      1.900228   329A      1.907590   330A      1.920431  
     331A      1.925324   332A      1.935352   333A      1.940525  
     334A      1.947411   335A      1.960598   336A      1.971517  
     337A      1.977338   338A      2.009167   339A      2.011133  
     340A      2.034100   341A      2.040549   342A      2.043183  
     343A      2.049383   344A      2.067421   345A      2.073071  
     346A      2.087551   347A      2.092851   348A      2.094800  
     349A      2.115405   350A      2.116046   351A      2.148450  
     352A      2.164820   353A      2.190256   354A      2.222370  
     355A      2.256204   356A      2.273013   357A      2.317116  
     358A      2.335183   359A      2.337260   360A      2.350372  
     361A      2.351585   362A      2.378418   363A      2.393562  
     364A      2.406286   365A      2.419247   366A      2.427090  
     367A      2.437638   368A      2.456708   369A      2.461265  
     370A      2.466142   371A      2.485774   372A      2.515889  
     373A      2.528122   374A      2.534515   375A      2.544176  
     376A      2.566348   377A      2.578757   378A      2.597430  
     379A      2.653599   380A      2.660290   381A      2.693311  
     382A      2.751000   383A      2.778295   384A      2.785502  
     385A      2.796025   386A      2.805968   387A      2.824954  
     388A      2.835595   389A      2.847645   390A      2.871888  
     391A      2.891107   392A      2.901246   393A      2.916501  
     394A      2.923586   395A      2.956605   396A      2.964548  
     397A      2.968891   398A      2.988804   399A      2.999095  
     400A      3.005610   401A      3.019860   402A      3.032218  
     403A      3.039603   404A      3.071210   405A      3.079206  
     406A      3.102859   407A      3.109561   408A      3.120194  
     409A      3.155670   410A      3.193275   411A      3.217189  
     412A      3.225293   413A      3.242669   414A      3.290554  
     415A      3.314668   416A      3.329485   417A      3.370827  
     418A      3.421110   419A      3.421503   420A      3.431081  
     421A      3.442480   422A      3.444763   423A      3.449910  
     424A      3.456125   425A      3.465108   426A      3.477039  
     427A      3.480566   428A      3.485858   429A      3.494393  
     430A      3.532018   431A      3.574344   432A      3.585994  
     433A      3.639910   434A      3.644390   435A      3.672852  
     436A      3.682262   437A      3.712854   438A      3.753174  
     439A      3.772436   440A      3.788248   441A      3.810598  
     442A      3.886418   443A      3.908833   444A      3.989498  
     445A      4.012174   446A      4.069223   447A      4.142527  
     448A      4.163438   449A      4.173865   450A      4.186082  
     451A      4.277659   452A      4.345238   453A      4.499040  
     454A      4.645185   455A      4.692048   456A      4.902963  
     457A      4.928378   458A      5.132049   459A      5.177164  
     460A      5.217604   461A      5.424312   462A      5.947141  
     463A     23.503620   464A     23.547052   465A     23.710156  
     466A     23.932143   467A     23.999142   468A     24.022754  
     469A     24.045350   470A     24.060433   471A     24.078219  
     472A     24.181309   473A     24.206310   474A     24.208550  
     475A     24.240425   476A     24.291098   477A     24.299161  
     478A     24.337452   479A     24.369576   480A     35.659040  
     481A     35.771313   482A     50.211700  

    Final Occupation by Irrep:
              A 
    DOCC [    69 ]

  @DF-RKS Final Energy:  -840.84168899476549

   => Energetics <=

    Nuclear Repulsion Energy =           1438.0773672117679780
    One-Electron Energy =               -3995.2461755500526124
    Two-Electron Energy =                1799.1278538816818582
    DFT Exchange-Correlation Energy =     -82.7758154276259432
    Empirical Dispersion Energy =          -0.0249191105368818
    VV10 Nonlocal Energy =                  0.0000000000000000
    Total Energy =                       -840.8416889947656045

Computation Completed


Properties will be evaluated at   0.000000,   0.000000,   0.000000 [a0]

Properties computed using the SCF density matrix


 Multipole Moments:

 ------------------------------------------------------------------------------------
     Multipole            Electronic (a.u.)      Nuclear  (a.u.)        Total (a.u.)
 ------------------------------------------------------------------------------------

 L = 1.  Multiply by 2.5417464519 to convert [e a0] to [Debye]
 Dipole X            :         -0.2637195           -1.2192131           -1.4829326
 Dipole Y            :          5.5589730           -5.0973020            0.4616710
 Dipole Z            :         -1.4092180            1.6809757            0.2717577
 Magnitude           :                                                    1.5767313

 ------------------------------------------------------------------------------------

*** tstop() called on node165.bme.utexas.edu at Sat Nov 18 09:12:33 2023
Module time:
	user time   =     298.53 seconds =       4.98 minutes
	system time =       7.07 seconds =       0.12 minutes
	total time  =         64 seconds =       1.07 minutes
Total time:
	user time   =     298.53 seconds =       4.98 minutes
	system time =       7.07 seconds =       0.12 minutes
	total time  =         64 seconds =       1.07 minutes


Properties will be evaluated at   0.000000,   0.000000,   0.000000 [a0]
OEProp: No title given, name of density matrix used for the following properties is 'SCF density'


  Wiberg Bond Indices using Orthogonal Lowdin Orbitals:

  Irrep: 1 Size: 34 x 34

                 1                   2                   3                   4                   5

    1     0.00000000000000     0.77838902599984     0.03919981986908     0.00545593542125     0.04222093994743
    2     0.77838902599984     0.00000000000000     1.17588621242444     0.11731673486949     1.24262785004672
    3     0.03919981986908     1.17588621242444     0.00000000000000     1.00078396529070     0.10275999065757
    4     0.00545593542125     0.11731673486949     1.00078396529070     0.00000000000000     0.01796764212204
    5     0.04222093994743     1.24262785004672     0.10275999065757     0.01796764212204     0.00000000000000
    6     0.01750309252832     0.12460473835130     1.63101519669440     0.12744717760201     0.03801404444741
    7     0.00081388335877     0.01619880721372     0.11978017096460     0.03799384678276     0.00365722134449
    8     0.00024014333002     0.00255292727442     0.01654526743946     0.00283424349659     0.00249914618234
    9     0.00449413119134     0.03395364177771     0.13237439142069     0.01535309271112     0.01964745696026
   10     0.00286995460511     0.00583735643220     0.09893439328477     0.00738728487735     0.00374163458271
   11     0.00080448527530     0.03281711991524     0.11850093004062     1.41162654075739     0.01057785975155
   12     0.00124155425992     0.02989416737666     0.12487161404356     1.41582330079737     0.00360254255319
   13     0.00018397135167     0.00373858965951     0.01675112896789     0.13695695418708     0.00101702317247
   14     0.00012392785216     0.00316514428902     0.01665094291540     0.13621724254799     0.00065564682188
   15     0.00010363021799     0.00513599969858     0.01041420504385     0.13819549653798     0.00080470765079
   16     0.00875967616872     0.14150041878608     0.04978188592712     0.01216395803570     1.37719516499990
   17     0.01507852512631     0.15029577104575     0.02132915470793     0.00345967749720     1.37834582739195
   18     0.00097781591296     0.01875237161044     0.00608078175637     0.00111853377249     0.13589008116804
   19     0.00135501023093     0.02019210046543     0.00368379163714     0.00084429157226     0.13780710242003
   20     0.00118909307812     0.02570642735015     0.00352815355887     0.00093756460115     0.13061198515958
   21     0.00002967222329     0.00019494763348     0.00162254589831     0.00047769275657     0.00019168158173
   22     0.00707014623868     0.04564574821917     0.09059153596038     0.00474538246435     0.04598683017105
   23     0.00001283243037     0.00322430580831     0.01699581011002     0.05611168769413     0.00311462396495
   24     0.00010335597026     0.00167688731131     0.01913200632116     0.05674411223502     0.00015253288586
   25     0.00001088550153     0.00011765421585     0.00122806702128     0.01074210394318     0.00005975242126
   26     0.00000824228549     0.00015075994340     0.00127291343639     0.01075464060718     0.00003962924952
   27     0.00000766086174     0.00003429595928     0.00028394731957     0.00296276093830     0.00001697538004
   28     0.00012595881228     0.01485974884271     0.01643637659964     0.00453384322067     0.05418564920100
   29     0.00187224972318     0.02004622205216     0.00184281621243     0.00017109395211     0.05825030459241
   30     0.00032541984830     0.00091132839750     0.00034137972711     0.00006600883737     0.01079584944337
   31     0.00004121922015     0.00089406847994     0.00038756450726     0.00006531754114     0.01091080897473
   32     0.00002731493121     0.00018948255968     0.01170687686637     0.00977490326226     0.00015681757164
   33     0.00001302992048     0.00050478849620     0.00171888410115     0.00031984537204     0.00014232084335
   34     0.00002177006508     0.00028188979799     0.00010603817795     0.00002950886122     0.00299145162041

                 6                   7                   8                   9                  10

    1     0.01750309252832     0.00081388335877     0.00024014333002     0.00449413119134     0.00286995460511
    2     0.12460473835130     0.01619880721372     0.00255292727442     0.03395364177771     0.00583735643220
    3     1.63101519669440     0.11978017096460     0.01654526743946     0.13237439142069     0.09893439328477
    4     0.12744717760201     0.03799384678276     0.00283424349659     0.01535309271112     0.00738728487735
    5     0.03801404444741     0.00365722134449     0.00249914618234     0.01964745696026     0.00374163458271
    6     0.00000000000000     1.13354029389117     0.13058416031324     0.98094076455780     0.15947197548564
    7     1.13354029389117     0.00000000000000     0.20544169327328     0.12744687321942     1.81035915227730
    8     0.13058416031324     0.20544169327328     0.00000000000000     1.31755875273452     1.28201986241760
    9     0.98094076455780     0.12744687321942     1.31755875273452     0.00000000000000     0.13016187256779
   10     0.15947197548564     1.81035915227730     1.28201986241760     0.13016187256779     0.00000000000000
   11     0.03239140846504     0.01319056403830     0.00079774941361     0.00383926978633     0.00283682324700
   12     0.04270342007569     0.02081842988950     0.00104914459506     0.00445637096134     0.00417024499086
   13     0.00394701634561     0.00200700160213     0.00018477011898     0.00056736821611     0.00061491589053
   14     0.00471723952692     0.00312621541574     0.00026486839536     0.00060630665933     0.00067745438057
   15     0.00396426922919     0.00177583923086     0.00014418043510     0.00070586834363     0.00054443913926
   16     0.03200171515842     0.00517141679829     0.00160737904310     0.01758902052718     0.00209579857811
   17     0.00625055150689     0.00076657273941     0.00073284647708     0.00614604638316     0.00078542939694
   18     0.00351071243474     0.00044242495032     0.00017195450789     0.00313488526460     0.00023939463833
   19     0.00161294607673     0.00029012227254     0.00028209836146     0.00147678093920     0.00019130911842
   20     0.00169834746353     0.00038690404790     0.00020056263757     0.00100893895876     0.00032869502747
   21     0.01182270921427     0.01073734416894     0.80327320324824     0.04335503868999     0.04306981449524
   22     0.13450753298151     0.02282593615239     0.22414324603488     2.22525370716058     0.02813626753603
   23     0.00355646844601     0.00086991864379     0.00004710605434     0.00017735016087     0.00005477789433
   24     0.00680202671759     0.00293641652382     0.00007698664005     0.00050644152418     0.00024210470749
   25     0.00043561368047     0.00007310604866     0.00001231012790     0.00008481605305     0.00007162858973
   26     0.00037434876635     0.00007789802186     0.00001168363865     0.00005928272018     0.00006301458443
   27     0.00005580870744     0.00001696287247     0.00000396041666     0.00001399389791     0.00000580405821
   28     0.01101671591803     0.00198039491444     0.00012140495491     0.00413087803461     0.00057766443610
   29     0.00035694054547     0.00003557237529     0.00002867456745     0.00038052327708     0.00002655747462
   30     0.00021855345403     0.00001808600299     0.00000944139537     0.00008242047525     0.00002474434142
   31     0.00014856733646     0.00002066344086     0.00000418161734     0.00004213649446     0.00002714846427
   32     0.04948130204563     0.81160310481043     0.01097695016908     0.00966513104270     0.06024244813896
   33     0.01375344465996     0.05880609072630     0.05607202751431     0.01228392816616     0.83202318411832
   34     0.00006894010765     0.00000749417684     0.00000314834650     0.00002065982032     0.00000946715245

                11                  12                  13                  14                  15

    1     0.00080448527530     0.00124155425992     0.00018397135167     0.00012392785216     0.00010363021799
    2     0.03281711991524     0.02989416737666     0.00373858965951     0.00316514428902     0.00513599969858
    3     0.11850093004062     0.12487161404356     0.01675112896789     0.01665094291540     0.01041420504385
    4     1.41162654075739     1.41582330079737     0.13695695418708     0.13621724254799     0.13819549653798
    5     0.01057785975155     0.00360254255319     0.00101702317247     0.00065564682188     0.00080470765079
    6     0.03239140846504     0.04270342007569     0.00394701634561     0.00471723952692     0.00396426922919
    7     0.01319056403830     0.02081842988950     0.00200700160213     0.00312621541574     0.00177583923086
    8     0.00079774941361     0.00104914459506     0.00018477011898     0.00026486839536     0.00014418043510
    9     0.00383926978633     0.00445637096134     0.00056736821611     0.00060630665933     0.00070586834363
   10     0.00283682324700     0.00417024499086     0.00061491589053     0.00067745438057     0.00054443913926
   11     0.00000000000000     0.13030636806975     1.52244548368091     0.14701155331201     0.14052744396761
   12     0.13030636806975     0.00000000000000     0.14543079131952     1.51934193788553     0.14054092903749
   13     1.52244548368091     0.14543079131952     0.00000000000000     0.13950639108375     1.51747903174596
   14     0.14701155331201     1.51934193788553     0.13950639108375     0.00000000000000     1.52188777647866
   15     0.14052744396761     0.14054092903749     1.51747903174596     1.52188777647866     0.00000000000000
   16     0.02011106933493     0.00169439583560     0.00143972297663     0.00049349157196     0.00064542891730
   17     0.00133328859718     0.00076019910672     0.00018152531756     0.00018193452618     0.00027449137018
   18     0.00248635454601     0.00021055266929     0.00023739032061     0.00007166078947     0.00009099438106
   19     0.00088729278743     0.00017618667475     0.00011333823309     0.00004660418519     0.00005900654088
   20     0.00063026360925     0.00025121809343     0.00007715436887     0.00005478903426     0.00011375078500
   21     0.00012112944958     0.00011327955504     0.00002076846819     0.00001919354117     0.00004552160311
   22     0.00221477845271     0.00238393672546     0.00036505254668     0.00036085785574     0.00032005992472
   23     0.80552723795195     0.00946471124904     0.05602900537975     0.00220812229337     0.01040694091617
   24     0.00969429698487     0.80966568733759     0.00224152046355     0.05629379572023     0.01059046412150
   25     0.06066612643978     0.00252797888219     0.83159235596045     0.01134787484685     0.05971302008835
   26     0.00262579672035     0.06097994525197     0.01130647740550     0.83149250942374     0.05963387423350
   27     0.01132623290645     0.01138369571065     0.05978358774822     0.05983547147065     0.83346409545254
   28     0.00690047877496     0.00026048206724     0.00045520813573     0.00006418979754     0.00015936200600
   29     0.00008257258647     0.00005778214328     0.00001335331738     0.00001128937856     0.00001780855655
   30     0.00005526675074     0.00001748045688     0.00000626611373     0.00000212575566     0.00000207701754
   31     0.00003994868149     0.00002203247645     0.00000575248869     0.00000456034483     0.00000666492851
   32     0.00318498212219     0.00533257248374     0.00049359505567     0.00076043747602     0.00048547279855
   33     0.00008082905388     0.00009834426019     0.00001650583766     0.00001570653644     0.00000747722952
   34     0.00002737681151     0.00000768274596     0.00000588182801     0.00000165283544     0.00000311501645

                16                  17                  18                  19                  20

    1     0.00875967616872     0.01507852512631     0.00097781591296     0.00135501023093     0.00118909307812
    2     0.14150041878608     0.15029577104575     0.01875237161044     0.02019210046543     0.02570642735015
    3     0.04978188592712     0.02132915470793     0.00608078175637     0.00368379163714     0.00352815355887
    4     0.01216395803570     0.00345967749720     0.00111853377249     0.00084429157226     0.00093756460115
    5     1.37719516499990     1.37834582739195     0.13589008116804     0.13780710242003     0.13061198515958
    6     0.03200171515842     0.00625055150689     0.00351071243474     0.00161294607673     0.00169834746353
    7     0.00517141679829     0.00076657273941     0.00044242495032     0.00029012227254     0.00038690404790
    8     0.00160737904310     0.00073284647708     0.00017195450789     0.00028209836146     0.00020056263757
    9     0.01758902052718     0.00614604638316     0.00313488526460     0.00147678093920     0.00100893895876
   10     0.00209579857811     0.00078542939694     0.00023939463833     0.00019130911842     0.00032869502747
   11     0.02011106933493     0.00133328859718     0.00248635454601     0.00088729278743     0.00063026360925
   12     0.00169439583560     0.00076019910672     0.00021055266929     0.00017618667475     0.00025121809343
   13     0.00143972297663     0.00018152531756     0.00023739032061     0.00011333823309     0.00007715436887
   14     0.00049349157196     0.00018193452618     0.00007166078947     0.00004660418519     0.00005478903426
   15     0.00064542891730     0.00027449137018     0.00009099438106     0.00005900654088     0.00011375078500
   16     0.00000000000000     0.12934531420633     1.51851845309045     0.13745017526752     0.14315128277356
   17     0.12934531420633     0.00000000000000     0.14294773812999     1.54605361751494     0.14232193556235
   18     1.51851845309045     0.14294773812999     0.00000000000000     0.14060249494131     1.52327132788679
   19     0.13745017526752     1.54605361751494     0.14060249494131     0.00000000000000     1.50452125876717
   20     0.14315128277356     0.14232193556235     1.52327132788679     1.50452125876717     0.00000000000000
   21     0.00008619439469     0.00004928245499     0.00001374290611     0.00001230318428     0.00000714182383
   22     0.01887170533847     0.02006227650384     0.00365278024713     0.00381359191553     0.00235324790249
   23     0.00852590302823     0.00014261907301     0.00105141891608     0.00026388755400     0.00017990437126
   24     0.00011841753766     0.00003518341814     0.00003016103727     0.00001317542965     0.00001149159673
   25     0.00007263925055     0.00001148913270     0.00001181419603     0.00000340326395     0.00000427608094
   26     0.00004599708129     0.00001190033041     0.00001109240134     0.00000387351001     0.00000275606944
   27     0.00004223947128     0.00000542071124     0.00001030687555     0.00000299642268     0.00000318155179
   28     0.78929312135105     0.00895870173649     0.05439391465029     0.00221011507681     0.01009763567581
   29     0.01018678078328     0.81442398601160     0.00259383725452     0.05795591199572     0.01104727300623
   30     0.06118540628052     0.00252140233076     0.83218058205743     0.01159842291581     0.05946921002414
   31     0.00263838517079     0.06151097575951     0.01147839707799     0.83227899646608     0.05933120046515
   32     0.00013996092420     0.00005067303370     0.00002329985914     0.00001535359757     0.00001268789026
   33     0.00008465487504     0.00007138309431     0.00000818864654     0.00001901622965     0.00002118217756
   34     0.01131359213765     0.01140157861956     0.06050113681464     0.06022256859599     0.83373672466228

                21                  22                  23                  24                  25

    1     0.00002967222329     0.00707014623868     0.00001283243037     0.00010335597026     0.00001088550153
    2     0.00019494763348     0.04564574821917     0.00322430580831     0.00167688731131     0.00011765421585
    3     0.00162254589831     0.09059153596038     0.01699581011002     0.01913200632116     0.00122806702128
    4     0.00047769275657     0.00474538246435     0.05611168769413     0.05674411223502     0.01074210394318
    5     0.00019168158173     0.04598683017105     0.00311462396495     0.00015253288586     0.00005975242126
    6     0.01182270921427     0.13450753298151     0.00355646844601     0.00680202671759     0.00043561368047
    7     0.01073734416894     0.02282593615239     0.00086991864379     0.00293641652382     0.00007310604866
    8     0.80327320324824     0.22414324603488     0.00004710605434     0.00007698664005     0.00001231012790
    9     0.04335503868999     2.22525370716058     0.00017735016087     0.00050644152418     0.00008481605305
   10     0.04306981449524     0.02813626753603     0.00005477789433     0.00024210470749     0.00007162858973
   11     0.00012112944958     0.00221477845271     0.80552723795195     0.00969429698487     0.06066612643978
   12     0.00011327955504     0.00238393672546     0.00946471124904     0.80966568733759     0.00252797888219
   13     0.00002076846819     0.00036505254668     0.05602900537975     0.00224152046355     0.83159235596045
   14     0.00001919354117     0.00036085785574     0.00220812229337     0.05629379572023     0.01134787484685
   15     0.00004552160311     0.00032005992472     0.01040694091617     0.01059046412150     0.05971302008835
   16     0.00008619439469     0.01887170533847     0.00852590302823     0.00011841753766     0.00007263925055
   17     0.00004928245499     0.02006227650384     0.00014261907301     0.00003518341814     0.00001148913270
   18     0.00001374290611     0.00365278024713     0.00105141891608     0.00003016103727     0.00001181419603
   19     0.00001230318428     0.00381359191553     0.00026388755400     0.00001317542965     0.00000340326395
   20     0.00000714182383     0.00235324790249     0.00017990437126     0.00001149159673     0.00000427608094
   21     0.00000000000000     0.01044900036980     0.00000217597429     0.00000131945542     0.00000057045519
   22     0.01044900036980     0.00000000000000     0.00012140266663     0.00017017521926     0.00005494485525
   23     0.00000217597429     0.00012140266663     0.00000000000000     0.00033454572076     0.00536080175261
   24     0.00000131945542     0.00017017521926     0.00033454572076     0.00000000000000     0.00027129996511
   25     0.00000057045519     0.00005494485525     0.00536080175261     0.00027129996511     0.00000000000000
   26     0.00000043539657     0.00005595087132     0.00025648695728     0.00532511507393     0.00024232006347
   27     0.00000056215431     0.00000387460873     0.00023189748880     0.00023341939094     0.00540120312098
   28     0.00000096338548     0.00087540935457     0.00143503991893     0.00007565323043     0.00001455733186
   29     0.00000103783712     0.00081834029500     0.00002056333736     0.00001081806195     0.00000063803773
   30     0.00000297776890     0.00007360374214     0.00003280755817     0.00000080135502     0.00000143520627
   31     0.00000013392245     0.00006484406086     0.00001010289851     0.00000102899846     0.00000033194249
   32     0.00042828994956     0.00200331409412     0.00012341198174     0.00039409122223     0.00000085017145
   33     0.00319108769215     0.00172937907820     0.00000777137808     0.00000541924625     0.00000128444190
   34     0.00000046675643     0.00002851491238     0.00000654651213     0.00000029660971     0.00000033587896

                26                  27                  28                  29                  30

    1     0.00000824228549     0.00000766086174     0.00012595881228     0.00187224972318     0.00032541984830
    2     0.00015075994340     0.00003429595928     0.01485974884271     0.02004622205216     0.00091132839750
    3     0.00127291343639     0.00028394731957     0.01643637659964     0.00184281621243     0.00034137972711
    4     0.01075464060718     0.00296276093830     0.00453384322067     0.00017109395211     0.00006600883737
    5     0.00003962924952     0.00001697538004     0.05418564920100     0.05825030459241     0.01079584944337
    6     0.00037434876635     0.00005580870744     0.01101671591803     0.00035694054547     0.00021855345403
    7     0.00007789802186     0.00001696287247     0.00198039491444     0.00003557237529     0.00001808600299
    8     0.00001168363865     0.00000396041666     0.00012140495491     0.00002867456745     0.00000944139537
    9     0.00005928272018     0.00001399389791     0.00413087803461     0.00038052327708     0.00008242047525
   10     0.00006301458443     0.00000580405821     0.00057766443610     0.00002655747462     0.00002474434142
   11     0.00262579672035     0.01132623290645     0.00690047877496     0.00008257258647     0.00005526675074
   12     0.06097994525197     0.01138369571065     0.00026048206724     0.00005778214328     0.00001748045688
   13     0.01130647740550     0.05978358774822     0.00045520813573     0.00001335331738     0.00000626611373
   14     0.83149250942374     0.05983547147065     0.00006418979754     0.00001128937856     0.00000212575566
   15     0.05963387423350     0.83346409545254     0.00015936200600     0.00001780855655     0.00000207701754
   16     0.00004599708129     0.00004223947128     0.78929312135105     0.01018678078328     0.06118540628052
   17     0.00001190033041     0.00000542071124     0.00895870173649     0.81442398601160     0.00252140233076
   18     0.00001109240134     0.00001030687555     0.05439391465029     0.00259383725452     0.83218058205743
   19     0.00000387351001     0.00000299642268     0.00221011507681     0.05795591199572     0.01159842291581
   20     0.00000275606944     0.00000318155179     0.01009763567581     0.01104727300623     0.05946921002414
   21     0.00000043539657     0.00000056215431     0.00000096338548     0.00000103783712     0.00000297776890
   22     0.00005595087132     0.00000387460873     0.00087540935457     0.00081834029500     0.00007360374214
   23     0.00025648695728     0.00023189748880     0.00143503991893     0.00002056333736     0.00003280755817
   24     0.00532511507393     0.00023341939094     0.00007565323043     0.00001081806195     0.00000080135502
   25     0.00024232006347     0.00540120312098     0.00001455733186     0.00000063803773     0.00000143520627
   26     0.00000000000000     0.00541548329848     0.00001132343915     0.00000142292472     0.00000008364813
   27     0.00541548329848     0.00000000000000     0.00001847884026     0.00000023897498     0.00000039022520
   28     0.00001132343915     0.00001847884026     0.00000000000000     0.00043221656784     0.00561651369986
   29     0.00000142292472     0.00000023897498     0.00043221656784     0.00000000000000     0.00025095385174
   30     0.00000008364813     0.00000039022520     0.00561651369986     0.00025095385174     0.00000000000000
   31     0.00000053962228     0.00000017261983     0.00022432465403     0.00553856855328     0.00025592295905
   32     0.00000307262163     0.00000262190737     0.00008933159050     0.00000132114805     0.00000332280484
   33     0.00000191956384     0.00000049879800     0.00000057629399     0.00000025626205     0.00000090687283
   34     0.00000018745827     0.00000006772863     0.00021578510615     0.00020486398715     0.00536299929525

                31                  32                  33                  34

    1     0.00004121922015     0.00002731493121     0.00001302992048     0.00002177006508
    2     0.00089406847994     0.00018948255968     0.00050478849620     0.00028188979799
    3     0.00038756450726     0.01170687686637     0.00171888410115     0.00010603817795
    4     0.00006531754114     0.00977490326226     0.00031984537204     0.00002950886122
    5     0.01091080897473     0.00015681757164     0.00014232084335     0.00299145162041
    6     0.00014856733646     0.04948130204563     0.01375344465996     0.00006894010765
    7     0.00002066344086     0.81160310481043     0.05880609072630     0.00000749417684
    8     0.00000418161734     0.01097695016908     0.05607202751431     0.00000314834650
    9     0.00004213649446     0.00966513104270     0.01228392816616     0.00002065982032
   10     0.00002714846427     0.06024244813896     0.83202318411832     0.00000946715245
   11     0.00003994868149     0.00318498212219     0.00008082905388     0.00002737681151
   12     0.00002203247645     0.00533257248374     0.00009834426019     0.00000768274596
   13     0.00000575248869     0.00049359505567     0.00001650583766     0.00000588182801
   14     0.00000456034483     0.00076043747602     0.00001570653644     0.00000165283544
   15     0.00000666492851     0.00048547279855     0.00000747722952     0.00000311501645
   16     0.00263838517079     0.00013996092420     0.00008465487504     0.01131359213765
   17     0.06151097575951     0.00005067303370     0.00007138309431     0.01140157861956
   18     0.01147839707799     0.00002329985914     0.00000818864654     0.06050113681464
   19     0.83227899646608     0.00001535359757     0.00001901622965     0.06022256859599
   20     0.05933120046515     0.00001268789026     0.00002118217756     0.83373672466228
   21     0.00000013392245     0.00042828994956     0.00319108769215     0.00000046675643
   22     0.00006484406086     0.00200331409412     0.00172937907820     0.00002851491238
   23     0.00001010289851     0.00012341198174     0.00000777137808     0.00000654651213
   24     0.00000102899846     0.00039409122223     0.00000541924625     0.00000029660971
   25     0.00000033194249     0.00000085017145     0.00000128444190     0.00000033587896
   26     0.00000053962228     0.00000307262163     0.00000191956384     0.00000018745827
   27     0.00000017261983     0.00000262190737     0.00000049879800     0.00000006772863
   28     0.00022432465403     0.00008933159050     0.00000057629399     0.00021578510615
   29     0.00553856855328     0.00000132114805     0.00000025626205     0.00020486398715
   30     0.00025592295905     0.00000332280484     0.00000090687283     0.00536299929525
   31     0.00000000000000     0.00000013351687     0.00000033957575     0.00536924101766
   32     0.00000013351687     0.00000000000000     0.00256321076223     0.00000110546130
   33     0.00000033957575     0.00256321076223     0.00000000000000     0.00000008423322
   34     0.00536924101766     0.00000110546130     0.00000008423322     0.00000000000000



  Atomic Valences: 

 #  #
 Irrep: 1
      1:    0.930674373757297
      2:    4.017297532303686
      3:    4.852538758903476
      4:    4.747382385165452
      5:    4.836639095281671
      6:    4.708518042734917
      7:    4.413216422189560
      8:    4.060496075172345
      9:    5.097518140697622
     10:    4.477842616929554
     11:    4.495668922282380
     12:    4.489658979580913
     13:    4.455214899308094
     14:    4.457218914947609
     15:    4.458263442644348
     16:    4.503320765621625
     17:    4.465847318814310
     18:    4.464716595711223
     19:    4.466059144164180
     20:    4.456267566061690
     21:    0.929342228408730
     22:    2.899753374460064
     23:    0.985908186085249
     24:    0.983891048033418
     25:    0.990137488967971
     26:    0.990240976620071
     27:    0.990568307889185
     28:    0.989772017619362
     29:    0.986682789644733
     30:    0.991434190613305
     31:    0.991324274277637
     32:    0.979937443870917
     33:    0.983563566057516
     34:    0.991952173151126


    Psi4 stopped on: Saturday, 18 November 2023 09:12AM
    Psi4 wall time for execution: 0:01:04.23

*** Psi4 exiting successfully. Buy a developer a beer!
