      -----------------------------------------------------------      
     |                   =====================                   |     
     |                           x T B                           |     
     |                   =====================                   |     
     |                         S. Grimme                         |     
     |          Mulliken Center for Theoretical Chemistry        |     
     |                    University of Bonn                     |     
      -----------------------------------------------------------      

   * xtb version 6.5.0 (97a52f5) compiled by 'conda@d2599ee0d4f4' on 2022-05-15

   xtb is free software: you can redistribute it and/or modify it under
   the terms of the GNU Lesser General Public License as published by
   the Free Software Foundation, either version 3 of the License, or
   (at your option) any later version.
   
   xtb is distributed in the hope that it will be useful,
   but WITHOUT ANY WARRANTY; without even the implied warranty of
   MERCHANTABILITY or FITNESS FOR A PARTICULAR PURPOSE.  See the
   GNU Lesser General Public License for more details.
   
   Cite this work as:
   * C. Bannwarth, E. Caldeweyher, S. Ehlert, A. Hansen, P. Pracht,
     J. Seibert, S. Spicher, S. Grimme, WIREs Comput. Mol. Sci., 2020, 11,
     e01493. DOI: 10.1002/wcms.1493
   
   for GFN2-xTB:
   * C. Bannwarth, S. Ehlert and S. Grimme., J. Chem. Theory Comput., 2019,
     15, 1652-1671. DOI: 10.1021/acs.jctc.8b01176
   for GFN1-xTB:
   * S. Grimme, C. Bannwarth, P. Shushkov, J. Chem. Theory Comput., 2017,
     13, 1989-2009. DOI: 10.1021/acs.jctc.7b00118
   for GFN0-xTB:
   * P. Pracht, E. Caldeweyher, S. Ehlert, S. Grimme, ChemRxiv, 2019, preprint.
     DOI: 10.26434/chemrxiv.8326202.v1
   for GFN-FF:
   * S. Spicher and S. Grimme, Angew. Chem. Int. Ed., 2020, 59, 15665-15673.
     DOI: 10.1002/anie.202004239
   
   for ALPB and GBSA implicit solvation:
   * S. Ehlert, M. Stahn, S. Spicher, S. Grimme, J. Chem. Theory Comput.,
     2021, 17, 4250-4261. DOI: 10.1021/acs.jctc.1c00471
   
   for DFT-D4:
   * E. Caldeweyher, C. Bannwarth and S. Grimme, J. Chem. Phys., 2017,
     147, 034112. DOI: 10.1063/1.4993215
   * E. Caldeweyher, S. Ehlert, A. Hansen, H. Neugebauer, S. Spicher,
     C. Bannwarth and S. Grimme, J. Chem. Phys., 2019, 150, 154122.
     DOI: 10.1063/1.5090222
   * E. Caldeweyher, J.-M. Mewes, S. Ehlert and S. Grimme, Phys. Chem. Chem. Phys.
     2020, 22, 8499-8512. DOI: 10.1039/D0CP00502A
   
   for sTDA-xTB:
   * S. Grimme and C. Bannwarth, J. Chem. Phys., 2016, 145, 054103.
     DOI: 10.1063/1.4959605
   
   in the mass-spec context:
   * V. Asgeirsson, C. Bauer and S. Grimme, Chem. Sci., 2017, 8, 4879.
     DOI: 10.1039/c7sc00601b
   * J. Koopman and S. Grimme, ACS Omega 2019, 4, 12, 15120-15133.
     DOI: 10.1021/acsomega.9b02011
   
   for metadynamics refer to:
   * S. Grimme, J. Chem. Theory Comput., 2019, 155, 2847-2862
     DOI: 10.1021/acs.jctc.9b00143
   
   for SPH calculations refer to:
   * S. Spicher and S. Grimme, J. Chem. Theory Comput., 2021, 17, 1701-1714
     DOI: 10.1021/acs.jctc.0c01306
   
   with help from (in alphabetical order)
   P. Atkinson, C. Bannwarth, F. Bohle, G. Brandenburg, E. Caldeweyher
   M. Checinski, S. Dohm, S. Ehlert, S. Ehrlich, I. Gerasimov, C. Hölzer
   A. Katbashev, J. Koopman, C. Lavigne, S. Lehtola, F. März, M. Müller,
   F. Musil, H. Neugebauer, J. Pisarek, C. Plett, P. Pracht, F. Pultar,
   J. Seibert, P. Shushkov, S. Spicher, M. Stahn, M. Steiner, T. Strunk,
   J. Stückrath, T. Rose, and J. Unsleber
   
 * started run on 2023/11/18 at 09:05:58.914     

           -------------------------------------------------
          |                Calculation Setup                |
           -------------------------------------------------

          program call               : /home/liuchw/anaconda3/envs/xtbenv/bin/xtb --gfn 2 --chrg 0 --uhf 0 1_7_Index_0-opt-2-3-166_preQMOPTprefit_xyzformat.xyz --opt --input xtb-opt-2-3-166_constr.txt
          hostname                   : node165.bme.utexas.edu
          coordinate file            : 1_7_Index_0-opt-2-3-166_preQMOPTprefit_xyzformat.xyz
          omp threads                :                    64

   ID    Z sym.   atoms
    1    1 H      1, 21, 23-34
    2    7 N      2, 8
    3    6 C      3-7, 9-20
    4    8 O      22
constraining angle 1 2 3 4 to  166.0576071°, actual value:  166.0576071°
constraining angle 5 2 3 4 to  303.0165771°, actual value:  -56.9834229°
constraining angle 1 2 5 17 to  332.0727660°, actual value:  -27.9272340°
constraining angle 3 2 5 17 to  195.0055620°, actual value: -164.9944380°
constraining angle 2 3 4 12 to  262.2242806°, actual value:  -97.7757194°
constraining angle 2 3 6 7 to  183.0135260°, actual value: -176.9864740°

           -------------------------------------------------
          |                 G F N 2 - x T B                 |
           -------------------------------------------------

        Reference                      10.1021/acs.jctc.8b01176
      * Hamiltonian:
        H0-scaling (s, p, d)           1.850000    2.230000    2.230000
        zeta-weighting                 0.500000
      * Dispersion:
        s8                             2.700000
        a1                             0.520000
        a2                             5.000000
        s9                             5.000000
      * Repulsion:
        kExp                           1.500000    1.000000
        rExp                           1.000000
      * Coulomb:
        alpha                          2.000000
        third order                    shell-resolved
        anisotropic                    true
        a3                             3.000000
        a5                             4.000000
        cn-shift                       1.200000
        cn-exp                         4.000000
        max-rad                        5.000000

q/qsh data taken from xtbrestart
CAMM data taken from xtbrestart

          ...................................................
          :                      SETUP                      :
          :.................................................:
          :  # basis functions                  94          :
          :  # atomic orbitals                  94          :
          :  # shells                           54          :
          :  # electrons                        98          :
          :  max. iterations                   250          :
          :  Hamiltonian                  GFN2-xTB          :
          :  restarted?                       true          :
          :  GBSA solvation                  false          :
          :  PC potential                    false          :
          :  electronic temp.          300.0000000     K    :
          :  accuracy                    1.0000000          :
          :  -> integral cutoff          0.2500000E+02      :
          :  -> integral neglect         0.1000000E-07      :
          :  -> SCF convergence          0.1000000E-05 Eh   :
          :  -> wf. convergence          0.1000000E-03 e    :
          :  Broyden damping             0.4000000          :
          ...................................................

 iter      E             dE          RMSdq      gap      omega  full diag
   1    -54.2254117 -0.542254E+02  0.251E+00    2.03       0.0  T
   2    -54.2260645 -0.652836E-03  0.148E+00    2.08       1.0  T
   3    -54.2210042  0.506033E-02  0.375E-01    2.01       1.0  T
   4    -54.2264506 -0.544641E-02  0.798E-02    2.08       1.0  T
   5    -54.2266492 -0.198636E-03  0.258E-02    2.06       1.0  T
   6    -54.2266537 -0.442626E-05  0.129E-02    2.07       1.3  T
   7    -54.2266560 -0.231722E-05  0.372E-03    2.07       4.6  T
   8    -54.2266561 -0.160282E-06  0.163E-03    2.07      10.5  T
   9    -54.2266562 -0.489151E-07  0.688E-04    2.07      24.9  T
  10    -54.2266562 -0.413750E-08  0.266E-04    2.07      64.6  T

   *** convergence criteria satisfied after 10 iterations ***

         #    Occupation            Energy/Eh            Energy/eV
      -------------------------------------------------------------
         1        2.0000           -0.6875260             -18.7085
       ...           ...                  ...                  ...
        43        2.0000           -0.4173496             -11.3567
        44        2.0000           -0.4096238             -11.1464
        45        2.0000           -0.4043965             -11.0042
        46        2.0000           -0.3991451             -10.8613
        47        2.0000           -0.3896916             -10.6040
        48        2.0000           -0.3802825             -10.3480
        49        2.0000           -0.3546295              -9.6500 (HOMO)
        50                         -0.2786896              -7.5835 (LUMO)
        51                         -0.2431014              -6.6151
        52                         -0.2364342              -6.4337
        53                         -0.2245947              -6.1115
        54                         -0.2153505              -5.8600
       ...                                ...                  ...
        94                          0.6641788              18.0732
      -------------------------------------------------------------
                  HL-Gap            0.0759399 Eh            2.0664 eV
             Fermi-level           -0.3166595 Eh           -8.6167 eV

 SCC (total)                   0 d,  0 h,  0 min,  1.464 sec
 SCC setup                      ...        0 min,  0.010 sec (  0.695%)
 Dispersion                     ...        0 min,  0.021 sec (  1.405%)
 classical contributions        ...        0 min,  0.006 sec (  0.442%)
 integral evaluation            ...        0 min,  0.032 sec (  2.154%)
 iterations                     ...        0 min,  1.241 sec ( 84.793%)
 molecular gradient             ...        0 min,  0.143 sec (  9.790%)
 printout                       ...        0 min,  0.010 sec (  0.705%)

         :::::::::::::::::::::::::::::::::::::::::::::::::::::
         ::                     SUMMARY                     ::
         :::::::::::::::::::::::::::::::::::::::::::::::::::::
         :: total energy             -53.414239643542 Eh    ::
         :: gradient norm              0.084272953645 Eh/a0 ::
         :: HOMO-LUMO gap              2.066430906568 eV    ::
         ::.................................................::
         :: SCC energy               -54.226656186145 Eh    ::
         :: -> isotropic ES            0.044359314159 Eh    ::
         :: -> anisotropic ES          0.003311030886 Eh    ::
         :: -> anisotropic XC          0.031000459451 Eh    ::
         :: -> dispersion             -0.037330188863 Eh    ::
         :: repulsion energy           0.812172055242 Eh    ::
         :: add. restraining           0.000000000000 Eh    ::
         :: total charge              -0.000000000000 e     ::
         :::::::::::::::::::::::::::::::::::::::::::::::::::::

      ----------------------------------------------------------- 
     |                   =====================                   |
     |                        A N C O P T                        |
     |                   =====================                   |
     |               Approximate Normal Coordinate               |
     |                Rational Function Optimizer                |
      ----------------------------------------------------------- 

          ...................................................
          :                      SETUP                      :
          :.................................................:
          :   optimization level            normal          :
          :   max. optcycles                   200          :
          :   ANC micro-cycles                  20          :
          :   degrees of freedom                96          :
          :.................................................:
          :   RF solver                   davidson          :
          :   write xtbopt.log                true          :
          :   linear?                        false          :
          :   energy convergence         0.5000000E-05 Eh   :
          :   grad. convergence          0.1000000E-02 Eh/α :
          :   maximium RF displ.         1.0000000          :
          :   Hlow (freq-cutoff)         0.1000000E-01      :
          :   Hmax (freq-cutoff)         5.0000000          :
          :   S6 in model hess.         20.0000000          :
          ...................................................

generating ANC from model Hessian ...
Using Lindh-Hessian (1995)
 Shifting diagonal of input Hessian by    9.1457970168267524E-003
 Lowest  eigenvalues of input Hessian
    0.000000    0.000000    0.000000    0.000000    0.000000    0.000000
    0.010000    0.010146    0.010847    0.011083    0.012094    0.013268
    0.015170    0.016658    0.018971    0.022310    0.022661    0.023279
 Highest eigenvalues
    2.289739    2.849931    4.185949    5.097229    8.924342   18.028542


........................................................................
.............................. CYCLE    1 ..............................
........................................................................
   1    -54.2266562 -0.542267E+02  0.111E-04    2.07       0.0  T
   2    -54.2266562 -0.341274E-10  0.767E-05    2.07     223.6  T
   3    -54.2266562 -0.704929E-10  0.560E-05    2.07     306.0  T
     SCC iter.                  ...        0 min,  0.392 sec
     gradient                   ...        0 min,  0.155 sec
 * total energy  :   -53.4142396 Eh     change       -0.3292726E-09 Eh
   gradient norm :     0.0842725 Eh/α   predicted     0.0000000E+00 (-100.00%)
   displ. norm   :     0.4134618 α      lambda       -0.2019439E-01
   maximum displ.:     0.2536605 α      in ANC's #13, #21, #48, ...

........................................................................
.............................. CYCLE    2 ..............................
........................................................................
   1    -54.3113929 -0.543114E+02  0.247E-01    2.17       0.0  T
   2    -54.3115093 -0.116324E-03  0.176E-01    2.14       1.0  T
   3    -54.3117271 -0.217804E-03  0.114E-01    2.17       1.0  T
   4    -54.3118752 -0.148143E-03  0.411E-02    2.15       1.0  T
   5    -54.3119207 -0.455140E-04  0.101E-02    2.16       1.7  T
   6    -54.3119235 -0.274232E-05  0.358E-03    2.16       4.8  T
   7    -54.3119235 -0.394805E-07  0.164E-03    2.16      10.4  T
   8    -54.3119235 -0.398675E-07  0.545E-04    2.16      31.5  T
   9    -54.3119235 -0.197559E-08  0.237E-04    2.16      72.2  T
     SCC iter.                  ...        0 min,  1.027 sec
     gradient                   ...        0 min,  0.137 sec
 * total energy  :   -53.4282779 Eh     change       -0.1403830E-01 Eh
   gradient norm :     0.0559559 Eh/α   predicted    -0.1185298E-01 ( -15.57%)
   displ. norm   :     0.4334044 α      lambda       -0.7776241E-02
   maximum displ.:     0.3122518 α      in ANC's #13, #21, #7, ...

........................................................................
.............................. CYCLE    3 ..............................
........................................................................
   1    -54.3578637 -0.543579E+02  0.202E-01    2.23       0.0  T
   2    -54.3579719 -0.108271E-03  0.169E-01    2.19       1.0  T
   3    -54.3584948 -0.522891E-03  0.812E-02    2.22       1.0  T
   4    -54.3585119 -0.170928E-04  0.359E-02    2.21       1.0  T
   5    -54.3585354 -0.234513E-04  0.955E-03    2.21       1.8  T
   6    -54.3585381 -0.270018E-05  0.261E-03    2.21       6.6  T
   7    -54.3585381 -0.653485E-08  0.120E-03    2.21      14.2  T
   8    -54.3585381 -0.248570E-07  0.327E-04    2.21      52.4  T
   9    -54.3585381 -0.143753E-08  0.147E-04    2.21     116.6  T
     SCC iter.                  ...        0 min,  1.072 sec
     gradient                   ...        0 min,  0.148 sec
 * total energy  :   -53.4314538 Eh     change       -0.3175896E-02 Eh
   gradient norm :     0.2049610 Eh/α   predicted    -0.4618473E-02 (  45.42%)
   displ. norm   :     0.3278056 α      lambda       -0.5847808E-02
   maximum displ.:     0.2251102 α      in ANC's #13, #7, #3, ...

........................................................................
.............................. CYCLE    4 ..............................
........................................................................
   1    -54.3758630 -0.543759E+02  0.161E-01    2.24       0.0  T
   2    -54.3759443 -0.813905E-04  0.133E-01    2.21       1.0  T
   3    -54.3763255 -0.381189E-03  0.595E-02    2.23       1.0  T
   4    -54.3763368 -0.112654E-04  0.261E-02    2.22       1.0  T
   5    -54.3763474 -0.105880E-04  0.710E-03    2.23       2.4  T
   6    -54.3763489 -0.152594E-05  0.175E-03    2.23       9.8  T
   7    -54.3763489 -0.946995E-08  0.834E-04    2.23      20.6  T
   8    -54.3763489 -0.106136E-07  0.236E-04    2.23      72.8  T
     SCC iter.                  ...        0 min,  0.912 sec
     gradient                   ...        0 min,  0.155 sec
 * total energy  :   -53.4315579 Eh     change       -0.1040422E-03 Eh
   gradient norm :     0.2360790 Eh/α   predicted    -0.3238100E-02 (3012.30%)
   displ. norm   :     0.1123001 α      lambda       -0.3969382E-02
   maximum displ.:     0.0477023 α      in ANC's #13, #3, #21, ...

........................................................................
.............................. CYCLE    5 ..............................
........................................................................
   1    -54.3579294 -0.543579E+02  0.768E-02    2.19       0.0  T
   2    -54.3579538 -0.243987E-04  0.636E-02    2.21       1.0  T
   3    -54.3580254 -0.715713E-04  0.306E-02    2.20       1.0  T
   4    -54.3580259 -0.541249E-06  0.151E-02    2.20       1.1  T
   5    -54.3580304 -0.448440E-05  0.391E-03    2.20       4.4  T
   6    -54.3580308 -0.464026E-06  0.972E-04    2.20      17.6  T
   7    -54.3580308 -0.142449E-08  0.507E-04    2.20      33.8  T
     SCC iter.                  ...        0 min,  0.818 sec
     gradient                   ...        0 min,  0.149 sec
 * total energy  :   -53.4335752 Eh     change       -0.2017290E-02 Eh
   gradient norm :     0.0288193 Eh/α   predicted    -0.2009651E-02 (  -0.38%)
   displ. norm   :     0.1386798 α      lambda       -0.4107071E-03
   maximum displ.:     0.1011980 α      in ANC's #3, #10, #7, ...

........................................................................
.............................. CYCLE    6 ..............................
........................................................................
   1    -54.3554205 -0.543554E+02  0.417E-02    2.19       0.0  T
   2    -54.3554214 -0.876909E-06  0.241E-02    2.19       1.0  T
   3    -54.3554197  0.168963E-05  0.922E-03    2.19       1.9  T
   4    -54.3554216 -0.187315E-05  0.212E-03    2.19       8.1  T
   5    -54.3554217 -0.130696E-06  0.713E-04    2.19      24.1  T
   6    -54.3554217 -0.112872E-07  0.348E-04    2.19      49.3  T
     SCC iter.                  ...        0 min,  0.800 sec
     gradient                   ...        0 min,  0.149 sec
 * total energy  :   -53.4338157 Eh     change       -0.2405028E-03 Eh
   gradient norm :     0.0228888 Eh/α   predicted    -0.2093101E-03 ( -12.97%)
   displ. norm   :     0.1925942 α      lambda       -0.2831874E-03
   maximum displ.:     0.1386451 α      in ANC's #3, #5, #10, ...

........................................................................
.............................. CYCLE    7 ..............................
........................................................................
   1    -54.3545261 -0.543545E+02  0.577E-02    2.19       0.0  T
   2    -54.3545281 -0.197246E-05  0.333E-02    2.18       1.0  T
   3    -54.3545199  0.820397E-05  0.280E-02    2.19       1.0  T
   4    -54.3545359 -0.159683E-04  0.456E-03    2.19       3.8  T
   5    -54.3545366 -0.720255E-06  0.124E-03    2.19      13.8  T
   6    -54.3545366 -0.360579E-07  0.508E-04    2.19      33.8  T
   7    -54.3545366 -0.106365E-08  0.182E-04    2.19      94.4  T
     SCC iter.                  ...        0 min,  0.855 sec
     gradient                   ...        0 min,  0.142 sec
 * total energy  :   -53.4340294 Eh     change       -0.2136802E-03 Eh
   gradient norm :     0.0141927 Eh/α   predicted    -0.1468681E-03 ( -31.27%)
   displ. norm   :     0.1804762 α      lambda       -0.1747726E-03
   maximum displ.:     0.1370862 α      in ANC's #3, #1, #5, ...

........................................................................
.............................. CYCLE    8 ..............................
........................................................................
   1    -54.3548632 -0.543549E+02  0.472E-02    2.18       0.0  T
   2    -54.3548650 -0.173136E-05  0.270E-02    2.18       1.0  T
   3    -54.3548583  0.666299E-05  0.199E-02    2.19       1.0  T
   4    -54.3548669 -0.858259E-05  0.361E-03    2.18       4.8  T
   5    -54.3548674 -0.511139E-06  0.991E-04    2.18      17.3  T
   6    -54.3548674 -0.228478E-07  0.408E-04    2.18      42.0  T
     SCC iter.                  ...        0 min,  0.661 sec
     gradient                   ...        0 min,  0.178 sec
 * total energy  :   -53.4341582 Eh     change       -0.1288122E-03 Eh
   gradient norm :     0.0027246 Eh/α   predicted    -0.9023860E-04 ( -29.95%)
   displ. norm   :     0.1295557 α      lambda       -0.8307278E-04
   maximum displ.:     0.1038255 α      in ANC's #3, #1, #6, ...

........................................................................
.............................. CYCLE    9 ..............................
........................................................................
   1    -54.3553919 -0.543554E+02  0.299E-02    2.18       0.0  T
   2    -54.3553925 -0.588996E-06  0.177E-02    2.18       1.0  T
   3    -54.3553913  0.111429E-05  0.698E-03    2.18       2.5  T
   4    -54.3553927 -0.130713E-05  0.130E-03    2.18      13.2  T
   5    -54.3553927 -0.516543E-07  0.598E-04    2.18      28.7  T
   6    -54.3553927 -0.846987E-08  0.266E-04    2.18      64.4  T
     SCC iter.                  ...        0 min,  0.680 sec
     gradient                   ...        0 min,  0.158 sec
 * total energy  :   -53.4342237 Eh     change       -0.6548445E-04 Eh
   gradient norm :     0.0038748 Eh/α   predicted    -0.4224006E-04 ( -35.50%)
   displ. norm   :     0.0944720 α      lambda       -0.4904096E-04
   maximum displ.:     0.0789174 α      in ANC's #3, #1, #6, ...

........................................................................
.............................. CYCLE   10 ..............................
........................................................................
   1    -54.3556717 -0.543557E+02  0.204E-02    2.18       0.0  T
   2    -54.3556719 -0.135581E-06  0.122E-02    2.18       1.4  T
   3    -54.3556709  0.931569E-06  0.528E-03    2.18       3.2  T
   4    -54.3556719 -0.101664E-05  0.936E-04    2.18      18.3  T
   5    -54.3556720 -0.225201E-07  0.318E-04    2.18      53.9  T
   6    -54.3556720 -0.105875E-08  0.186E-04    2.18      92.3  T
     SCC iter.                  ...        0 min,  0.643 sec
     gradient                   ...        0 min,  0.155 sec
 * total energy  :   -53.4342626 Eh     change       -0.3895157E-04 Eh
   gradient norm :     0.0026193 Eh/α   predicted    -0.2475233E-04 ( -36.45%)
   displ. norm   :     0.0680301 α      lambda       -0.2702784E-04
   maximum displ.:     0.0595819 α      in ANC's #3, #1, #6, ...

........................................................................
.............................. CYCLE   11 ..............................
........................................................................
   1    -54.3557661 -0.543558E+02  0.146E-02    2.18       0.0  T
   2    -54.3557661 -0.720699E-07  0.860E-03    2.18       2.0  T
   3    -54.3557659  0.203481E-06  0.265E-03    2.18       6.5  T
   4    -54.3557662 -0.229659E-06  0.582E-04    2.18      29.5  T
   5    -54.3557662 -0.811875E-08  0.230E-04    2.18      74.6  T
     SCC iter.                  ...        0 min,  0.609 sec
     gradient                   ...        0 min,  0.153 sec
 * total energy  :   -53.4342843 Eh     change       -0.2166412E-04 Eh
   gradient norm :     0.0011555 Eh/α   predicted    -0.1358868E-04 ( -37.28%)
   displ. norm   :     0.0722247 α      lambda       -0.1513447E-04
   maximum displ.:     0.0636938 α      in ANC's #3, #5, #1, ...

........................................................................
.............................. CYCLE   12 ..............................
........................................................................
   1    -54.3557725 -0.543558E+02  0.182E-02    2.18       0.0  T
   2    -54.3557726 -0.870529E-07  0.106E-02    2.18       1.6  T
   3    -54.3557724  0.150278E-06  0.227E-03    2.18       7.6  T
   4    -54.3557726 -0.181291E-06  0.396E-04    2.18      43.3  T
   5    -54.3557726 -0.236798E-08  0.203E-04    2.18      84.3  T
     SCC iter.                  ...        0 min,  0.618 sec
     gradient                   ...        0 min,  0.162 sec
 * total energy  :   -53.4343016 Eh     change       -0.1731299E-04 Eh
   gradient norm :     0.0015516 Eh/α   predicted    -0.7597220E-05 ( -56.12%)
   displ. norm   :     0.0497403 α      lambda       -0.8996141E-05
   maximum displ.:     0.0420059 α      in ANC's #3, #4, #5, ...

........................................................................
.............................. CYCLE   13 ..............................
........................................................................
   1    -54.3557106 -0.543557E+02  0.152E-02    2.17       0.0  T
   2    -54.3557106 -0.615635E-07  0.894E-03    2.17       1.9  T
   3    -54.3557100  0.684015E-06  0.494E-03    2.18       3.5  T
   4    -54.3557107 -0.764812E-06  0.683E-04    2.17      25.1  T
   5    -54.3557107 -0.163506E-07  0.203E-04    2.17      84.4  T
     SCC iter.                  ...        0 min,  0.583 sec
     gradient                   ...        0 min,  0.161 sec
 * total energy  :   -53.4343124 Eh     change       -0.1084011E-04 Eh
   gradient norm :     0.0013375 Eh/α   predicted    -0.4503543E-05 ( -58.45%)
   displ. norm   :     0.0587065 α      lambda       -0.9065715E-05
   maximum displ.:     0.0441117 α      in ANC's #3, #4, #5, ...

........................................................................
.............................. CYCLE   14 ..............................
........................................................................
   1    -54.3556597 -0.543557E+02  0.204E-02    2.17       0.0  T
   2    -54.3556597 -0.467030E-07  0.119E-02    2.17       1.4  T
   3    -54.3556591  0.652671E-06  0.467E-03    2.18       3.7  T
   4    -54.3556598 -0.711743E-06  0.588E-04    2.17      29.1  T
   5    -54.3556598 -0.116239E-07  0.217E-04    2.17      79.2  T
     SCC iter.                  ...        0 min,  0.592 sec
     gradient                   ...        0 min,  0.159 sec
 * total energy  :   -53.4343227 Eh     change       -0.1028073E-04 Eh
   gradient norm :     0.0009027 Eh/α   predicted    -0.4542818E-05 ( -55.81%)
   displ. norm   :     0.0545440 α      lambda       -0.5783590E-05
   maximum displ.:     0.0409511 α      in ANC's #3, #4, #1, ...

........................................................................
.............................. CYCLE   15 ..............................
........................................................................
   1    -54.3555898 -0.543556E+02  0.183E-02    2.17       0.0  T
   2    -54.3555899 -0.480603E-07  0.107E-02    2.17       1.6  T
   3    -54.3555895  0.327876E-06  0.335E-03    2.17       5.1  T
   4    -54.3555899 -0.356051E-06  0.563E-04    2.17      30.5  T
   5    -54.3555899 -0.105072E-07  0.195E-04    2.17      87.8  T
     SCC iter.                  ...        0 min,  0.564 sec
     gradient                   ...        0 min,  0.151 sec
 * total energy  :   -53.4343294 Eh     change       -0.6689972E-05 Eh
   gradient norm :     0.0006302 Eh/α   predicted    -0.2897016E-05 ( -56.70%)
   displ. norm   :     0.0424690 α      lambda       -0.3293462E-05
   maximum displ.:     0.0325884 α      in ANC's #3, #4, #1, ...

........................................................................
.............................. CYCLE   16 ..............................
........................................................................
   1    -54.3555973 -0.543556E+02  0.147E-02    2.17       0.0  T
   2    -54.3555974 -0.290556E-07  0.864E-03    2.17       2.0  T
   3    -54.3555973  0.108506E-06  0.196E-03    2.17       8.8  T
   4    -54.3555974 -0.118080E-06  0.418E-04    2.17      41.0  T
   5    -54.3555974 -0.550818E-08  0.148E-04    2.17     115.5  T
     SCC iter.                  ...        0 min,  0.554 sec
     gradient                   ...        0 min,  0.143 sec
 * total energy  :   -53.4343331 Eh     change       -0.3711415E-05 Eh
   gradient norm :     0.0004446 Eh/α   predicted    -0.1649144E-05 ( -55.57%)
   displ. norm   :     0.0349773 α      lambda       -0.2292760E-05
   maximum displ.:     0.0272887 α      in ANC's #3, #1, #4, ...

   *** GEOMETRY OPTIMIZATION CONVERGED AFTER 16 ITERATIONS ***

------------------------------------------------------------------------
 total energy gain   :        -0.0200935 Eh      -12.6088 kcal/mol
 total RMSD          :         0.2806799 a0        0.1485 Å
 total power (kW/mol):        -3.2972104 (step)   -3.1584 (real)
------------------------------------------------------------------------

 ANCopt (total)                0 d,  0 h,  0 min, 16.703 sec
 optimizer setup                ...        0 min,  0.000 sec (  0.001%)
 model hessian                  ...        0 min,  0.006 sec (  0.033%)
 ANC generation                 ...        0 min,  0.001 sec (  0.009%)
 coordinate transformation      ...        0 min,  0.089 sec (  0.533%)
 single point calculation       ...        0 min, 15.845 sec ( 94.861%)
 optimization log               ...        0 min,  0.319 sec (  1.908%)
 hessian update                 ...        0 min,  0.420 sec (  2.512%)
 rational function              ...        0 min,  0.017 sec (  0.099%)

================
 final structure:
================
34
 xtb: 6.5.0 (97a52f5)
H            1.18762460921676        1.43390880582782       -0.62530443889977
N            0.93007168860061        0.43931716524808       -0.51976318400687
C           -0.40032260896621        0.37894970584116       -0.22604498797379
C           -1.18870559661828       -0.87703470272044       -0.29998609306029
C            2.02199297742938       -0.25260509050073        0.00325937669337
C           -1.10426714766576        1.55091930784684       -0.10249405458073
C           -2.48486574096270        1.75408457332630        0.25358178722379
N           -1.49553438599106        3.75787311832517        0.14517089896411
C           -0.49314808053518        2.87889963101251       -0.15108142102181
C           -2.67737166717799        3.07905080651128        0.39643688837845
C           -1.38642025690463       -1.70160718543945        0.80326159796159
C           -1.93422872557540       -1.10513557837370       -1.45219623105742
C           -2.23449520082471       -2.79196532355266        0.71963416530770
C           -2.77495122604562       -2.20003372419584       -1.53653300407852
C           -2.92028093610309       -3.05147428636685       -0.45443471168700
C            1.93910874596410       -1.47597510244112        0.66363461794708
C            3.28622045536814        0.26972010985629       -0.28437711756944
C            3.08975477045987       -2.11272721567467        1.09347256181275
C            4.42776072760313       -0.37383910315671        0.14554082721333
C            4.33644285557659       -1.56770834253437        0.84431895959820
H           -1.37670989811831        4.75591031022302        0.19197355063664
O            0.67035337550219        3.18171302948379       -0.41501521148580
H           -0.89920379345499       -1.47302726714625        1.74075193395093
H           -1.82686871969743       -0.43457379151681       -2.29196174587202
H           -2.37164574863707       -3.43074882811967        1.57987874085083
H           -3.33233946385495       -2.37789163969264       -2.44429261286021
H           -3.58186919903248       -3.90248670582364       -0.51859805490832
H            0.98291288313403       -1.93662704489343        0.83933738801016
H            3.35656875946342        1.20372469220680       -0.82273785652098
H            3.00606184255651       -3.05208352524522        1.62044492380557
H            5.39556440141679        0.05310695760099       -0.07217649118216
H           -3.21038102336833        0.97637705611580        0.38540215718088
H           -3.56277799877282        3.61888386179934        0.67163983108662
H            5.22934431601505       -2.07189368383084        1.18131404014340

 Bond Distances (Angstroems)
 ---------------------------
H1-N2=1.0328         N2-H1=1.0328         N2-C3=1.3638         N2-C5=1.3945         C3-N2=1.3638         C3-C4=1.4848         
C3-C6=1.3727         C4-C3=1.4848         C4-C11=1.3915        C4-C12=1.3912        C5-N2=1.3945         C5-C16=1.3927        
C5-C17=1.3978        C6-C3=1.3727         C6-C7=1.4402         C6-C9=1.4627         C7-C6=1.4402         C7-C10=1.3465        
C7-H32=1.0717        N8-C9=1.3657         N8-C10=1.3859        N8-H21=1.0062        C9-C6=1.4627         C9-N8=1.3657         
C9-O22=1.2309        C10-C7=1.3465        C10-N8=1.3859        C10-H33=1.0729       C11-C4=1.3915        C11-C13=1.3839       
C11-H23=1.0810       C12-C4=1.3912        C12-C14=1.3830       C12-H24=1.0800       C13-C11=1.3839       C13-C15=1.3842       
C13-H25=1.0802       C14-C12=1.3830       C14-C15=1.3846       C14-H26=1.0800       C15-C13=1.3842       C15-C14=1.3846       
C15-H27=1.0798       C16-C5=1.3927        C16-C18=1.3835       C16-H28=1.0758       C17-C5=1.3978        C17-C19=1.3792       
C17-H29=1.0803       C18-C16=1.3835       C18-C20=1.3832       C18-H30=1.0803       C19-C17=1.3792       C19-C20=1.3863       
C19-H31=1.0800       C20-C18=1.3832       C20-C19=1.3863       C20-H34=1.0794       H21-N8=1.0062        O22-C9=1.2309        
H23-C11=1.0810       H24-C12=1.0800       H25-C13=1.0802       H26-C14=1.0800       H27-C15=1.0798       H28-C16=1.0758       
H29-C17=1.0803       H30-C18=1.0803       H31-C19=1.0800       H32-C7=1.0717        H33-C10=1.0729       H34-C20=1.0794       
 C  H  Rav=1.0785 sigma=0.0030  Rmin=1.0717  Rmax=1.0810    12
 C  C  Rav=1.3969 sigma=0.0331  Rmin=1.3465  Rmax=1.4848    17
 N  H  Rav=1.0195 sigma=0.0133  Rmin=1.0062  Rmax=1.0328     2
 N  C  Rav=1.3775 sigma=0.0131  Rmin=1.3638  Rmax=1.3945     4
 O  C  Rav=1.2309 sigma=0.0000  Rmin=1.2309  Rmax=1.2309     1

 selected bond angles (degree)
 --------------------
C3-N2-H1=107.93                C5-N2-H1=108.72                C5-N2-C3=131.39                C4-C3-N2=123.00                
C6-C3-N2=118.81                C6-C3-C4=117.03                C11-C4-C3=122.50               C12-C4-C3=117.68               
C12-C4-C11=118.91              C16-C5-N2=124.55               C17-C5-N2=116.46               C17-C5-C16=118.66              
C7-C6-C3=129.37                C9-C6-C3=123.91                C9-C6-C7=106.30                C10-C7-C6=107.58               
H32-C7-C6=125.24               H32-C7-C10=127.17              C10-N8-C9=110.49               H21-N8-C9=124.18               
H21-N8-C10=125.32              N8-C9-C6=105.69                O22-C9-C6=128.71               O22-C9-N8=125.59               
N8-C10-C7=109.93               H33-C10-C7=129.82              H33-C10-N8=120.25              

 selected dihedral angles (degree)
 ---------------------------------
C4-C3-N2-H1=166.01            C4-C3-N2-C5=303.29            C6-C3-N2-H1=358.71            C6-C3-N2-C5=135.99            
C11-C4-C3-N2= 93.48           C11-C4-C3-C6=261.00           C12-C4-C3-N2=262.37           C12-C4-C3-C6= 69.88           
C16-C5-N2-H1=158.79           C16-C5-N2-C3= 21.75           C17-C5-N2-H1=332.11           C17-C5-N2-C3=195.07           
C7-C6-C3-N2=182.93            C7-C6-C3-C4= 14.87            C9-C6-C3-N2=354.43            C9-C6-C3-C4=186.37            
C10-C7-C6-C3=172.93           C10-C7-C6-C9=  0.28           H32-C7-C6-C3=353.46           H32-C7-C6-C9=180.81           
N8-C9-C6-C3=186.06            N8-C9-C6-C7=359.22            O22-C9-C6-C3=  6.86           O22-C9-C6-C7=180.02           
C6-C9-N8-C10=  1.01           C6-C9-N8-H21=179.74           O22-C9-N8-C10=180.24          O22-C9-N8-H21=358.98          
N8-C10-C7-C6=  0.33           N8-C10-C7-H32=179.79          H33-C10-C7-C6=181.17          H33-C10-C7-H32=  0.63         
C7-C10-N8-C9=359.13           C7-C10-N8-H21=180.41          H33-C10-N8-C9=178.38          H33-C10-N8-H21=359.66         
           -------------------------------------------------
          |                Final Singlepoint                |
           -------------------------------------------------

          ...................................................
          :                      SETUP                      :
          :.................................................:
          :  # basis functions                  94          :
          :  # atomic orbitals                  94          :
          :  # shells                           54          :
          :  # electrons                        98          :
          :  max. iterations                   250          :
          :  Hamiltonian                  GFN2-xTB          :
          :  restarted?                      false          :
          :  GBSA solvation                  false          :
          :  PC potential                    false          :
          :  electronic temp.          300.0000000     K    :
          :  accuracy                    1.0000000          :
          :  -> integral cutoff          0.2500000E+02      :
          :  -> integral neglect         0.1000000E-07      :
          :  -> SCF convergence          0.1000000E-05 Eh   :
          :  -> wf. convergence          0.1000000E-03 e    :
          :  Broyden damping             0.4000000          :
          ...................................................

 iter      E             dE          RMSdq      gap      omega  full diag
   1    -54.3555974 -0.543556E+02  0.802E-05    2.17       0.0  T
   2    -54.3555974 -0.210818E-10  0.527E-05    2.17     325.2  T
   3    -54.3555974 -0.172236E-10  0.357E-05    2.17     480.9  T

   *** convergence criteria satisfied after 3 iterations ***

         #    Occupation            Energy/Eh            Energy/eV
      -------------------------------------------------------------
         1        2.0000           -0.6883371             -18.7306
       ...           ...                  ...                  ...
        43        2.0000           -0.4184562             -11.3868
        44        2.0000           -0.4130731             -11.2403
        45        2.0000           -0.4080810             -11.1044
        46        2.0000           -0.4034835             -10.9793
        47        2.0000           -0.3877655             -10.5516
        48        2.0000           -0.3796952             -10.3320
        49        2.0000           -0.3518311              -9.5738 (HOMO)
        50                         -0.2719622              -7.4005 (LUMO)
        51                         -0.2349229              -6.3926
        52                         -0.2328953              -6.3374
        53                         -0.2212298              -6.0200
        54                         -0.2072820              -5.6404
       ...                                ...                  ...
        94                          0.7267635              19.7762
      -------------------------------------------------------------
                  HL-Gap            0.0798689 Eh            2.1733 eV
             Fermi-level           -0.3118967 Eh           -8.4871 eV

 SCC (total)                   0 d,  0 h,  0 min,  0.594 sec
 SCC setup                      ...        0 min,  0.021 sec (  3.493%)
 Dispersion                     ...        0 min,  0.015 sec (  2.560%)
 classical contributions        ...        0 min,  0.028 sec (  4.751%)
 integral evaluation            ...        0 min,  0.030 sec (  5.121%)
 iterations                     ...        0 min,  0.336 sec ( 56.525%)
 molecular gradient             ...        0 min,  0.149 sec ( 25.041%)
 printout                       ...        0 min,  0.015 sec (  2.487%)

         :::::::::::::::::::::::::::::::::::::::::::::::::::::
         ::                     SUMMARY                     ::
         :::::::::::::::::::::::::::::::::::::::::::::::::::::
         :: total energy             -53.434333101922 Eh    ::
         :: gradient norm              0.000444859907 Eh/a0 ::
         :: HOMO-LUMO gap              2.173344296085 eV    ::
         ::.................................................::
         :: SCC energy               -54.355597376029 Eh    ::
         :: -> isotropic ES            0.045917266548 Eh    ::
         :: -> anisotropic ES          0.001726595485 Eh    ::
         :: -> anisotropic XC          0.027501806438 Eh    ::
         :: -> dispersion             -0.038422243569 Eh    ::
         :: repulsion energy           0.920942445018 Eh    ::
         :: add. restraining           0.000085515833 Eh    ::
         :: total charge               0.000000000000 e     ::
         :::::::::::::::::::::::::::::::::::::::::::::::::::::

           -------------------------------------------------
          |                Property Printout                |
           -------------------------------------------------

    * Orbital Energies and Occupations

         #    Occupation            Energy/Eh            Energy/eV
      -------------------------------------------------------------
         1        2.0000           -0.6883371             -18.7306
       ...           ...                  ...                  ...
        37        2.0000           -0.4597372             -12.5101
        38        2.0000           -0.4554490             -12.3934
        39        2.0000           -0.4376652             -11.9095
        40        2.0000           -0.4345748             -11.8254
        41        2.0000           -0.4323955             -11.7661
        42        2.0000           -0.4239541             -11.5364
        43        2.0000           -0.4184562             -11.3868
        44        2.0000           -0.4130731             -11.2403
        45        2.0000           -0.4080810             -11.1044
        46        2.0000           -0.4034835             -10.9793
        47        2.0000           -0.3877655             -10.5516
        48        2.0000           -0.3796952             -10.3320
        49        2.0000           -0.3518311              -9.5738 (HOMO)
        50                         -0.2719622              -7.4005 (LUMO)
        51                         -0.2349229              -6.3926
        52                         -0.2328953              -6.3374
        53                         -0.2212298              -6.0200
        54                         -0.2072820              -5.6404
        55                         -0.1726481              -4.6980
        56                         -0.1208042              -3.2872
        57                         -0.1051781              -2.8620
        58                         -0.0859764              -2.3395
        59                          0.0246264               0.6701
        60                          0.0390745               1.0633
       ...                                ...                  ...
        94                          0.7267635              19.7762
      -------------------------------------------------------------
                  HL-Gap            0.0798689 Eh            2.1733 eV
             Fermi-level           -0.3118967 Eh           -8.4871 eV

     #   Z          covCN         q      C6AA      α(0)
     1   1 H        0.859     0.230     0.967     1.540
     2   7 N        2.702    -0.148    24.212     7.308
     3   6 C        2.887     0.083    26.156     8.385
     4   6 C        2.979     0.013    27.726     8.637
     5   6 C        2.902     0.072    26.392     8.423
     6   6 C        3.094    -0.070    29.630     8.921
     7   6 C        2.982    -0.069    29.715     8.942
     8   7 N        2.774    -0.145    24.132     7.296
     9   6 C        2.872     0.257    22.696     7.810
    10   6 C        2.990     0.004    27.930     8.669
    11   6 C        2.923    -0.029    28.733     8.790
    12   6 C        2.928    -0.027    28.683     8.783
    13   6 C        2.919    -0.029    28.721     8.788
    14   6 C        2.919    -0.027    28.669     8.780
    15   6 C        2.920    -0.028    28.711     8.787
    16   6 C        2.921    -0.054    29.345     8.883
    17   6 C        2.929    -0.052    29.283     8.874
    18   6 C        2.921    -0.030    28.738     8.791
    19   6 C        2.919    -0.027    28.678     8.782
    20   6 C        2.919    -0.038    28.947     8.823
    21   1 H        0.860     0.171     1.266     1.763
    22   8 O        0.857    -0.482    23.389     6.484
    23   1 H        0.926     0.036     2.497     2.471
    24   1 H        0.926     0.037     2.486     2.466
    25   1 H        0.926     0.035     2.514     2.479
    26   1 H        0.926     0.037     2.492     2.469
    27   1 H        0.926     0.035     2.517     2.481
    28   1 H        0.926     0.040     2.451     2.448
    29   1 H        0.926     0.043     2.411     2.428
    30   1 H        0.926     0.031     2.572     2.508
    31   1 H        0.926     0.034     2.523     2.484
    32   1 H        0.926     0.031     2.565     2.505
    33   1 H        0.926     0.037     2.494     2.469
    34   1 H        0.926     0.031     2.575     2.509

 Mol. C6AA /au·bohr⁶  :      15831.289494
 Mol. C8AA /au·bohr⁸  :     391467.567910
 Mol. α(0) /au        :        201.978460


Wiberg/Mayer (AO) data.
largest (>0.10) Wiberg bond orders for each atom

 ---------------------------------------------------------------------------
     #   Z sym  total        # sym  WBO       # sym  WBO       # sym  WBO
 ---------------------------------------------------------------------------
     1   1 H    0.946 --     2 N    0.864
     2   7 N    3.492 --     3 C    1.229     5 C    1.086     1 H    0.864
     3   6 C    3.968 --     6 C    1.479     2 N    1.229     4 C    1.002
     4   6 C    3.987 --    11 C    1.403    12 C    1.397     3 C    1.002
                            15 C    0.111
     5   6 C    3.961 --    16 C    1.368    17 C    1.349     2 N    1.086
     6   6 C    3.964 --     3 C    1.479     7 C    1.155     9 C    1.067
     7   6 C    3.978 --    10 C    1.698     6 C    1.155    32 H    0.972
     8   7 N    3.514 --     9 C    1.183    10 C    1.125    21 H    0.942
                            22 O    0.143
     9   6 C    3.947 --    22 O    1.568     8 N    1.183     6 C    1.067
    10   6 C    3.937 --     7 C    1.698     8 N    1.125    33 H    0.970
    11   6 C    3.989 --    13 C    1.442     4 C    1.403    23 H    0.966
                            14 C    0.110
    12   6 C    3.990 --    14 C    1.445     4 C    1.397    24 H    0.970
                            13 C    0.111
    13   6 C    3.991 --    11 C    1.442    15 C    1.439    25 H    0.970
                            12 C    0.111
    14   6 C    3.991 --    12 C    1.445    15 C    1.437    26 H    0.970
                            11 C    0.110
    15   6 C    3.991 --    13 C    1.439    14 C    1.437    27 H    0.971
                             4 C    0.111
    16   6 C    3.985 --    18 C    1.447     5 C    1.368    28 H    0.959
                            19 C    0.103
    17   6 C    3.984 --    19 C    1.470     5 C    1.349    29 H    0.966
                            18 C    0.106
    18   6 C    3.992 --    16 C    1.447    20 C    1.438    30 H    0.971
                            17 C    0.106
    19   6 C    3.992 --    17 C    1.470    20 C    1.420    31 H    0.971
                            16 C    0.103
    20   6 C    3.973 --    18 C    1.438    19 C    1.420    34 H    0.972
    21   1 H    0.970 --     8 N    0.942
    22   8 O    1.979 --     9 C    1.568     8 N    0.143
    23   1 H    0.999 --    11 C    0.966
    24   1 H    0.999 --    12 C    0.970
    25   1 H    0.998 --    13 C    0.970
    26   1 H    0.998 --    14 C    0.970
    27   1 H    0.998 --    15 C    0.971
    28   1 H    0.998 --    16 C    0.959
    29   1 H    0.998 --    17 C    0.966
    30   1 H    0.998 --    18 C    0.971
    31   1 H    0.998 --    19 C    0.971
    32   1 H    0.999 --     7 C    0.972
    33   1 H    0.998 --    10 C    0.970
    34   1 H    0.999 --    20 C    0.972
 ---------------------------------------------------------------------------

Topologies differ in total number of bonds
Writing topology from bond orders to xtbtopo.mol

molecular dipole:
                 x           y           z       tot (Debye)
 q only:       -0.706      -0.769       0.151
   full:       -0.942      -0.479       0.296       2.790
molecular quadrupole (traceless):
                xx          xy          yy          xz          yz          zz
 q only:        3.449      -5.726      -1.891       0.559       1.687      -1.558
  q+dip:        1.617      -5.661       3.638       1.820      -0.753      -5.255
   full:        1.252      -7.325       1.786       1.240       1.379      -3.038

           -------------------------------------------------
          |                Geometry Summary                 |
           -------------------------------------------------

      molecular mass/u    :      262.3064921
   center of mass at/Å    :       -0.0159560       0.0447600      -0.0207518
  moments of inertia/u·Å² :        0.1249055E+04   0.1683846E+04   0.2696678E+04
rotational constants/cm⁻¹ :        0.1349631E-01   0.1001138E-01   0.6251260E-02

 * 34 selected distances

     #   Z          #   Z                                           value/Å
     1   1 H        2   7 N                                       1.0328045
     2   7 N        3   6 C                                       1.3637683
     2   7 N        5   6 C                                       1.3944897
     3   6 C        6   6 C                                       1.3727038
     6   6 C        7   6 C                                       1.4401802 (max)
     8   7 N        9   6 C                                       1.3657007
     7   6 C       10   6 C                                       1.3464776
     8   7 N       10   6 C                                       1.3858838
     4   6 C       11   6 C                                       1.3914621
     4   6 C       12   6 C                                       1.3911949
    11   6 C       13   6 C                                       1.3838735
    12   6 C       14   6 C                                       1.3830146
    13   6 C       15   6 C                                       1.3842272
    14   6 C       15   6 C                                       1.3845609
     5   6 C       16   6 C                                       1.3926952
     5   6 C       17   6 C                                       1.3977946
    16   6 C       18   6 C                                       1.3835464
    17   6 C       19   6 C                                       1.3791709
    18   6 C       20   6 C                                       1.3832406
    19   6 C       20   6 C                                       1.3863455
     8   7 N       21   1 H                                       1.0061750 (min)
     9   6 C       22   8 O                                       1.2308911
    11   6 C       23   1 H                                       1.0809797
    12   6 C       24   1 H                                       1.0799933
    13   6 C       25   1 H                                       1.0802202
    14   6 C       26   1 H                                       1.0799735
    15   6 C       27   1 H                                       1.0798325
    16   6 C       28   1 H                                       1.0758171
    17   6 C       29   1 H                                       1.0803453
    18   6 C       30   1 H                                       1.0803217
    19   6 C       31   1 H                                       1.0799666
     7   6 C       32   1 H                                       1.0717174
    10   6 C       33   1 H                                       1.0728937
    20   6 C       34   1 H                                       1.0793710

 * 5 distinct bonds (by element types)

   Z      Z             #   av. dist./Å        max./Å        min./Å
   1 H    6 C          12     1.0784527     1.0809797     1.0717174
   6 C    6 C          15     1.3866992     1.4401802     1.3464776
   1 H    7 N           2     1.0194898     1.0328045     1.0061750
   6 C    7 N           4     1.3774606     1.3944897     1.3637683
   6 C    8 O           1     1.2308911     1.2308911     1.2308911


optimized geometry written to: xtbopt.xyz


           -------------------------------------------------
          | TOTAL ENERGY              -53.434333101922 Eh   |
          | GRADIENT NORM               0.000444859907 Eh/α |
          | HOMO-LUMO GAP               2.173344296085 eV   |
           -------------------------------------------------
########################################################################
[WARNING] Runtime exception occurred
-1- restart_readRestart: Number of electron missmatch in restart file.
########################################################################

------------------------------------------------------------------------
 * finished run on 2023/11/18 at 09:06:17.861     
------------------------------------------------------------------------
 total:
 * wall-time:     0 d,  0 h,  0 min, 18.948 sec
 *  cpu-time:     0 d,  0 h, 16 min,  8.170 sec
 * ratio c/w:    51.097 speedup
 SCF:
 * wall-time:     0 d,  0 h,  0 min,  1.464 sec
 *  cpu-time:     0 d,  0 h,  1 min, 16.631 sec
 * ratio c/w:    52.337 speedup
 ANC optimizer:
 * wall-time:     0 d,  0 h,  0 min, 17.312 sec
 *  cpu-time:     0 d,  0 h, 14 min, 43.029 sec
 * ratio c/w:    51.005 speedup

