      -----------------------------------------------------------      
     |                   =====================                   |     
     |                           x T B                           |     
     |                   =====================                   |     
     |                         S. Grimme                         |     
     |          Mulliken Center for Theoretical Chemistry        |     
     |                    University of Bonn                     |     
      -----------------------------------------------------------      

   * xtb version 6.5.0 (97a52f5) compiled by 'conda@d2599ee0d4f4' on 2022-05-15

   xtb is free software: you can redistribute it and/or modify it under
   the terms of the GNU Lesser General Public License as published by
   the Free Software Foundation, either version 3 of the License, or
   (at your option) any later version.
   
   xtb is distributed in the hope that it will be useful,
   but WITHOUT ANY WARRANTY; without even the implied warranty of
   MERCHANTABILITY or FITNESS FOR A PARTICULAR PURPOSE.  See the
   GNU Lesser General Public License for more details.
   
   Cite this work as:
   * C. Bannwarth, E. Caldeweyher, S. Ehlert, A. Hansen, P. Pracht,
     J. Seibert, S. Spicher, S. Grimme, WIREs Comput. Mol. Sci., 2020, 11,
     e01493. DOI: 10.1002/wcms.1493
   
   for GFN2-xTB:
   * C. Bannwarth, S. Ehlert and S. Grimme., J. Chem. Theory Comput., 2019,
     15, 1652-1671. DOI: 10.1021/acs.jctc.8b01176
   for GFN1-xTB:
   * S. Grimme, C. Bannwarth, P. Shushkov, J. Chem. Theory Comput., 2017,
     13, 1989-2009. DOI: 10.1021/acs.jctc.7b00118
   for GFN0-xTB:
   * P. Pracht, E. Caldeweyher, S. Ehlert, S. Grimme, ChemRxiv, 2019, preprint.
     DOI: 10.26434/chemrxiv.8326202.v1
   for GFN-FF:
   * S. Spicher and S. Grimme, Angew. Chem. Int. Ed., 2020, 59, 15665-15673.
     DOI: 10.1002/anie.202004239
   
   for ALPB and GBSA implicit solvation:
   * S. Ehlert, M. Stahn, S. Spicher, S. Grimme, J. Chem. Theory Comput.,
     2021, 17, 4250-4261. DOI: 10.1021/acs.jctc.1c00471
   
   for DFT-D4:
   * E. Caldeweyher, C. Bannwarth and S. Grimme, J. Chem. Phys., 2017,
     147, 034112. DOI: 10.1063/1.4993215
   * E. Caldeweyher, S. Ehlert, A. Hansen, H. Neugebauer, S. Spicher,
     C. Bannwarth and S. Grimme, J. Chem. Phys., 2019, 150, 154122.
     DOI: 10.1063/1.5090222
   * E. Caldeweyher, J.-M. Mewes, S. Ehlert and S. Grimme, Phys. Chem. Chem. Phys.
     2020, 22, 8499-8512. DOI: 10.1039/D0CP00502A
   
   for sTDA-xTB:
   * S. Grimme and C. Bannwarth, J. Chem. Phys., 2016, 145, 054103.
     DOI: 10.1063/1.4959605
   
   in the mass-spec context:
   * V. Asgeirsson, C. Bauer and S. Grimme, Chem. Sci., 2017, 8, 4879.
     DOI: 10.1039/c7sc00601b
   * J. Koopman and S. Grimme, ACS Omega 2019, 4, 12, 15120-15133.
     DOI: 10.1021/acsomega.9b02011
   
   for metadynamics refer to:
   * S. Grimme, J. Chem. Theory Comput., 2019, 155, 2847-2862
     DOI: 10.1021/acs.jctc.9b00143
   
   for SPH calculations refer to:
   * S. Spicher and S. Grimme, J. Chem. Theory Comput., 2021, 17, 1701-1714
     DOI: 10.1021/acs.jctc.0c01306
   
   with help from (in alphabetical order)
   P. Atkinson, C. Bannwarth, F. Bohle, G. Brandenburg, E. Caldeweyher
   M. Checinski, S. Dohm, S. Ehlert, S. Ehrlich, I. Gerasimov, C. Hölzer
   A. Katbashev, J. Koopman, C. Lavigne, S. Lehtola, F. März, M. Müller,
   F. Musil, H. Neugebauer, J. Pisarek, C. Plett, P. Pracht, F. Pultar,
   J. Seibert, P. Shushkov, S. Spicher, M. Stahn, M. Steiner, T. Strunk,
   J. Stückrath, T. Rose, and J. Unsleber
   
 * started run on 2023/11/18 at 09:08:07.332     

           -------------------------------------------------
          |                Calculation Setup                |
           -------------------------------------------------

          program call               : /home/liuchw/anaconda3/envs/xtbenv/bin/xtb --gfn 2 --chrg 0 --uhf 0 1_7_Index_0-opt-2-3-076_preQMOPTprefit_xyzformat.xyz --opt --input xtb-opt-2-3-076_constr.txt
          hostname                   : node165.bme.utexas.edu
          coordinate file            : 1_7_Index_0-opt-2-3-076_preQMOPTprefit_xyzformat.xyz
          omp threads                :                    64

   ID    Z sym.   atoms
    1    1 H      1, 21, 23-34
    2    7 N      2, 8
    3    6 C      3-7, 9-20
    4    8 O      22
constraining angle 1 2 3 4 to   75.9267902°, actual value:   75.9267902°
constraining angle 5 2 3 4 to  213.1650473°, actual value: -146.8349527°
constraining angle 1 2 5 17 to  331.9660565°, actual value:  -28.0339435°
constraining angle 3 2 5 17 to  195.0767810°, actual value: -164.9232190°
constraining angle 2 3 4 12 to  262.1076153°, actual value:  -97.8923847°
constraining angle 2 3 6 7 to  183.1359858°, actual value: -176.8640142°

           -------------------------------------------------
          |                 G F N 2 - x T B                 |
           -------------------------------------------------

        Reference                      10.1021/acs.jctc.8b01176
      * Hamiltonian:
        H0-scaling (s, p, d)           1.850000    2.230000    2.230000
        zeta-weighting                 0.500000
      * Dispersion:
        s8                             2.700000
        a1                             0.520000
        a2                             5.000000
        s9                             5.000000
      * Repulsion:
        kExp                           1.500000    1.000000
        rExp                           1.000000
      * Coulomb:
        alpha                          2.000000
        third order                    shell-resolved
        anisotropic                    true
        a3                             3.000000
        a5                             4.000000
        cn-shift                       1.200000
        cn-exp                         4.000000
        max-rad                        5.000000

q/qsh data taken from xtbrestart
CAMM data taken from xtbrestart

          ...................................................
          :                      SETUP                      :
          :.................................................:
          :  # basis functions                  94          :
          :  # atomic orbitals                  94          :
          :  # shells                           54          :
          :  # electrons                        98          :
          :  max. iterations                   250          :
          :  Hamiltonian                  GFN2-xTB          :
          :  restarted?                       true          :
          :  GBSA solvation                  false          :
          :  PC potential                    false          :
          :  electronic temp.          300.0000000     K    :
          :  accuracy                    1.0000000          :
          :  -> integral cutoff          0.2500000E+02      :
          :  -> integral neglect         0.1000000E-07      :
          :  -> SCF convergence          0.1000000E-05 Eh   :
          :  -> wf. convergence          0.1000000E-03 e    :
          :  Broyden damping             0.4000000          :
          ...................................................

 iter      E             dE          RMSdq      gap      omega  full diag
   1    -54.2067400 -0.542067E+02  0.434E+00    1.81       0.0  T
   2    -54.2096866 -0.294654E-02  0.257E+00    1.81       1.0  T
   3    -54.1069563  0.102730E+00  0.166E+00    1.67       1.0  T
   4    -54.2162309 -0.109275E+00  0.217E-01    1.76       1.0  T
   5    -54.2170926 -0.861725E-03  0.988E-02    1.75       1.0  T
   6    -54.2172174 -0.124757E-03  0.426E-02    1.75       1.0  T
   7    -54.2172244 -0.703721E-05  0.157E-02    1.75       1.1  T
   8    -54.2172282 -0.377982E-05  0.563E-03    1.75       3.0  T
   9    -54.2172284 -0.163762E-06  0.238E-03    1.75       7.2  T
  10    -54.2172284 -0.611837E-07  0.124E-03    1.75      13.9  T
  11    -54.2172284 -0.211652E-07  0.393E-04    1.75      43.7  T
  12    -54.2172284 -0.115388E-08  0.164E-04    1.75     104.9  T

   *** convergence criteria satisfied after 12 iterations ***

         #    Occupation            Energy/Eh            Energy/eV
      -------------------------------------------------------------
         1        2.0000           -0.6908010             -18.7977
       ...           ...                  ...                  ...
        43        2.0000           -0.4124188             -11.2225
        44        2.0000           -0.4112736             -11.1913
        45        2.0000           -0.4066370             -11.0652
        46        2.0000           -0.3914352             -10.6515
        47        2.0000           -0.3887537             -10.5785
        48        2.0000           -0.3717589             -10.1161
        49        2.0000           -0.3535923              -9.6217 (HOMO)
        50                         -0.2892613              -7.8712 (LUMO)
        51                         -0.2397470              -6.5238
        52                         -0.2364622              -6.4345
        53                         -0.2140117              -5.8236
        54                         -0.2061042              -5.6084
       ...                                ...                  ...
        94                          0.6695378              18.2191
      -------------------------------------------------------------
                  HL-Gap            0.0643310 Eh            1.7505 eV
             Fermi-level           -0.3214268 Eh           -8.7465 eV

 SCC (total)                   0 d,  0 h,  0 min,  1.353 sec
 SCC setup                      ...        0 min,  0.005 sec (  0.380%)
 Dispersion                     ...        0 min,  0.015 sec (  1.117%)
 classical contributions        ...        0 min,  0.015 sec (  1.132%)
 integral evaluation            ...        0 min,  0.030 sec (  2.207%)
 iterations                     ...        0 min,  1.124 sec ( 83.091%)
 molecular gradient             ...        0 min,  0.146 sec ( 10.784%)
 printout                       ...        0 min,  0.017 sec (  1.276%)

         :::::::::::::::::::::::::::::::::::::::::::::::::::::
         ::                     SUMMARY                     ::
         :::::::::::::::::::::::::::::::::::::::::::::::::::::
         :: total energy             -53.401307852831 Eh    ::
         :: gradient norm              0.081992471891 Eh/a0 ::
         :: HOMO-LUMO gap              1.750535648447 eV    ::
         ::.................................................::
         :: SCC energy               -54.217228445964 Eh    ::
         :: -> isotropic ES            0.043819032016 Eh    ::
         :: -> anisotropic ES          0.006241955337 Eh    ::
         :: -> anisotropic XC          0.031849607057 Eh    ::
         :: -> dispersion             -0.037957143637 Eh    ::
         :: repulsion energy           0.815614031313 Eh    ::
         :: add. restraining           0.000000000000 Eh    ::
         :: total charge              -0.000000000000 e     ::
         :::::::::::::::::::::::::::::::::::::::::::::::::::::

      ----------------------------------------------------------- 
     |                   =====================                   |
     |                        A N C O P T                        |
     |                   =====================                   |
     |               Approximate Normal Coordinate               |
     |                Rational Function Optimizer                |
      ----------------------------------------------------------- 

          ...................................................
          :                      SETUP                      :
          :.................................................:
          :   optimization level            normal          :
          :   max. optcycles                   200          :
          :   ANC micro-cycles                  20          :
          :   degrees of freedom                96          :
          :.................................................:
          :   RF solver                   davidson          :
          :   write xtbopt.log                true          :
          :   linear?                        false          :
          :   energy convergence         0.5000000E-05 Eh   :
          :   grad. convergence          0.1000000E-02 Eh/α :
          :   maximium RF displ.         1.0000000          :
          :   Hlow (freq-cutoff)         0.1000000E-01      :
          :   Hmax (freq-cutoff)         5.0000000          :
          :   S6 in model hess.         20.0000000          :
          ...................................................

generating ANC from model Hessian ...
Using Lindh-Hessian (1995)
 Shifting diagonal of input Hessian by    9.0056150754862629E-003
 Lowest  eigenvalues of input Hessian
    0.000000    0.000000    0.000000    0.000000    0.000000    0.000000
    0.010000    0.010157    0.010457    0.010870    0.012272    0.013142
    0.015103    0.016476    0.018127    0.021873    0.022995    0.023164
 Highest eigenvalues
    2.293276    3.143844    3.619125    4.519107    9.780302   14.874233


........................................................................
.............................. CYCLE    1 ..............................
........................................................................
   1    -54.2172284 -0.542172E+02  0.699E-05    1.75       0.0  T
   2    -54.2172284 -0.186802E-10  0.429E-05    1.75     400.0  T
   3    -54.2172284 -0.132445E-10  0.282E-05    1.75     608.5  T
     SCC iter.                  ...        0 min,  0.380 sec
     gradient                   ...        0 min,  0.151 sec
 * total energy  :   -53.4013079 Eh     change       -0.3476899E-09 Eh
   gradient norm :     0.0819928 Eh/α   predicted     0.0000000E+00 (-100.00%)
   displ. norm   :     0.3978913 α      lambda       -0.2074298E-01
   maximum displ.:     0.1295071 α      in ANC's #13, #50, #15, ...

........................................................................
.............................. CYCLE    2 ..............................
........................................................................
   1    -54.3022695 -0.543023E+02  0.244E-01    1.91       0.0  T
   2    -54.3023771 -0.107634E-03  0.149E-01    1.92       1.0  T
   3    -54.3022011  0.176023E-03  0.992E-02    1.93       1.0  T
   4    -54.3024131 -0.211998E-03  0.339E-02    1.92       1.0  T
   5    -54.3024549 -0.418120E-04  0.839E-03    1.92       2.0  T
   6    -54.3024566 -0.171652E-05  0.323E-03    1.92       5.3  T
   7    -54.3024567 -0.711937E-07  0.153E-03    1.92      11.2  T
   8    -54.3024567 -0.198454E-07  0.594E-04    1.92      28.9  T
   9    -54.3024567 -0.357873E-08  0.244E-04    1.92      70.3  T
     SCC iter.                  ...        0 min,  0.990 sec
     gradient                   ...        0 min,  0.146 sec
 * total energy  :   -53.4149673 Eh     change       -0.1365940E-01 Eh
   gradient norm :     0.0410582 Eh/α   predicted    -0.1202663E-01 ( -11.95%)
   displ. norm   :     0.3972919 α      lambda       -0.5789903E-02
   maximum displ.:     0.1653339 α      in ANC's #13, #8, #10, ...

........................................................................
.............................. CYCLE    3 ..............................
........................................................................
   1    -54.3431602 -0.543432E+02  0.155E-01    1.98       0.0  T
   2    -54.3431981 -0.378890E-04  0.118E-01    1.99       1.0  T
   3    -54.3433015 -0.103430E-03  0.718E-02    2.00       1.0  T
   4    -54.3433612 -0.597082E-04  0.257E-02    2.00       1.0  T
   5    -54.3433794 -0.181616E-04  0.622E-03    2.00       2.8  T
   6    -54.3433805 -0.111243E-05  0.190E-03    2.00       9.0  T
   7    -54.3433805 -0.161582E-07  0.102E-03    2.00      16.8  T
   8    -54.3433805 -0.102464E-07  0.384E-04    2.00      44.6  T
   9    -54.3433805 -0.165937E-08  0.141E-04    2.00     121.3  T
     SCC iter.                  ...        0 min,  1.076 sec
     gradient                   ...        0 min,  0.152 sec
 * total energy  :   -53.4184311 Eh     change       -0.3463890E-02 Eh
   gradient norm :     0.0499805 Eh/α   predicted    -0.3351898E-02 (  -3.23%)
   displ. norm   :     0.3822181 α      lambda       -0.2468308E-02
   maximum displ.:     0.1655525 α      in ANC's #8, #4, #1, ...

........................................................................
.............................. CYCLE    4 ..............................
........................................................................
   1    -54.3505277 -0.543505E+02  0.146E-01    2.03       0.0  T
   2    -54.3505424 -0.146603E-04  0.109E-01    2.04       1.0  T
   3    -54.3505905 -0.481101E-04  0.681E-02    2.06       1.0  T
   4    -54.3506702 -0.796914E-04  0.171E-02    2.05       1.0  T
   5    -54.3506775 -0.729716E-05  0.483E-03    2.05       3.6  T
   6    -54.3506783 -0.797712E-06  0.145E-03    2.05      11.9  T
   7    -54.3506783 -0.104856E-07  0.803E-04    2.05      21.4  T
   8    -54.3506783 -0.381530E-08  0.317E-04    2.05      54.1  T
     SCC iter.                  ...        0 min,  0.986 sec
     gradient                   ...        0 min,  0.149 sec
 * total energy  :   -53.4195187 Eh     change       -0.1087546E-02 Eh
   gradient norm :     0.0905125 Eh/α   predicted    -0.1414663E-02 (  30.08%)
   displ. norm   :     0.2874931 α      lambda       -0.1557265E-02
   maximum displ.:     0.1335414 α      in ANC's #4, #2, #1, ...

........................................................................
.............................. CYCLE    5 ..............................
........................................................................
   1    -54.3457517 -0.543458E+02  0.104E-01    2.05       0.0  T
   2    -54.3457581 -0.648559E-05  0.685E-02    2.05       1.0  T
   3    -54.3457014  0.567660E-04  0.503E-02    2.06       1.0  T
   4    -54.3457796 -0.782488E-04  0.869E-03    2.06       2.0  T
   5    -54.3457818 -0.218776E-05  0.207E-03    2.06       8.3  T
   6    -54.3457819 -0.121994E-06  0.972E-04    2.06      17.6  T
   7    -54.3457819 -0.656449E-08  0.505E-04    2.06      33.9  T
     SCC iter.                  ...        0 min,  0.850 sec
     gradient                   ...        0 min,  0.155 sec
 * total energy  :   -53.4202012 Eh     change       -0.6824912E-03 Eh
   gradient norm :     0.0574654 Eh/α   predicted    -0.8430436E-03 (  23.52%)
   displ. norm   :     0.1937763 α      lambda       -0.7942369E-03
   maximum displ.:     0.1083042 α      in ANC's #4, #2, #1, ...

........................................................................
.............................. CYCLE    6 ..............................
........................................................................
   1    -54.3422643 -0.543423E+02  0.612E-02    2.06       0.0  T
   2    -54.3422669 -0.264447E-05  0.375E-02    2.06       1.0  T
   3    -54.3422507  0.161920E-04  0.231E-02    2.06       1.0  T
   4    -54.3422690 -0.182525E-04  0.569E-03    2.06       3.0  T
   5    -54.3422700 -0.102213E-05  0.101E-03    2.06      17.0  T
   6    -54.3422700 -0.155982E-07  0.520E-04    2.06      33.0  T
   7    -54.3422700 -0.133984E-08  0.196E-04    2.06      87.7  T
     SCC iter.                  ...        0 min,  0.943 sec
     gradient                   ...        0 min,  0.163 sec
 * total energy  :   -53.4205408 Eh     change       -0.3396330E-03 Eh
   gradient norm :     0.0473436 Eh/α   predicted    -0.4120345E-03 (  21.32%)
   displ. norm   :     0.1902220 α      lambda       -0.4976983E-03
   maximum displ.:     0.0969589 α      in ANC's #4, #2, #1, ...

........................................................................
.............................. CYCLE    7 ..............................
........................................................................
   1    -54.3424602 -0.543425E+02  0.618E-02    2.07       0.0  T
   2    -54.3424638 -0.358506E-05  0.391E-02    2.07       1.0  T
   3    -54.3424435  0.202737E-04  0.265E-02    2.07       1.0  T
   4    -54.3424675 -0.239992E-04  0.659E-03    2.07       2.6  T
   5    -54.3424689 -0.134022E-05  0.107E-03    2.07      16.0  T
   6    -54.3424689 -0.178621E-07  0.528E-04    2.07      32.5  T
   7    -54.3424689 -0.113708E-08  0.203E-04    2.07      84.5  T
     SCC iter.                  ...        0 min,  1.038 sec
     gradient                   ...        0 min,  0.154 sec
 * total energy  :   -53.4208966 Eh     change       -0.3557682E-03 Eh
   gradient norm :     0.0144492 Eh/α   predicted    -0.2578577E-03 ( -27.52%)
   displ. norm   :     0.3182915 α      lambda       -0.4650194E-03
   maximum displ.:     0.1691686 α      in ANC's #4, #2, #3, ...

........................................................................
.............................. CYCLE    8 ..............................
........................................................................
   1    -54.3426727 -0.543427E+02  0.101E-01    2.09       0.0  T
   2    -54.3426784 -0.569159E-05  0.604E-02    2.09       1.0  T
   3    -54.3426321  0.463070E-04  0.402E-02    2.09       1.0  T
   4    -54.3426845 -0.524262E-04  0.830E-03    2.09       2.1  T
   5    -54.3426868 -0.228743E-05  0.160E-03    2.09      10.7  T
   6    -54.3426868 -0.473629E-07  0.769E-04    2.09      22.3  T
   7    -54.3426868 -0.129245E-08  0.282E-04    2.09      60.9  T
     SCC iter.                  ...        0 min,  0.825 sec
     gradient                   ...        0 min,  0.156 sec
 * total energy  :   -53.4212478 Eh     change       -0.3512209E-03 Eh
   gradient norm :     0.0159728 Eh/α   predicted    -0.2560713E-03 ( -27.09%)
   displ. norm   :     0.3759538 α      lambda       -0.3789229E-03
   maximum displ.:     0.1990078 α      in ANC's #4, #2, #3, ...

........................................................................
.............................. CYCLE    9 ..............................
........................................................................
   1    -54.3431831 -0.543432E+02  0.118E-01    2.10       0.0  T
   2    -54.3431879 -0.479183E-05  0.698E-02    2.11       1.0  T
   3    -54.3431450  0.428399E-04  0.369E-02    2.10       1.0  T
   4    -54.3431918 -0.467300E-04  0.750E-03    2.11       2.3  T
   5    -54.3431937 -0.194250E-05  0.147E-03    2.11      11.7  T
   6    -54.3431937 -0.294876E-07  0.766E-04    2.11      22.4  T
   7    -54.3431937 -0.184335E-08  0.240E-04    2.11      71.5  T
     SCC iter.                  ...        0 min,  0.827 sec
     gradient                   ...        0 min,  0.152 sec
 * total energy  :   -53.4215330 Eh     change       -0.2851884E-03 Eh
   gradient norm :     0.0154144 Eh/α   predicted    -0.2162409E-03 ( -24.18%)
   displ. norm   :     0.3422436 α      lambda       -0.2683387E-03
   maximum displ.:     0.1803880 α      in ANC's #4, #3, #2, ...

........................................................................
.............................. CYCLE   10 ..............................
........................................................................
   1    -54.3442812 -0.543443E+02  0.111E-01    2.11       0.0  T
   2    -54.3442855 -0.430953E-05  0.650E-02    2.12       1.0  T
   3    -54.3442715  0.139879E-04  0.216E-02    2.11       1.0  T
   4    -54.3442870 -0.154796E-04  0.507E-03    2.12       3.4  T
   5    -54.3442878 -0.847633E-06  0.134E-03    2.12      12.8  T
   6    -54.3442879 -0.327666E-07  0.680E-04    2.12      25.2  T
   7    -54.3442879 -0.253819E-08  0.208E-04    2.12      82.4  T
     SCC iter.                  ...        0 min,  0.788 sec
     gradient                   ...        0 min,  0.148 sec
 * total energy  :   -53.4217237 Eh     change       -0.1907472E-03 Eh
   gradient norm :     0.0083219 Eh/α   predicted    -0.1498890E-03 ( -21.42%)
   displ. norm   :     0.2312577 α      lambda       -0.1420501E-03
   maximum displ.:     0.1419410 α      in ANC's #3, #4, #2, ...

........................................................................
.............................. CYCLE   11 ..............................
........................................................................
   1    -54.3457108 -0.543457E+02  0.785E-02    2.12       0.0  T
   2    -54.3457126 -0.174632E-05  0.460E-02    2.12       1.0  T
   3    -54.3457056  0.699389E-05  0.145E-02    2.12       1.2  T
   4    -54.3457133 -0.768640E-05  0.308E-03    2.12       5.6  T
   5    -54.3457136 -0.312676E-06  0.107E-03    2.12      16.0  T
   6    -54.3457136 -0.266057E-07  0.437E-04    2.12      39.2  T
   7    -54.3457136 -0.422716E-09  0.179E-04    2.12      95.9  T
     SCC iter.                  ...        0 min,  0.836 sec
     gradient                   ...        0 min,  0.149 sec
 * total energy  :   -53.4218245 Eh     change       -0.1007193E-03 Eh
   gradient norm :     0.0041395 Eh/α   predicted    -0.7482469E-04 ( -25.71%)
   displ. norm   :     0.1573290 α      lambda       -0.7710823E-04
   maximum displ.:     0.1122510 α      in ANC's #3, #4, #2, ...

........................................................................
.............................. CYCLE   12 ..............................
........................................................................
   1    -54.3464051 -0.543464E+02  0.556E-02    2.12       0.0  T
   2    -54.3464058 -0.780664E-06  0.326E-02    2.12       1.0  T
   3    -54.3464030  0.283257E-05  0.101E-02    2.12       1.7  T
   4    -54.3464063 -0.327353E-05  0.128E-03    2.12      13.4  T
   5    -54.3464063 -0.311586E-07  0.602E-04    2.12      28.5  T
   6    -54.3464063 -0.624656E-08  0.343E-04    2.12      50.0  T
     SCC iter.                  ...        0 min,  0.619 sec
     gradient                   ...        0 min,  0.166 sec
 * total energy  :   -53.4218787 Eh     change       -0.5419372E-04 Eh
   gradient norm :     0.0035977 Eh/α   predicted    -0.3950972E-04 ( -27.10%)
   displ. norm   :     0.1236727 α      lambda       -0.4694895E-04
   maximum displ.:     0.0964101 α      in ANC's #3, #4, #2, ...

........................................................................
.............................. CYCLE   13 ..............................
........................................................................
   1    -54.3459571 -0.543460E+02  0.416E-02    2.12       0.0  T
   2    -54.3459583 -0.119874E-05  0.246E-02    2.12       1.0  T
   3    -54.3459548  0.349001E-05  0.110E-02    2.13       1.6  T
   4    -54.3459585 -0.366818E-05  0.324E-03    2.12       5.3  T
   5    -54.3459588 -0.370690E-06  0.670E-04    2.12      25.6  T
   6    -54.3459588 -0.108216E-07  0.288E-04    2.12      59.6  T
     SCC iter.                  ...        0 min,  0.832 sec
     gradient                   ...        0 min,  0.148 sec
 * total energy  :   -53.4219090 Eh     change       -0.3035452E-04 Eh
   gradient norm :     0.0038991 Eh/α   predicted    -0.2383695E-04 ( -21.47%)
   displ. norm   :     0.0745083 α      lambda       -0.3011471E-04
   maximum displ.:     0.0581881 α      in ANC's #3, #1, #9, ...

........................................................................
.............................. CYCLE   14 ..............................
........................................................................
   1    -54.3465055 -0.543465E+02  0.226E-02    2.13       0.0  T
   2    -54.3465057 -0.166682E-06  0.142E-02    2.13       1.2  T
   3    -54.3465028  0.288535E-05  0.108E-02    2.12       1.6  T
   4    -54.3465064 -0.354329E-05  0.158E-03    2.13      10.9  T
   5    -54.3465065 -0.774506E-07  0.345E-04    2.13      49.7  T
   6    -54.3465065 -0.184305E-08  0.200E-04    2.13      85.8  T
     SCC iter.                  ...        0 min,  0.817 sec
     gradient                   ...        0 min,  0.150 sec
 * total energy  :   -53.4219283 Eh     change       -0.1925495E-04 Eh
   gradient norm :     0.0020625 Eh/α   predicted    -0.1514177E-04 ( -21.36%)
   displ. norm   :     0.0635978 α      lambda       -0.1778598E-04
   maximum displ.:     0.0529893 α      in ANC's #3, #1, #4, ...

........................................................................
.............................. CYCLE   15 ..............................
........................................................................
   1    -54.3459016 -0.543459E+02  0.194E-02    2.13       0.0  T
   2    -54.3459017 -0.146339E-06  0.115E-02    2.13       1.5  T
   3    -54.3459004  0.137283E-05  0.684E-03    2.13       2.5  T
   4    -54.3459019 -0.153190E-05  0.128E-03    2.13      13.4  T
   5    -54.3459020 -0.577572E-07  0.297E-04    2.13      57.7  T
   6    -54.3459020 -0.122583E-08  0.143E-04    2.13     120.0  T
     SCC iter.                  ...        0 min,  0.671 sec
     gradient                   ...        0 min,  0.150 sec
 * total energy  :   -53.4219415 Eh     change       -0.1327059E-04 Eh
   gradient norm :     0.0017299 Eh/α   predicted    -0.8930754E-05 ( -32.70%)
   displ. norm   :     0.0787407 α      lambda       -0.1357325E-04
   maximum displ.:     0.0522093 α      in ANC's #3, #1, #2, ...

........................................................................
.............................. CYCLE   16 ..............................
........................................................................
   1    -54.3463462 -0.543463E+02  0.234E-02    2.13       0.0  T
   2    -54.3463464 -0.220943E-06  0.138E-02    2.13       1.2  T
   3    -54.3463454  0.997003E-06  0.578E-03    2.13       3.0  T
   4    -54.3463465 -0.110961E-05  0.118E-03    2.13      14.5  T
   5    -54.3463466 -0.480489E-07  0.443E-04    2.13      38.7  T
   6    -54.3463466 -0.386085E-08  0.178E-04    2.13      96.6  T
     SCC iter.                  ...        0 min,  0.673 sec
     gradient                   ...        0 min,  0.142 sec
 * total energy  :   -53.4219534 Eh     change       -0.1183450E-04 Eh
   gradient norm :     0.0018594 Eh/α   predicted    -0.6809209E-05 ( -42.46%)
   displ. norm   :     0.0442023 α      lambda       -0.7740933E-05
   maximum displ.:     0.0356560 α      in ANC's #3, #5, #1, ...

........................................................................
.............................. CYCLE   17 ..............................
........................................................................
   1    -54.3457439 -0.543457E+02  0.150E-02    2.13       0.0  T
   2    -54.3457441 -0.289166E-06  0.874E-03    2.13       2.0  T
   3    -54.3457439  0.235333E-06  0.377E-03    2.13       4.6  T
   4    -54.3457442 -0.319620E-06  0.604E-04    2.13      28.4  T
   5    -54.3457442 -0.114420E-07  0.179E-04    2.13      96.0  T
     SCC iter.                  ...        0 min,  0.716 sec
     gradient                   ...        0 min,  0.151 sec
 * total energy  :   -53.4219593 Eh     change       -0.5907307E-05 Eh
   gradient norm :     0.0033964 Eh/α   predicted    -0.3874738E-05 ( -34.41%)
   displ. norm   :     0.0282156 α      lambda       -0.6863592E-05
   maximum displ.:     0.0229350 α      in ANC's #3, #1, #2, ...

........................................................................
.............................. CYCLE   18 ..............................
........................................................................
   1    -54.3459497 -0.543459E+02  0.840E-03    2.13       0.0  T
   2    -54.3459498 -0.505431E-07  0.499E-03    2.13       3.4  T
   3    -54.3459496  0.195573E-06  0.256E-03    2.13       6.7  T
   4    -54.3459498 -0.210164E-06  0.677E-04    2.13      25.3  T
   5    -54.3459498 -0.149601E-07  0.147E-04    2.13     116.8  T
     SCC iter.                  ...        0 min,  0.616 sec
     gradient                   ...        0 min,  0.164 sec
 * total energy  :   -53.4219643 Eh     change       -0.5043336E-05 Eh
   gradient norm :     0.0014456 Eh/α   predicted    -0.3438698E-05 ( -31.82%)
   displ. norm   :     0.0815032 α      lambda       -0.8113923E-05
   maximum displ.:     0.0680936 α      in ANC's #3, #1, #2, ...

........................................................................
.............................. CYCLE   19 ..............................
........................................................................
   1    -54.3466487 -0.543466E+02  0.236E-02    2.13       0.0  T
   2    -54.3466490 -0.295329E-06  0.145E-02    2.14       1.2  T
   3    -54.3466460  0.301842E-05  0.108E-02    2.14       1.6  T
   4    -54.3466496 -0.365663E-05  0.168E-03    2.14      10.2  T
   5    -54.3466497 -0.833104E-07  0.452E-04    2.14      37.9  T
   6    -54.3466497 -0.658329E-08  0.171E-04    2.14     100.4  T
     SCC iter.                  ...        0 min,  0.595 sec
     gradient                   ...        0 min,  0.146 sec
 * total energy  :   -53.4219689 Eh     change       -0.4578349E-05 Eh
   gradient norm :     0.0014967 Eh/α   predicted    -0.4071006E-05 ( -11.08%)
   displ. norm   :     0.0183842 α      lambda       -0.2535731E-05
   maximum displ.:     0.0118452 α      in ANC's #3, #4, #8, ...

........................................................................
.............................. CYCLE   20 ..............................
........................................................................
   1    -54.3462778 -0.543463E+02  0.698E-03    2.14       0.0  T
   2    -54.3462779 -0.486706E-07  0.421E-03    2.14       4.1  T
   3    -54.3462777  0.184207E-06  0.260E-03    2.14       6.6  T
   4    -54.3462779 -0.206042E-06  0.645E-04    2.14      26.6  T
   5    -54.3462779 -0.126779E-07  0.156E-04    2.14     110.1  T
     SCC iter.                  ...        0 min,  0.592 sec
     gradient                   ...        0 min,  0.149 sec
 * total energy  :   -53.4219712 Eh     change       -0.2271219E-05 Eh
   gradient norm :     0.0009261 Eh/α   predicted    -0.1272707E-05 ( -43.96%)
   displ. norm   :     0.0141300 α      lambda       -0.1209830E-05
   maximum displ.:     0.0089728 α      in ANC's #3, #1, #4, ...

   *** GEOMETRY OPTIMIZATION CONVERGED AFTER 20 ITERATIONS ***

------------------------------------------------------------------------
 total energy gain   :        -0.0206633 Eh      -12.9664 kcal/mol
 total RMSD          :         0.4792495 a0        0.2536 Å
 total power (kW/mol):        -2.7125764 (step)   -2.4628 (real)
------------------------------------------------------------------------

 ANCopt (total)                0 d,  0 h,  0 min, 22.028 sec
 optimizer setup                ...        0 min,  0.001 sec (  0.004%)
 model hessian                  ...        0 min,  0.013 sec (  0.058%)
 ANC generation                 ...        0 min,  0.029 sec (  0.133%)
 coordinate transformation      ...        0 min,  0.122 sec (  0.555%)
 single point calculation       ...        0 min, 21.200 sec ( 96.241%)
 optimization log               ...        0 min,  0.003 sec (  0.016%)
 hessian update                 ...        0 min,  0.575 sec (  2.612%)
 rational function              ...        0 min,  0.075 sec (  0.339%)

================
 final structure:
================
34
 xtb: 6.5.0 (97a52f5)
H            0.88519602279079       -0.48722459733819       -1.76616836978552
N            0.78396591796078       -0.58778670229820       -0.76244114689018
C           -0.47550309368082       -0.16085794761214       -0.34239258766959
C           -1.55162321067102       -1.13673776996458       -0.65507680082514
C            1.97001819352432       -0.28837664923692       -0.08765824643033
C           -0.77954210764574        1.00587690944035        0.28084721989631
C           -2.08193944243416        1.40432610197053        0.76672441130593
N           -0.71402562059490        3.15904734575467        0.97845163096092
C            0.09234046346945        2.19428076072554        0.42181639881509
C           -1.99466660748653        2.67993084216109        1.18162141124755
C           -1.72345433761677       -2.25074839717043        0.15815835400116
C           -2.35072806680811       -0.98206074893217       -1.78109548823150
C           -2.70326528567876       -3.18155833504503       -0.13656970359742
C           -3.32614487538712       -1.91819871605265       -2.07620922836848
C           -3.50542304518109       -3.01726332119743       -1.25349967729123
C            2.00248649239508       -0.05027288912349        1.28486063842649
C            3.17536630565463       -0.48918538848494       -0.75876375624918
C            3.21059751872175        0.07380409600746        1.94158492330712
C            4.37978776147871       -0.36083629776402       -0.09664705860529
C            4.40490620890274       -0.07086017501494        1.25671573010699
H           -0.39931464491543        4.09072742075218        1.19145874865771
O            1.24236776010653        2.37197455589759        0.07037383748734
H           -1.09092267143488       -2.37728597281666        1.02426634495781
H           -2.21325253143111       -0.11971133763184       -2.41750460971804
H           -2.83815535285508       -4.03991021658141        0.50490504836757
H           -3.94569931187069       -1.79028215205423       -2.95160999595871
H           -4.26788931907120       -3.74646543487285       -1.48401260782662
H            1.07945017241785        0.04082599458832        1.83747344302944
H            3.16153004821223       -0.71693957290036       -1.81630591841788
H            3.21783804387503        0.27970440116534        3.00216315534183
H            5.30385491499122       -0.49795322662121       -0.63922180408335
H           -2.94272302774472        0.76693570657910        0.80207983934336
H           -2.74851049354847        3.31380041211248        1.60904334857069
H            5.34647422155510        0.03228331156010        1.77469252612207

 Bond Distances (Angstroems)
 ---------------------------
H1-N2=1.0138         N2-H1=1.0138         N2-C3=1.3946         N2-C5=1.3970         C3-N2=1.3946         C3-C4=1.4860         
C3-C6=1.3573         C4-C3=1.4860         C4-C11=1.3899        C4-C12=1.3894        C5-N2=1.3970         C5-C16=1.3934        
C5-C17=1.3941        C6-C3=1.3573         C6-C7=1.4461         C6-C9=1.4807         C7-C6=1.4461         C7-C10=1.3442        
C7-H32=1.0717        N8-C9=1.3751         N8-C10=1.3823        N8-H21=1.0062        C9-C6=1.4807         C9-N8=1.3751         
C9-O22=1.2156        C10-C7=1.3442        C10-N8=1.3823        C10-H33=1.0737       C11-C4=1.3899        C11-C13=1.3832       
C11-H23=1.0799       C12-C4=1.3894        C12-C14=1.3838       C12-H24=1.0805       C13-C11=1.3832       C13-C15=1.3849       
C13-H25=1.0800       C14-C12=1.3838       C14-C15=1.3845       C14-H26=1.0801       C15-C13=1.3849       C15-C14=1.3845       
C15-H27=1.0799       C16-C5=1.3934        C16-C18=1.3807       C16-H28=1.0797       C17-C5=1.3941        C17-C19=1.3804       
C17-H29=1.0819       C18-C16=1.3807       C18-C20=1.3843       C18-H30=1.0804       C19-C17=1.3804       C19-C20=1.3843       
C19-H31=1.0803       C20-C18=1.3843       C20-C19=1.3843       C20-H34=1.0796       H21-N8=1.0062        O22-C9=1.2156        
H23-C11=1.0799       H24-C12=1.0805       H25-C13=1.0800       H26-C14=1.0801       H27-C15=1.0799       H28-C16=1.0797       
H29-C17=1.0819       H30-C18=1.0804       H31-C19=1.0803       H32-C7=1.0717        H33-C10=1.0737       H34-C20=1.0796       
 C  H  Rav=1.0790 sigma=0.0029  Rmin=1.0717  Rmax=1.0819    12
 C  C  Rav=1.3969 sigma=0.0371  Rmin=1.3442  Rmax=1.4860    17
 N  H  Rav=1.0100 sigma=0.0038  Rmin=1.0062  Rmax=1.0138     2
 N  C  Rav=1.3873 sigma=0.0090  Rmin=1.3751  Rmax=1.3970     4
 O  C  Rav=1.2156 sigma=0.0000  Rmin=1.2156  Rmax=1.2156     1

 selected bond angles (degree)
 --------------------
C3-N2-H1=110.98                C5-N2-H1=111.85                C5-N2-C3=123.75                C4-C3-N2=112.93                
C6-C3-N2=127.14                C6-C3-C4=119.93                C11-C4-C3=119.52               C12-C4-C3=120.93               
C12-C4-C11=119.49              C16-C5-N2=122.15               C17-C5-N2=118.08               C17-C5-C16=118.60              
C7-C6-C3=126.36                C9-C6-C3=127.00                C9-C6-C7=106.09                C10-C7-C6=107.86               
H32-C7-C6=124.79               H32-C7-C10=127.33              C10-N8-C9=111.08               H21-N8-C9=123.50               
H21-N8-C10=125.42              N8-C9-C6=104.85                O22-C9-C6=130.31               O22-C9-N8=124.70               
N8-C10-C7=110.10               H33-C10-C7=129.61              H33-C10-N8=120.29              

 selected dihedral angles (degree)
 ---------------------------------
C4-C3-N2-H1= 75.84            C4-C3-N2-C5=213.20            C6-C3-N2-H1=256.36            C6-C3-N2-C5= 33.72            
C11-C4-C3-N2= 79.25           C11-C4-C3-C6=258.78           C12-C4-C3-N2=262.06           C12-C4-C3-C6= 81.58           
C16-C5-N2-H1=164.68           C16-C5-N2-C3= 27.63           C17-C5-N2-H1=332.11           C17-C5-N2-C3=195.06           
C7-C6-C3-N2=183.17            C7-C6-C3-C4=  3.72            C9-C6-C3-N2= 12.85            C9-C6-C3-C4=193.40            
C10-C7-C6-C3=186.79           C10-C7-C6-C9=358.75           H32-C7-C6-C3=  8.20           H32-C7-C6-C9=180.17           
N8-C9-C6-C3=172.92            N8-C9-C6-C7=  1.02            O22-C9-C6-C3=357.15           O22-C9-C6-C7=185.25           
C6-C9-N8-C10=359.54           C6-C9-N8-H21=180.33           O22-C9-N8-C10=175.62          O22-C9-N8-H21=356.40          
N8-C10-C7-C6=  1.00           N8-C10-C7-H32=179.54          H33-C10-C7-C6=180.49          H33-C10-C7-H32=359.02         
C7-C10-N8-C9=359.67           C7-C10-N8-H21=178.86          H33-C10-N8-C9=180.13          H33-C10-N8-H21=359.32         
           -------------------------------------------------
          |                Final Singlepoint                |
           -------------------------------------------------

          ...................................................
          :                      SETUP                      :
          :.................................................:
          :  # basis functions                  94          :
          :  # atomic orbitals                  94          :
          :  # shells                           54          :
          :  # electrons                        98          :
          :  max. iterations                   250          :
          :  Hamiltonian                  GFN2-xTB          :
          :  restarted?                      false          :
          :  GBSA solvation                  false          :
          :  PC potential                    false          :
          :  electronic temp.          300.0000000     K    :
          :  accuracy                    1.0000000          :
          :  -> integral cutoff          0.2500000E+02      :
          :  -> integral neglect         0.1000000E-07      :
          :  -> SCF convergence          0.1000000E-05 Eh   :
          :  -> wf. convergence          0.1000000E-03 e    :
          :  Broyden damping             0.4000000          :
          ...................................................

 iter      E             dE          RMSdq      gap      omega  full diag
   1    -54.3462779 -0.543463E+02  0.562E-05    2.14       0.0  T
   2    -54.3462779 -0.284928E-11  0.347E-05    2.14     494.4  T
   3    -54.3462779  0.110987E-10  0.271E-05    2.14     631.7  T

   *** convergence criteria satisfied after 3 iterations ***

         #    Occupation            Energy/Eh            Energy/eV
      -------------------------------------------------------------
         1        2.0000           -0.6911690             -18.8077
       ...           ...                  ...                  ...
        43        2.0000           -0.4139596             -11.2644
        44        2.0000           -0.4130870             -11.2407
        45        2.0000           -0.4083830             -11.1127
        46        2.0000           -0.3913974             -10.6505
        47        2.0000           -0.3862714             -10.5110
        48        2.0000           -0.3712674             -10.1027
        49        2.0000           -0.3546386              -9.6502 (HOMO)
        50                         -0.2761274              -7.5138 (LUMO)
        51                         -0.2328943              -6.3374
        52                         -0.2320821              -6.3153
        53                         -0.2087541              -5.6805
        54                         -0.1990770              -5.4172
       ...                                ...                  ...
        94                          0.7505337              20.4231
      -------------------------------------------------------------
                  HL-Gap            0.0785112 Eh            2.1364 eV
             Fermi-level           -0.3153830 Eh           -8.5820 eV

 SCC (total)                   0 d,  0 h,  0 min,  0.576 sec
 SCC setup                      ...        0 min,  0.023 sec (  4.000%)
 Dispersion                     ...        0 min,  0.024 sec (  4.163%)
 classical contributions        ...        0 min,  0.025 sec (  4.321%)
 integral evaluation            ...        0 min,  0.030 sec (  5.185%)
 iterations                     ...        0 min,  0.317 sec ( 55.067%)
 molecular gradient             ...        0 min,  0.145 sec ( 25.238%)
 printout                       ...        0 min,  0.012 sec (  2.000%)

         :::::::::::::::::::::::::::::::::::::::::::::::::::::
         ::                     SUMMARY                     ::
         :::::::::::::::::::::::::::::::::::::::::::::::::::::
         :: total energy             -53.421971169115 Eh    ::
         :: gradient norm              0.000926455038 Eh/a0 ::
         :: HOMO-LUMO gap              2.136398549156 eV    ::
         ::.................................................::
         :: SCC energy               -54.346277909375 Eh    ::
         :: -> isotropic ES            0.044470765102 Eh    ::
         :: -> anisotropic ES          0.005715477691 Eh    ::
         :: -> anisotropic XC          0.028430702806 Eh    ::
         :: -> dispersion             -0.039337589202 Eh    ::
         :: repulsion energy           0.923996955804 Eh    ::
         :: add. restraining           0.000024663132 Eh    ::
         :: total charge              -0.000000000000 e     ::
         :::::::::::::::::::::::::::::::::::::::::::::::::::::

           -------------------------------------------------
          |                Property Printout                |
           -------------------------------------------------

    * Orbital Energies and Occupations

         #    Occupation            Energy/Eh            Energy/eV
      -------------------------------------------------------------
         1        2.0000           -0.6911690             -18.8077
       ...           ...                  ...                  ...
        37        2.0000           -0.4626036             -12.5881
        38        2.0000           -0.4432091             -12.0603
        39        2.0000           -0.4369321             -11.8895
        40        2.0000           -0.4298139             -11.6958
        41        2.0000           -0.4245206             -11.5518
        42        2.0000           -0.4191062             -11.4045
        43        2.0000           -0.4139596             -11.2644
        44        2.0000           -0.4130870             -11.2407
        45        2.0000           -0.4083830             -11.1127
        46        2.0000           -0.3913974             -10.6505
        47        2.0000           -0.3862714             -10.5110
        48        2.0000           -0.3712674             -10.1027
        49        2.0000           -0.3546386              -9.6502 (HOMO)
        50                         -0.2761274              -7.5138 (LUMO)
        51                         -0.2328943              -6.3374
        52                         -0.2320821              -6.3153
        53                         -0.2087541              -5.6805
        54                         -0.1990770              -5.4172
        55                         -0.1746275              -4.7519
        56                         -0.1267665              -3.4495
        57                         -0.1027872              -2.7970
        58                         -0.0759361              -2.0663
        59                          0.0244280               0.6647
        60                          0.0378987               1.0313
       ...                                ...                  ...
        94                          0.7505337              20.4231
      -------------------------------------------------------------
                  HL-Gap            0.0785112 Eh            2.1364 eV
             Fermi-level           -0.3153830 Eh           -8.5820 eV

     #   Z          covCN         q      C6AA      α(0)
     1   1 H        0.860     0.177     1.230     1.737
     2   7 N        2.697    -0.163    24.519     7.354
     3   6 C        2.889     0.080    26.211     8.394
     4   6 C        2.983     0.007    27.847     8.656
     5   6 C        2.906     0.084    26.127     8.381
     6   6 C        3.071    -0.048    29.122     8.848
     7   6 C        2.978    -0.073    29.825     8.958
     8   7 N        2.772    -0.151    24.252     7.314
     9   6 C        2.853     0.270    22.456     7.767
    10   6 C        2.974     0.013    27.724     8.637
    11   6 C        2.924    -0.027    28.674     8.781
    12   6 C        2.923    -0.031    28.780     8.798
    13   6 C        2.919    -0.027    28.680     8.782
    14   6 C        2.919    -0.028    28.695     8.784
    15   6 C        2.920    -0.029    28.723     8.789
    16   6 C        2.923    -0.037    28.924     8.819
    17   6 C        2.927    -0.051    29.258     8.871
    18   6 C        2.921    -0.026    28.654     8.778
    19   6 C        2.920    -0.027    28.674     8.781
    20   6 C        2.920    -0.038    28.937     8.821
    21   1 H        0.860     0.172     1.260     1.758
    22   8 O        0.857    -0.438    22.451     6.353
    23   1 H        0.926     0.038     2.470     2.458
    24   1 H        0.926     0.032     2.563     2.503
    25   1 H        0.926     0.037     2.494     2.469
    26   1 H        0.926     0.035     2.510     2.477
    27   1 H        0.926     0.035     2.517     2.481
    28   1 H        0.926     0.026     2.642     2.542
    29   1 H        0.925     0.024     2.677     2.558
    30   1 H        0.926     0.029     2.595     2.519
    31   1 H        0.926     0.030     2.585     2.514
    32   1 H        0.926     0.035     2.512     2.479
    33   1 H        0.926     0.039     2.457     2.451
    34   1 H        0.926     0.029     2.607     2.525

 Mol. C6AA /au·bohr⁶  :      15855.752015
 Mol. C8AA /au·bohr⁸  :     391505.088261
 Mol. α(0) /au        :        202.140130


Wiberg/Mayer (AO) data.
largest (>0.10) Wiberg bond orders for each atom

 ---------------------------------------------------------------------------
     #   Z sym  total        # sym  WBO       # sym  WBO       # sym  WBO
 ---------------------------------------------------------------------------
     1   1 H    0.968 --     2 N    0.916
     2   7 N    3.372 --     3 C    1.108     5 C    1.094     1 H    0.916
     3   6 C    3.972 --     6 C    1.585     2 N    1.108     4 C    0.997
     4   6 C    3.988 --    12 C    1.405    11 C    1.400     3 C    0.997
                            15 C    0.110
     5   6 C    3.966 --    16 C    1.359    17 C    1.359     2 N    1.094
     6   6 C    3.974 --     3 C    1.585     7 C    1.136     9 C    1.020
     7   6 C    3.977 --    10 C    1.707     6 C    1.136    32 H    0.971
     8   7 N    3.505 --     9 C    1.156    10 C    1.133    21 H    0.941
                            22 O    0.147
     9   6 C    3.948 --    22 O    1.656     8 N    1.156     6 C    1.020
    10   6 C    3.952 --     7 C    1.707     8 N    1.133    33 H    0.969
    11   6 C    3.988 --    13 C    1.445     4 C    1.400    23 H    0.970
                            14 C    0.112
    12   6 C    3.991 --    14 C    1.443     4 C    1.405    24 H    0.971
                            13 C    0.111
    13   6 C    3.991 --    11 C    1.445    15 C    1.438    25 H    0.970
                            12 C    0.111
    14   6 C    3.991 --    12 C    1.443    15 C    1.440    26 H    0.970
                            11 C    0.112
    15   6 C    3.990 --    14 C    1.440    13 C    1.438    27 H    0.971
                             4 C    0.110
    16   6 C    3.991 --    18 C    1.458     5 C    1.359    28 H    0.967
                            19 C    0.105
    17   6 C    3.984 --    19 C    1.459     5 C    1.359    29 H    0.968
                            18 C    0.104
    18   6 C    3.993 --    16 C    1.458    20 C    1.430    30 H    0.971
                            17 C    0.104
    19   6 C    3.992 --    17 C    1.459    20 C    1.429    31 H    0.971
                            16 C    0.105
    20   6 C    3.983 --    18 C    1.430    19 C    1.429    34 H    0.972
    21   1 H    0.969 --     8 N    0.941
    22   8 O    2.013 --     9 C    1.656     8 N    0.147
    23   1 H    0.998 --    11 C    0.970
    24   1 H    0.999 --    12 C    0.971
    25   1 H    0.997 --    13 C    0.970
    26   1 H    0.998 --    14 C    0.970
    27   1 H    0.998 --    15 C    0.971
    28   1 H    0.999 --    16 C    0.967
    29   1 H    0.999 --    17 C    0.968
    30   1 H    0.999 --    18 C    0.971
    31   1 H    0.999 --    19 C    0.971
    32   1 H    0.999 --     7 C    0.971
    33   1 H    0.998 --    10 C    0.969
    34   1 H    0.999 --    20 C    0.972
 ---------------------------------------------------------------------------

Topologies differ in total number of bonds
Writing topology from bond orders to xtbtopo.mol

molecular dipole:
                 x           y           z       tot (Debye)
 q only:       -1.119      -0.601      -0.109
   full:       -1.291      -0.223      -0.125       3.346
molecular quadrupole (traceless):
                xx          xy          yy          xz          yz          zz
 q only:       -2.341      -5.292       0.728      -0.255       4.383       1.614
  q+dip:       -4.585      -4.479       1.169       0.406       6.113       3.416
   full:       -5.334      -5.930       1.924      -0.323       5.453       3.410

           -------------------------------------------------
          |                Geometry Summary                 |
           -------------------------------------------------

      molecular mass/u    :      262.3064921
   center of mass at/Å    :        0.0163861      -0.0380596       0.0231875
  moments of inertia/u·Å² :        0.9680293E+03   0.1951270E+04   0.2581299E+04
rotational constants/cm⁻¹ :        0.1741438E-01   0.8639313E-02   0.6530677E-02

 * 33 selected distances

     #   Z          #   Z                                           value/Å
     1   1 H        2   7 N                                       1.0138189
     2   7 N        3   6 C                                       1.3946224
     2   7 N        5   6 C                                       1.3970321 (max)
     3   6 C        6   6 C                                       1.3572539
     8   7 N        9   6 C                                       1.3750796
     7   6 C       10   6 C                                       1.3442187
     8   7 N       10   6 C                                       1.3823430
     4   6 C       11   6 C                                       1.3899271
     4   6 C       12   6 C                                       1.3893927
    11   6 C       13   6 C                                       1.3832215
    12   6 C       14   6 C                                       1.3837936
    13   6 C       15   6 C                                       1.3849126
    14   6 C       15   6 C                                       1.3845342
     5   6 C       16   6 C                                       1.3933973
     5   6 C       17   6 C                                       1.3941202
    16   6 C       18   6 C                                       1.3806573
    17   6 C       19   6 C                                       1.3803997
    18   6 C       20   6 C                                       1.3843219
    19   6 C       20   6 C                                       1.3843079
     8   7 N       21   1 H                                       1.0062023 (min)
     9   6 C       22   8 O                                       1.2155863
    11   6 C       23   1 H                                       1.0799312
    12   6 C       24   1 H                                       1.0805382
    13   6 C       25   1 H                                       1.0800247
    14   6 C       26   1 H                                       1.0800635
    15   6 C       27   1 H                                       1.0799199
    16   6 C       28   1 H                                       1.0796648
    17   6 C       29   1 H                                       1.0818776
    18   6 C       30   1 H                                       1.0804044
    19   6 C       31   1 H                                       1.0803188
     7   6 C       32   1 H                                       1.0716646
    10   6 C       33   1 H                                       1.0736671
    20   6 C       34   1 H                                       1.0795782

 * 5 distinct bonds (by element types)

   Z      Z             #   av. dist./Å        max./Å        min./Å
   1 H    6 C          12     1.0789711     1.0818776     1.0716646
   6 C    6 C          14     1.3810328     1.3941202     1.3442187
   1 H    7 N           2     1.0100106     1.0138189     1.0062023
   6 C    7 N           4     1.3872693     1.3970321     1.3750796
   6 C    8 O           1     1.2155863     1.2155863     1.2155863


optimized geometry written to: xtbopt.xyz


           -------------------------------------------------
          | TOTAL ENERGY              -53.421971169115 Eh   |
          | GRADIENT NORM               0.000926455038 Eh/α |
          | HOMO-LUMO GAP               2.136398549156 eV   |
           -------------------------------------------------
########################################################################
[WARNING] Runtime exception occurred
-1- restart_readRestart: Number of electron missmatch in restart file.
########################################################################

------------------------------------------------------------------------
 * finished run on 2023/11/18 at 09:08:31.479     
------------------------------------------------------------------------
 total:
 * wall-time:     0 d,  0 h,  0 min, 24.146 sec
 *  cpu-time:     0 d,  0 h, 20 min, 59.884 sec
 * ratio c/w:    52.177 speedup
 SCF:
 * wall-time:     0 d,  0 h,  0 min,  1.353 sec
 *  cpu-time:     0 d,  0 h,  1 min, 18.247 sec
 * ratio c/w:    57.824 speedup
 ANC optimizer:
 * wall-time:     0 d,  0 h,  0 min, 22.616 sec
 *  cpu-time:     0 d,  0 h, 19 min, 31.715 sec
 * ratio c/w:    51.809 speedup

