34
 energy: -53.439813234098 gnorm: 0.000696859391 xtb: 6.5.0 (97a52f5)
H            1.20948548625529        1.61122760745124       -0.14971909390223
N            0.94370996540739        0.64624918628302       -0.40701212005097
C           -0.40410290872262        0.52992179071878       -0.29141508035312
C           -1.12208528299021       -0.76527571027592       -0.24718004110072
C            1.95969113473116       -0.23183618138834       -0.02540082154596
C           -1.15491369387365        1.67812549342862       -0.21398238392967
C           -2.57424849064956        1.83649967191149       -0.03320395389953
N           -1.62106807169084        3.84988538947654        0.16690730738074
C           -0.57000976439442        3.00730592010008       -0.05682923155856
C           -2.81394243213278        3.14482963758729        0.17833710507619
C           -1.33740961549531       -1.39466815292022        0.97617651429851
C           -1.70916209220941       -1.28397243224193       -1.39463204486722
C           -2.09118389868890       -2.55214325793229        1.03923375771666
C           -2.45918721447553       -2.44543205231848       -1.32723004557585
C           -2.64954038678190       -3.08202597149851       -0.11274785613073
C            1.80868990799522       -1.60506287138793        0.15932440753777
C            3.24865237462527        0.30965845084146        0.01850735162955
C            2.90710752628090       -2.38929157259261        0.46471478958168
C            4.33745305316148       -0.48035462001824        0.32210976497047
C            4.17203715285067       -1.83685104417823        0.55518875635638
H           -1.52960345949937        4.84089514696558        0.31426600810415
O            0.61889163301136        3.33075138278721       -0.06509364945754
H           -0.90526799508603       -0.97557311207832        1.87355045149793
H           -1.56384190946369       -0.78081870548724       -2.33902124812513
H           -2.24753135101639       -3.03834645782163        1.99080742717484
H           -2.90354556568899       -2.84897748804793       -2.22502046308646
H           -3.23822966936719       -3.98583259652504       -0.06143421820892
H            0.84219394280053       -2.07001138662883        0.06632512301608
H            3.37706604553568        1.36726815388829       -0.16242808882753
H            2.76772047264297       -3.44886498109836        0.62172699563860
H            5.32202463318510       -0.03902696727574        0.36705020272499
H           -3.29744582847530        1.04699148255505       -0.08179760401521
H           -3.74181332591329        3.65517277429374        0.35018866888943
H            5.02280463813256       -2.45741551657244        0.79179132304155
