34
 energy: -53.406381326476 gnorm: 0.078067582918 xtb: 6.5.0 (97a52f5)
H            0.59713389000000       -1.97800000000000        1.20131957000000
N            0.63528722000000       -0.96073132000000        1.11115703000000
C           -0.62762066000000       -0.42638515000000        0.69945876000000
C           -1.31482474000000       -1.16634153000000       -0.39286497000000
C            1.89110584000000       -0.52473458000000        0.56996899000000
C           -1.16016968000000        0.75591560000000        1.19390817000000
C           -2.45752640000000        1.35539327000000        0.88850766000000
N           -1.41420749000000        2.69551018000000        2.38518961000000
C           -0.49499061000000        1.67362598000000        2.20056920000000
C           -2.55998304000000        2.49929637000000        1.61522750000000
C           -2.16485592000000       -2.25833046000000       -0.08929800000000
C           -1.21403428000000       -0.72258593000000       -1.73451575000000
C           -2.86477390000000       -2.91572616000000       -1.10973277000000
C           -1.91672243000000       -1.38111180000000       -2.75240546000000
C           -2.74194763000000       -2.48327122000000       -2.44652389000000
C            2.02234201000000        0.68000557000000       -0.16936018000000
C            3.05800114000000       -1.30294306000000        0.78050652000000
C            3.26461522000000        1.06493554000000       -0.68902111000000
C            4.29148755000000       -0.89775087000000        0.25665644000000
C            4.40685466000000        0.28538113000000       -0.48016962000000
H           -1.22458247000000        3.45898622000000        3.01729660000000
O            0.59542010000000        1.60295835000000        2.76453648000000
H           -2.27952918000000       -2.58826402000000        0.94555583000000
H           -0.58103897000000        0.13237459000000       -1.97996912000000
H           -3.51002105000000       -3.76182594000000       -0.86665150000000
H           -1.82365803000000       -1.03813633000000       -3.78436527000000
H           -3.28980687000000       -2.99434934000000       -3.24016964000000
H            1.16277758000000        1.32662805000000       -0.34946647000000
H            3.00541164000000       -2.22855795000000        1.35779625000000
H            3.33664951000000        1.99371758000000       -1.25863586000000
H            5.17302955000000       -1.51727513000000        0.43379156000000
H           -3.19872126000000        0.95698863000000        0.20975336000000
H           -3.37084720000000        3.21236726000000        1.65735682000000
H            5.37313991000000        0.59523247000000       -0.88334674000000
34
 energy: -53.417906738952 gnorm: 0.027178993679 xtb: 6.5.0 (97a52f5)
H            0.59983280548754       -1.93819663723899        1.19729937270804
N            0.64183400456888       -0.92683840081914        1.08729249777194
C           -0.61008276095628       -0.40714871982260        0.67927948790445
C           -1.32514329979457       -1.15517334819534       -0.39299836494705
C            1.88177485657368       -0.51570468905240        0.54841625745802
C           -1.13194061888570        0.75013494648695        1.17687631866884
C           -2.42226077002375        1.34689765048853        0.88127854999310
N           -1.40367040854331        2.67292012555334        2.37430297957909
C           -0.49220373908673        1.65350574103082        2.18667100755620
C           -2.53871525278781        2.47630054532093        1.60835810306264
C           -2.14759468135609       -2.24865793177800       -0.10053431260429
C           -1.23142084813232       -0.72249541508605       -1.71803665776512
C           -2.84246782611659       -2.90036157596763       -1.10961690672609
C           -1.91498352435653       -1.38628385723509       -2.72608110651834
C           -2.72733429887875       -2.47272957587076       -2.42633135228246
C            2.01745396910090        0.67384257314850       -0.17236233407764
C            3.03021649381784       -1.28787512721954        0.77193766306670
C            3.25091478104330        1.05719297149884       -0.67571249196017
C            4.25870535768935       -0.89257206751211        0.26366853853550
C            4.37928318848118        0.27845832381477       -0.46898312852021
H           -1.22732057067356        3.43774574978079        3.00651664434045
O            0.58266366086676        1.58320550697560        2.74353768654829
H           -2.26063076087940       -2.57488705557860        0.92666194355206
H           -0.59699102377903        0.12040399216896       -1.96275265383322
H           -3.48730551588047       -3.73744397729966       -0.86892249025027
H           -1.82536491999733       -1.04573443279077       -3.75077412393615
H           -3.27270518607638       -2.97889520113853       -3.21367591082077
H            1.15985751484911        1.31114239076242       -0.34181734805803
H            2.96931984854998       -2.20590444253351        1.34561230272346
H            3.32703194441750        1.97761802638382       -1.24291462776487
H            5.13274641629400       -1.50992178533386        0.44081863914155
H           -3.15876633430983        0.94681638431469        0.20960431808961
H           -3.35111747638276        3.18166207772343        1.65433138306819
H            5.33977898515716        0.58197323502018       -0.86888988370345
34
 energy: -53.419646739687 gnorm: 0.053272545703 xtb: 6.5.0 (97a52f5)
H            0.59922209736821       -1.91902780143956        1.19556120515819
N            0.64198375030877       -0.90968459865380        1.07866208926433
C           -0.59931982120267       -0.40027461045381        0.67057128816839
C           -1.32482343173650       -1.14988464748071       -0.39160886596955
C            1.86481123372579       -0.50936788772956        0.53569678463603
C           -1.10929455443284        0.75103254055797        1.15968434551816
C           -2.39556342256730        1.34260146208108        0.86276269427453
N           -1.38886220992914        2.65390314707115        2.36687692245361
C           -0.47136558857998        1.64533902629925        2.16362775871242
C           -2.51960983999601        2.45975380441943        1.59940536232398
C           -2.13447458404306       -2.24167114180067       -0.09750475577130
C           -1.23032469423649       -0.71826219209938       -1.70880700600478
C           -2.82777874235800       -2.89202475194356       -1.10186543800928
C           -1.91394693968381       -1.37927244954340       -2.71226838109079
C           -2.71738141753552       -2.46420049323310       -2.41246541316883
C            2.00129731485656        0.67646120160841       -0.17724307110921
C            3.00116607586251       -1.28193603962391        0.77000450851438
C            3.23292610477082        1.05717367459081       -0.67341997977038
C            4.22862443631247       -0.89387885293414        0.26947635878301
C            4.35394615779600        0.27497052793794       -0.46091032280509
H           -1.22891131548014        3.41408025507079        3.00731881882727
O            0.59689205757442        1.56524564419343        2.72466499444181
H           -2.23372694956162       -2.57251520437393        0.92637217521849
H           -0.60973949119416        0.13207105135028       -1.94834020557308
H           -3.46193408034801       -3.73249495503204       -0.86083358386259
H           -1.82466056207742       -1.03978246852387       -3.73356834612159
H           -3.25833264658954       -2.97199669669046       -3.19696197498373
H            1.14054753393771        1.30514598854063       -0.34406468323766
H            2.92623152611804       -2.19751987755908        1.33987564222097
H            3.31600603161230        1.97781088146079       -1.23255583663120
H            5.09785820079067       -1.50930901482932        0.45372474350472
H           -3.12531804946471        0.93932607778279        0.18957846276085
H           -3.33652984805004        3.15577823525602        1.65410460145265
H            5.31377967803271        0.57540616572344       -0.85349089212474
34
 energy: -53.419777944167 gnorm: 0.084900846926 xtb: 6.5.0 (97a52f5)
H            0.59771764635217       -1.91629252965737        1.19598764997606
N            0.63774097807176       -0.90931434064889        1.07222075755028
C           -0.59754753772144       -0.40051847818496        0.66933896677355
C           -1.32675734709526       -1.14612260786617       -0.39022152825305
C            1.85310975387650       -0.50439021259755        0.53254923730567
C           -1.09799393080932        0.75580358475846        1.14935281485892
C           -2.38219542203250        1.34580135397669        0.85013166067270
N           -1.37717785025121        2.64637844548748        2.36507383439925
C           -0.45941585005519        1.63938695950465        2.15682167950152
C           -2.50787358056579        2.45583394879132        1.59601998214612
C           -2.12302929840532       -2.24445902508431       -0.09328672456054
C           -1.23150183383379       -0.71054022923992       -1.70510169673928
C           -2.81504757991942       -2.89630328641820       -1.09681273877629
C           -1.91322978419378       -1.37394008009979       -2.70796104567942
C           -2.70990304115121       -2.46369439935642       -2.40647384260315
C            1.98810385169205        0.68093064234568       -0.18138056835801
C            2.98346229286702       -1.28245879223699        0.76752031668875
C            3.22131034953315        1.06064952689876       -0.67250087788588
C            4.21216830703325       -0.89546783405197        0.27334569680128
C            4.33941263677214        0.27523915189014       -0.45452225532523
H           -1.22515231477100        3.40472940542888        3.00861049515283
O            0.61023653523979        1.55290066515575        2.71590646212323
H           -2.21395534897631       -2.57645569763385        0.93065759771641
H           -0.61670915480422        0.14446733170948       -1.94107682307885
H           -3.44396360908197       -3.73935171509739       -0.85458111195977
H           -1.82687399994012       -1.03250489994447       -3.72806125804870
H           -3.25094178108241       -2.97178480155541       -3.18965161908309
H            1.12417805157921        1.30483232928956       -0.34894491959591
H            2.89716186252995       -2.19690549831635        1.33677496812830
H            3.30875078711146        1.98141399666814       -1.22944130042188
H            5.07909267156245       -1.51115598752795        0.46115577006486
H           -3.10424354147720        0.94311837735687        0.16890338974934
H           -3.32572722097571        3.14895560788396        1.65459404186353
H            5.30018831292232        0.57421508837202       -0.84288701110357
34
 energy: -53.420141590625 gnorm: 0.021810262482 xtb: 6.5.0 (97a52f5)
H            0.59463604914580       -1.92068618458873        1.19481826309334
N            0.63420809014655       -0.91244525401538        1.07542313865577
C           -0.60037894913686       -0.40248955113749        0.66992977644571
C           -1.33002161562820       -1.14537528200042       -0.38913962097974
C            1.84905451283278       -0.50595270309918        0.53149577046230
C           -1.09610183215493        0.76117945874568        1.14511901250612
C           -2.37976955914252        1.35290334313900        0.84569347233476
N           -1.37262417758339        2.64742693634060        2.36726707308734
C           -0.45667044017098        1.63880897166900        2.15779964575057
C           -2.50382864450441        2.46094934205514        1.59611130345337
C           -2.11889989681270       -2.25014443413825       -0.09175169226177
C           -1.23453181920909       -0.70661561751004       -1.70468556577891
C           -2.80935121420399       -2.90389584507324       -1.09645968194681
C           -1.91404432827256       -1.37277671818005       -2.70859539470053
C           -2.70724054512689       -2.46703103841977       -2.40656909398921
C            1.98311808615589        0.68171743605653       -0.18244169823537
C            2.98054146242728       -1.28421512908818        0.76697573925549
C            3.21773841657553        1.06247115926428       -0.67155147400568
C            4.20999207435624       -0.89582869151555        0.27425563979113
C            4.33637407701201        0.27684971128341       -0.45190600228068
H           -1.22192392234083        3.40469353666671        3.01217848577959
O            0.61530042750529        1.54914835661050        2.71438067118944
H           -2.20689258972953       -2.58241330554602        0.93293366677003
H           -0.62056697079958        0.15011956786221       -1.93918915724724
H           -3.43559666343811       -3.74964244420121       -0.85445615203078
H           -1.83027485673992       -1.02918958317183       -3.72876653764988
H           -3.24866086922371       -2.97532595998144       -3.19002588448537
H            1.11810469280179        1.30514736635188       -0.35046020165522
H            2.89025461036753       -2.19938561488130        1.33539151472691
H            3.30567936619667        1.98328270538285       -1.22935924296053
H            5.07694590299722       -1.51224727236735        0.46154879279556
H           -3.09820049654100        0.95227843252349        0.15884464813814
H           -3.32095129195317        3.15485651640286        1.65610844096242
H            5.29797692419186        0.57682378856115       -0.83885765499031
34
 energy: -53.420199640541 gnorm: 0.036860467774 xtb: 6.5.0 (97a52f5)
H            0.58994211212617       -1.92465213887138        1.19326545754583
N            0.62956557296406       -0.91495641953888        1.07696972384170
C           -0.60650868873151       -0.40559894637282        0.67387873547629
C           -1.33395227601244       -1.14472954354564       -0.38821868440424
C            1.84429510941353       -0.50768055265054        0.53152957075564
C           -1.09352779678028        0.76847621845451        1.13975847780823
C           -2.37620366703983        1.36383829682526        0.84149810016652
N           -1.36677679008773        2.64943339852183        2.37075993226842
C           -0.45134424851773        1.64174181559569        2.15439871029049
C           -2.49740206173215        2.46989932084013        1.59595905179846
C           -2.11469425988295       -2.25697926420439       -0.09180322227549
C           -1.23873272843967       -0.70447511234977       -1.70359154446238
C           -2.80220968700152       -2.91310004645805       -1.09777981709986
C           -1.91675035674337       -1.37199717784574       -2.70820246013532
C           -2.70392251100794       -2.47161294542064       -2.40705219821383
C            1.97749736651354        0.68138170133824       -0.18202635955653
C            2.97673011418120       -1.28652141475593        0.76554696480262
C            3.21282529589734        1.06278073449334       -0.66978051555817
C            4.20674477483548       -0.89664145692622        0.27460114046337
C            4.33205319650360        0.27796960818591       -0.44890068033799
H           -1.21876197612351        3.40384968135347        3.01972990578469
O            0.62143527628442        1.54677224604379        2.70943986324161
H           -2.19746071496944       -2.59180159069129        0.93277430683553
H           -0.62991119328100        0.15695370732174       -1.93565474525301
H           -3.42072122394987       -3.76562314497673       -0.85765553606720
H           -1.83573160580857       -1.02643030132801       -3.72831904099503
H           -3.24280722896007       -2.98195666667614       -3.19143197578230
H            1.11193215122127        1.30438970303104       -0.35036133292976
H            2.88288079183772       -2.20248792184146        1.33253141223805
H            3.30131934022959        1.98419811523377       -1.22719233368628
H            5.07412660290407       -1.51309370223202        0.46143594514321
H           -3.09160906695946        0.96616110632857        0.14962252390678
H           -3.31357430699562        3.16491568445269        1.65898973141347
H            5.29464869411275        0.58057300866550       -0.83265910702364
34
 energy: -53.420303396269 gnorm: 0.010534643296 xtb: 6.5.0 (97a52f5)
H            0.58566501175676       -1.92624920436913        1.19384672138666
N            0.62474180694764       -0.91689109476292        1.07792068218474
C           -0.60994844157696       -0.40573605340343        0.67435981320612
C           -1.33839043843645       -1.14400077703446       -0.38712984541024
C            1.83974842135161       -0.50795461509263        0.53213877503104
C           -1.09005478816297        0.77390345495318        1.13421824294938
C           -2.37129602803953        1.37316668443572        0.83716893109327
N           -1.36076830508529        2.64959926929265        2.37359037177011
C           -0.44615270868368        1.64259861925426        2.15116850621930
C           -2.49062959760394        2.47642787814771        1.59596806994818
C           -2.11134974936022       -2.26172463252443       -0.09235664924317
C           -1.24349953132707       -0.70239287178886       -1.70230459076342
C           -2.79510304684207       -2.92067909374697       -1.09903802594755
C           -1.91948121853864       -1.37145826568747       -2.70716310822814
C           -2.70030971522867       -2.47575838057469       -2.40715645221414
C            1.97223049496853        0.68089814918244       -0.18154945838204
C            2.97215695204817       -1.28750267064742        0.76505162315175
C            3.20769398961926        1.06277450143425       -0.66821594638480
C            4.20231559664424       -0.89693187604211        0.27532353838993
C            4.32708937781584        0.27874023787626       -0.44636394446005
H           -1.21511956839897        3.40151338193606        3.02604553777246
O            0.62693251291267        1.54315835577668        2.70481335036113
H           -2.18915615693246       -2.59931973135076        0.93170336274162
H           -0.63956776983862        0.16294503088324       -1.93244296394278
H           -3.40617544463796       -3.77920024464588       -0.86061813710555
H           -1.84066357338169       -1.02454052971432       -3.72700050578565
H           -3.23651197592684       -2.98806317392408       -3.19217359714732
H            1.10633029640608        1.30319066106512       -0.35015300203391
H            2.87590668999239       -2.20403916228702        1.33059418523998
H            3.29668632744818        1.98463604919035       -1.22485956663201
H            5.06989406911025       -1.51316947424994        0.46188352350423
H           -3.08435900613749        0.97919160587719        0.14086096047450
H           -3.30563577061733        3.17264716643322        1.66162321868333
H            5.29017529773531        0.58321680610798       -0.82769362042706
34
 energy: -53.420359722753 gnorm: 0.007341858318 xtb: 6.5.0 (97a52f5)
H            0.57912692327617       -1.92655092617275        1.19387198468350
N            0.61859296014000       -0.91735574792448        1.07808655291109
C           -0.61548775131169       -0.40476725855415        0.67533563450858
C           -1.34538879820721       -1.14202670421312       -0.38593509100975
C            1.83413263817479       -0.50848069779180        0.53223024342214
C           -1.08718467211607        0.78013617993991        1.12911384453565
C           -2.36663564011731        1.38485483614271        0.83467468023229
N           -1.35271610672332        2.65074364791466        2.37718183992071
C           -0.44131578448969        1.64222599232704        2.15039162668355
C           -2.48256835626046        2.48508954419374        1.59800507619329
C           -2.10689885461271       -2.26839872178279       -0.09418559665407
C           -1.25152142415048       -0.69977572161903       -1.70082000024205
C           -2.78400898941869       -2.93226715176642       -1.10190997426109
C           -1.92267271731245       -1.37222521119013       -2.70637807431858
C           -2.69397785577415       -2.48349216213361       -2.40865240551222
C            1.96665208526161        0.68034182267185       -0.18028833061123
C            2.96612459816769       -1.28893149736730        0.76385172295510
C            3.20224829457378        1.06300946502379       -0.66548126580077
C            4.19658303864898       -0.89738755370908        0.27603680036991
C            4.32167807833851        0.27957870612322       -0.44329059000902
H           -1.20722253057017        3.40080577365537        3.03155400450549
O            0.63287017317553        1.53864266883873        2.70077211191384
H           -2.18136295433106       -2.60852851606544        0.92908309781675
H           -0.65343279878307        0.16978007391015       -1.92940647846682
H           -3.38697041180482       -3.79694354942706       -0.86553163680145
H           -1.84694139118058       -1.02323433264735       -3.72567595181329
H           -3.22676837561235       -2.99803594800811       -3.19454279019919
H            1.10110082485711        1.30257185603986       -0.34935241981850
H            2.86915435873217       -2.20599522103429        1.32818922027543
H            3.29134390463764        1.98497003470605       -1.22180940929934
H            5.06424039041328       -1.51362344929232        0.46206841962916
H           -3.07805694908807        0.99787868770191        0.13287008914451
H           -3.29427768721386        3.18501965381026        1.66502819297857
H            5.28495579068106        0.58536742769971       -0.82302512786236
34
 energy: -53.420396810685 gnorm: 0.007298547440 xtb: 6.5.0 (97a52f5)
H            0.57210400921073       -1.92623800483829        1.19338674638391
N            0.61245488020754       -0.91705589620624        1.07803881902744
C           -0.62158566428380       -0.40326775345049        0.67616310297995
C           -1.35188652041223       -1.14012460976868       -0.38537700928079
C            1.82870682496402       -0.50897968217860        0.53235636574678
C           -1.08610090631582        0.78574233946242        1.12559275078551
C           -2.36369477864437        1.39620951992288        0.83418779682677
N           -1.34522885146346        2.65273964829325        2.38102086673581
C           -0.43643188186700        1.64339956342860        2.14862729326993
C           -2.47524373117090        2.49453497366141        1.60062331076558
C           -2.10341487694192       -2.27388386930548       -0.09634884790460
C           -1.25878412583453       -0.69817553942821       -1.70030046667969
C           -2.77372959061419       -2.94282167361699       -1.10505326501147
C           -1.92501132451504       -1.37405071855430       -2.70663542930790
C           -2.68735093358864       -2.49183207278942       -2.41108794605422
C            1.96210061333860        0.67998582628765       -0.17895595958725
C            2.96021142741171       -1.29025538941010        0.76300154255825
C            3.19789220477171        1.06300108383023       -0.66333320382315
C            4.19100595964237       -0.89820804207669        0.27646459785865
C            4.31717143417585        0.27955098409089       -0.44132913436510
H           -1.19836415702211        3.40028845783358        3.03799990592700
O            0.63791756782214        1.53502953105033        2.69754937024387
H           -2.17542839165313       -2.61675368626072        0.92613319914717
H           -0.66755031193555        0.17623196471790       -1.92799626186512
H           -3.36746022726353       -3.81437319542565       -0.87055498378579
H           -1.85190133546559       -1.02328073266072       -3.72546564702161
H           -3.21493405844742       -3.01013658341043       -3.19806835194194
H            1.09748330753925        1.30315564360533       -0.34839120965125
H            2.86405836350827       -2.20815168040161        1.32604589444755
H            3.28714839474290        1.98555152548671       -1.21861314480943
H            5.05857056556055       -1.51470738616291        0.46219058628060
H           -3.07617861485704        1.01587460869769        0.13000591277185
H           -3.28385929106290        3.19796970614671        1.66993599705231
H            5.28070803046366        0.58602713942963       -0.81975319771976
34
 energy: -53.420427567943 gnorm: 0.004158356664 xtb: 6.5.0 (97a52f5)
H            0.56543544014446       -1.92477118383609        1.19197570645585
N            0.60679844573633       -0.91556158221956        1.07707363985397
C           -0.62739767325711       -0.40102486383998        0.67614511082813
C           -1.35762588738808       -1.13795634994998       -0.38551789248197
C            1.82345347915007       -0.50888408404081        0.53171545081059
C           -1.08714375805063        0.78989118913912        1.12442956904707
C           -2.36302304350864        1.40544761791883        0.83645264637758
N           -1.33821102060474        2.65543479162747        2.38410999406889
C           -0.43330511802457        1.64353894202891        2.14875428697990
C           -2.46960444303222        2.50290376779632        1.60477693880816
C           -2.10042967149418       -2.27788024122094       -0.09836829439867
C           -1.26510249027263       -0.69653919731188       -1.70058917649232
C           -2.76364204003021       -2.95222849181255       -1.10804210114038
C           -1.92570632380914       -1.37657642349716       -2.70780783100224
C           -2.67947793147689       -2.50057526923687       -2.41400682889905
C            1.95853884050594        0.68050583306279       -0.17826783236466
C            2.95406249617105       -1.29124428387296        0.76203660787804
C            3.19479437220823        1.06323194948745       -0.66187453091357
C            4.18539362449472       -0.89949453771981        0.27647163928427
C            4.31345531798977        0.27876236456949       -0.44023086329805
H           -1.18723924366567        3.40137659728051        3.04190772883567
O            0.64143489759647        1.53101329246675        2.69598686286237
H           -2.17177598084001       -2.62233728753026        0.92362934239630
H           -0.67980302480276        0.18182750107534       -1.92814922470178
H           -3.34997712858546       -3.82883607672838       -0.87462290095117
H           -1.85397916019473       -1.02489365273543       -3.72636178028985
H           -3.20165869281190       -3.02290971626485       -3.20188079220213
H            1.09504673362373        1.30513150165527       -0.34798401157156
H            2.85899738084493       -2.20986603607713        1.32415681066205
H            3.28452057028765        1.98638622814637       -1.21601270827201
H            5.05242287410253       -1.51674805610247        0.46228572113787
H           -3.07832078959070        1.03113687116852        0.13193019002276
H           -3.27487582093869        3.21000579663330        1.67585148605188
H            5.27733877952325        0.58472908994031       -0.81791296338211
34
 energy: -53.420456069073 gnorm: 0.002577628417 xtb: 6.5.0 (97a52f5)
H            0.55852325776138       -1.92290629515115        1.18969590671885
N            0.60083225119697       -0.91361362876618        1.07553595507100
C           -0.63350860213147       -0.39827995036075        0.67556405882912
C           -1.36281159969204       -1.13566439044552       -0.38628952559757
C            1.81779278716125       -0.50828905372092        0.53064363836719
C           -1.08995139375403        0.79349114863765        1.12490031141086
C           -2.36405367944116        1.41405215162965        0.84088071058446
N           -1.33097034832647        2.65913368509793        2.38693541912865
C           -0.43047100379527        1.64407158274631        2.14860337858209
C           -2.46460574704739        2.51161599028759        1.61005932109373
C           -2.09780067850716       -2.28080786434703       -0.10029792372265
C           -1.27048118618541       -0.69482584750334       -1.70158757966496
C           -2.75364239018328       -2.96079040873134       -1.11100106852395
C           -1.92440348806427       -1.37998187793799       -2.70982343393246
C           -2.67004714945087       -2.50972068201108       -2.41729256027749
C            1.95509159252942        0.68169640138374       -0.17810407360821
C            2.94728942981952       -1.29205683649863        0.76085835910303
C            3.19204634520940        1.06347384827492       -0.66090450128954
C            4.17934729777091       -0.90133369037918        0.27605942401182
C            4.30968912688472        0.27727723851640       -0.43966843402672
H           -1.17405265187216        3.40343254213901        3.04531139660246
O            0.64446436470125        1.52664968547311        2.69449489158149
H           -2.16913581422715       -2.62604588086010        0.92150857905704
H           -0.69123318072758        0.18756354705524       -1.92913140027453
H           -3.33266527025995       -3.84233830587503       -0.87831411621385
H           -1.85317980279973       -1.02805201104490       -3.72830904024592
H           -3.18555458128530       -3.03716990304867       -3.20612756082654
H            1.09273317962235        1.30800130334911       -0.34789114841370
H            2.85250421497233       -2.21135495841144        1.32204971334656
H            3.28276367161429        1.98730438026071       -1.21373154692006
H            5.04542121780800       -1.51993599011913        0.46193478149555
H           -3.08385433140859        1.04440556299444        0.13847388268957
H           -3.26681272389268        3.22192143830782        1.68371776413651
H            5.27413089600035        0.58207306905832       -0.81669357827204
34