
    -----------------------------------------------------------------------
          Psi4: An Open-Source Ab Initio Electronic Structure Package
                               Psi4 1.5 release

                         Git: Rev {HEAD} e9f4d6d 


    D. G. A. Smith, L. A. Burns, A. C. Simmonett, R. M. Parrish,
    M. C. Schieber, R. Galvelis, P. Kraus, H. Kruse, R. Di Remigio,
    A. Alenaizan, A. M. James, S. Lehtola, J. P. Misiewicz, M. Scheurer,
    R. A. Shaw, J. B. Schriber, Y. Xie, Z. L. Glick, D. A. Sirianni,
    J. S. O'Brien, J. M. Waldrop, A. Kumar, E. G. Hohenstein,
    B. P. Pritchard, B. R. Brooks, H. F. Schaefer III, A. Yu. Sokolov,
    K. Patkowski, A. E. DePrince III, U. Bozkaya, R. A. King,
    F. A. Evangelista, J. M. Turney, T. D. Crawford, C. D. Sherrill,
    J. Chem. Phys. 152(18) 184108 (2020). https://doi.org/10.1063/5.0006002

                            Additional Code Authors
    E. T. Seidl, C. L. Janssen, E. F. Valeev, M. L. Leininger,
    J. F. Gonthier, R. M. Richard, H. R. McAlexander, M. Saitow, X. Wang,
    P. Verma, M. H. Lechner, and A. Jiang

             Previous Authors, Complete List of Code Contributors,
                       and Citations for Specific Modules
    https://github.com/psi4/psi4/blob/master/codemeta.json
    https://github.com/psi4/psi4/graphs/contributors
    http://psicode.org/psi4manual/master/introduction.html#citing-psifour

    -----------------------------------------------------------------------


    Psi4 started on: Thursday, 09 June 2022 03:00AM

    Process ID: 1277097
    Host:       node74.bme.utexas.edu
    PSIDATADIR: /home/bdw2292/miniconda3/envs/newamoebamdpoltype/share/psi4
    Memory:     500.0 MiB
    Threads:    1
    
  ==> Input File <==

--------------------------------------------------------------------------
molecule { 
0 1
 C   -0.567700   -0.170627    0.300417
 N    0.639124   -0.869512    0.292128
 C    1.930906   -0.613884   -0.249304
 C    2.942318   -1.593828   -0.036821
 H    0.635867   -1.626997    1.002027
 C    2.294557    0.591018   -0.908751
 C   -1.570834   -0.571001    1.197996
 N   -2.578143   -1.705945    2.897713
 C   -2.938932   -0.121882    1.335316
 C   -1.385505   -1.624076    2.222384
 C   -3.505439   -0.810584    2.362974
 C   -0.834363    0.899431   -0.699373
 C   -1.301559    2.174681   -0.289482
 C   -0.734141    0.620749   -2.087917
 C   -1.618957    3.153329   -1.240334
 C   -1.048267    1.605207   -3.033557
 C   -1.489446    2.877446   -2.616756
 C    4.244176   -1.395827   -0.516541
 C    3.599630    0.776858   -1.387525
 C    4.582771   -0.213621   -1.201655
 H    2.706797   -2.517322    0.498542
 H    1.579150    1.398345   -1.048944
 H   -2.721160   -2.347486    3.663871
 O   -0.364623   -2.322691    2.449219
 H   -1.407211    2.392454    0.775123
 H   -0.409271   -0.368417   -2.416476
 H   -1.966861    4.134214   -0.911864
 H   -0.950392    1.383397   -4.097566
 H   -1.732602    3.642897   -3.355909
 H    4.997333   -2.169024   -0.354786
 H    3.850142    1.703927   -1.906361
 H   -3.436416    0.628777    0.736843
 H   -4.503684   -0.750803    2.773289
 H    5.595893   -0.063860   -1.579030
}
set optking { 
  frozen_dihedral = ("
    1 2 3 4
    2 1 12 13
    7 1 2 3
  ")
}
set {
  geom_maxiter 400
  g_convergence GAU_LOOSE
  dynamic_level 1
}
memory 8.166666666666666GB
set_num_threads(2)
psi4_io.set_default_path("/scratch/bdw2292/Psi4-1_16_Index_0-farH_in17")
for _ in range(1):
  try:
    set opt_coordinates both
    optimize('wb97x-d/6-311G')
    break
  except OptimizationConvergenceError:
    break
  else:
    try:
      set opt_coordinates cartesian
      optimize('wb97x-d/6-311G')
      break
    except OptimizationConvergenceError:
      pass
clean()
--------------------------------------------------------------------------

  Memory set to   7.606 GiB by Python driver.
  Threads set to 2 by Python driver.

Scratch directory: /scratch/bdw2292/Psi4-1_16_Index_0-farH_in17/

Scratch directory: /scratch/bdw2292/Psi4-1_16_Index_0-farH_in17/
gradient() will perform analytic gradient computation.

*** tstart() called on node74.bme.utexas.edu
*** at Thu Jun  9 03:00:22 2022

   => Loading Basis Set <=

    Name: 6-311G
    Role: ORBITAL
    Keyword: BASIS
    atoms 1, 3-4, 6-7, 9-20 entry C          line    92 file /home/bdw2292/miniconda3/envs/newamoebamdpoltype/share/psi4/basis/6-311g.gbs 
    atoms 2, 8              entry N          line   109 file /home/bdw2292/miniconda3/envs/newamoebamdpoltype/share/psi4/basis/6-311g.gbs 
    atoms 5, 21-23, 25-34   entry H          line    21 file /home/bdw2292/miniconda3/envs/newamoebamdpoltype/share/psi4/basis/6-311g.gbs 
    atoms 24                entry O          line   126 file /home/bdw2292/miniconda3/envs/newamoebamdpoltype/share/psi4/basis/6-311g.gbs 

   => WB97X-D: Empirical Dispersion <=

    Chai and Head-Gordon Dispersion Correction
    Chai, J.-D.; Head-Gordon, M. (2010), J. Chem. Phys., 132: 6615-6620

        s6 =       1.000000


         ---------------------------------------------------------
                                   SCF
               by Justin Turney, Rob Parrish, Andy Simmonett
                          and Daniel G. A. Smith
                              RKS Reference
                        2 Threads,   7788 MiB Core
         ---------------------------------------------------------

  ==> Geometry <==

    Molecular point group: c1
    Full point group: C1

    Geometry (in Angstrom), charge = 0, multiplicity = 1:

       Center              X                  Y                   Z               Mass       
    ------------   -----------------  -----------------  -----------------  -----------------
         C           -0.569460073211    -0.167833445719     0.318021941601    12.000000000000
         N            0.637363926789    -0.866718445719     0.309732941601    14.003074004430
         C            1.929145926789    -0.611090445719    -0.231699058399    12.000000000000
         C            2.940557926789    -1.591034445719    -0.019216058399    12.000000000000
         H            0.634106926789    -1.624203445719     1.019631941601     1.007825032230
         C            2.292796926789     0.593811554281    -0.891146058399    12.000000000000
         C           -1.572594073211    -0.568207445719     1.215600941601    12.000000000000
         N           -2.579903073211    -1.703151445719     2.915317941601    14.003074004430
         C           -2.940692073211    -0.119088445719     1.352920941601    12.000000000000
         C           -1.387265073211    -1.621282445719     2.239988941601    12.000000000000
         C           -3.507199073211    -0.807790445719     2.380578941601    12.000000000000
         C           -0.836123073211     0.902224554281    -0.681768058399    12.000000000000
         C           -1.303319073211     2.177474554281    -0.271877058399    12.000000000000
         C           -0.735901073211     0.623542554281    -2.070312058399    12.000000000000
         C           -1.620717073211     3.156122554281    -1.222729058399    12.000000000000
         C           -1.050027073211     1.608000554281    -3.015952058399    12.000000000000
         C           -1.491206073211     2.880239554281    -2.599151058399    12.000000000000
         C            4.242415926789    -1.393033445719    -0.498936058399    12.000000000000
         C            3.597869926789     0.779651554281    -1.369920058399    12.000000000000
         C            4.581010926789    -0.210827445719    -1.184050058399    12.000000000000
         H            2.705036926789    -2.514528445719     0.516146941601     1.007825032230
         H            1.577389926789     1.401138554281    -1.031339058399     1.007825032230
         H           -2.722920073211    -2.344692445719     3.681475941601     1.007825032230
         O           -0.366383073211    -2.319897445719     2.466823941601    15.994914619570
         H           -1.408971073211     2.395247554281     0.792727941601     1.007825032230
         H           -0.411031073211    -0.365623445719    -2.398871058399     1.007825032230
         H           -1.968621073211     4.137007554281    -0.894259058399     1.007825032230
         H           -0.952152073211     1.386190554281    -4.079961058399     1.007825032230
         H           -1.734362073211     3.645690554281    -3.338304058399     1.007825032230
         H            4.995572926789    -2.166230445719    -0.337181058399     1.007825032230
         H            3.848381926789     1.706720554281    -1.888756058399     1.007825032230
         H           -3.438176073211     0.631570554281     0.754447941601     1.007825032230
         H           -4.505444073211    -0.748009445719     2.790893941601     1.007825032230
         H            5.594132926789    -0.061066445719    -1.561425058399     1.007825032230

  Running in c1 symmetry.

  Rotational constants: A =      0.01379  B =      0.00964  C =      0.00600 [cm^-1]
  Rotational constants: A =    413.52403  B =    288.89636  C =    179.97342 [MHz]
  Nuclear repulsion = 1404.795491188225924

  Charge       = 0
  Multiplicity = 1
  Electrons    = 138
  Nalpha       = 69
  Nbeta        = 69

  ==> Algorithm <==

  SCF Algorithm Type is DF.
  DIIS enabled.
  MOM disabled.
  Fractional occupation disabled.
  Guess Type is SAD.
  Energy threshold   = 1.00e-08
  Density threshold  = 1.00e-08
  Integral threshold = 1.00e-12

  ==> Primary Basis <==

  Basis Set: 6-311G
    Blend: 6-311G
    Number of shells: 182
    Number of basis functions: 302
    Number of Cartesian functions: 302
    Spherical Harmonics?: true
    Max angular momentum: 1

  ==> DFT Potential <==

   => LibXC <=

    Version 5.1.5
    S. Lehtola, C. Steigemann, M. J. Oliveira, and M. A. Marques, SoftwareX 7, 1 (2018) (10.1016/j.softx.2017.11.002)

   => Composite Functional: WB97X-D <= 

    wB97X-D Hyb-GGA Exchange-Correlation Functional

    J.-D. Chai and M. Head-Gordon, Phys. Chem. Chem. Phys. 10, 6615 (2008) (10.1039/B810189B)

    Deriv               =              1
    GGA                 =           TRUE
    Meta                =          FALSE

    Exchange Hybrid     =           TRUE
    MP2 Hybrid          =          FALSE

   => Exchange-Correlation Functionals <=

    1.0000   wB97X-D range-separated functional

   => Exact (HF) Exchange <=

    0.7780            HF,LR [omega = 0.2000]
    0.2220               HF 

   => LibXC Density Thresholds  <==

    XC_HYB_GGA_XC_WB97X_D:  1.00E-14 

   => Molecular Quadrature <=

    Radial Scheme          =       TREUTLER
    Pruning Scheme         =           NONE
    Nuclear Scheme         =       TREUTLER

    BS radius alpha        =              1
    Pruning alpha          =              1
    Radial Points          =             75
    Spherical Points       =            302
    Total Points           =         700551
    Total Blocks           =           5007
    Max Points             =            256
    Max Functions          =            216
    Weights Tolerance      =       1.00E-15

   => Loading Basis Set <=

    Name: (6-311G AUX)
    Role: JKFIT
    Keyword: DF_BASIS_SCF
    atoms 1, 3-4, 6-7, 9-20 entry C          line   125 file /home/bdw2292/miniconda3/envs/newamoebamdpoltype/share/psi4/basis/cc-pvtz-jkfit.gbs 
    atoms 2, 8              entry N          line   177 file /home/bdw2292/miniconda3/envs/newamoebamdpoltype/share/psi4/basis/cc-pvtz-jkfit.gbs 
    atoms 5, 21-23, 25-34   entry H          line    51 file /home/bdw2292/miniconda3/envs/newamoebamdpoltype/share/psi4/basis/cc-pvtz-jkfit.gbs 
    atoms 24                entry O          line   229 file /home/bdw2292/miniconda3/envs/newamoebamdpoltype/share/psi4/basis/cc-pvtz-jkfit.gbs 

  ==> Integral Setup <==

  DFHelper Memory: AOs need 3.132 GiB; user supplied 3.132 GiB. Using in-core AOs.

  ==> MemDFJK: Density-Fitted J/K Matrices <==

    J tasked:                   Yes
    K tasked:                   Yes
    wK tasked:                  Yes
    Omega:                2.000E-01
    OpenMP threads:               2
    Memory [MiB]:              3206
    Algorithm:                 Core
    Schwarz Cutoff:           1E-12
    Mask sparsity (%):      24.4046
    Fitting Condition:        1E-10

   => Auxiliary Basis Set <=

  Basis Set: (6-311G AUX)
    Blend: CC-PVTZ-JKFIT
    Number of shells: 640
    Number of basis functions: 2000
    Number of Cartesian functions: 2410
    Spherical Harmonics?: true
    Max angular momentum: 4

  Cached 50.0% of DFT collocation blocks in 1.461 [GiB].

  Minimum eigenvalue in the overlap matrix is 2.6591600257E-04.
  Reciprocal condition number of the overlap matrix is 3.9745399718E-05.
    Using symmetric orthogonalization.

  ==> Pre-Iterations <==

  SCF Guess: Superposition of Atomic Densities via on-the-fly atomic UHF (no occupation information).

   -------------------------
    Irrep   Nso     Nmo    
   -------------------------
     A        302     302 
   -------------------------
    Total     302     302
   -------------------------

  ==> Iterations <==

                           Total Energy        Delta E     RMS |[F,P]|

   @DF-RKS iter SAD:  -839.84117603872676   -8.39841e+02   0.00000e+00 
   @DF-RKS iter   1:  -840.09427141150979   -2.53095e-01   3.51336e-03 DIIS
   @DF-RKS iter   2:  -840.30344910532040   -2.09178e-01   3.03002e-03 DIIS
   @DF-RKS iter   3:  -840.62125459491108   -3.17805e-01   8.33420e-04 DIIS
   @DF-RKS iter   4:  -840.64510850757381   -2.38539e-02   1.89537e-04 DIIS
   @DF-RKS iter   5:  -840.64638750270456   -1.27900e-03   6.45666e-05 DIIS
   @DF-RKS iter   6:  -840.64656564660447   -1.78144e-04   1.24288e-05 DIIS
   @DF-RKS iter   7:  -840.64657364861114   -8.00201e-06   7.76207e-06 DIIS
   @DF-RKS iter   8:  -840.64657688750856   -3.23890e-06   1.60162e-06 DIIS
   @DF-RKS iter   9:  -840.64657726527787   -3.77769e-07   9.28828e-07 DIIS
   @DF-RKS iter  10:  -840.64657735675758   -9.14797e-08   1.93740e-07 DIIS
   @DF-RKS iter  11:  -840.64657736315758   -6.40000e-09   1.01106e-07 DIIS
   @DF-RKS iter  12:  -840.64657736397896   -8.21387e-10   2.50176e-08 DIIS
   @DF-RKS iter  13:  -840.64657736408105   -1.02091e-10   1.45538e-08 DIIS
   @DF-RKS iter  14:  -840.64657736409981   -1.87583e-11   4.14889e-09 DIIS
  Energy and wave function converged.


  ==> Post-Iterations <==

   Electrons on quadrature grid:
      Ntotal   =  137.9999931137 ; deviation = -6.886e-06 

    Orbital Energies [Eh]
    ---------------------

    Doubly Occupied:                                                      

       1A    -19.210294     2A    -14.478694     3A    -14.471261  
       4A    -10.391470     5A    -10.379234     6A    -10.354609  
       7A    -10.328990     8A    -10.322720     9A    -10.314414  
      10A    -10.313754    11A    -10.313285    12A    -10.311788  
      13A    -10.311257    14A    -10.299642    15A    -10.299108  
      16A    -10.298873    17A    -10.297861    18A    -10.296185  
      19A    -10.293105    20A    -10.283978    21A     -1.143320  
      22A     -1.065080    23A     -1.062010    24A     -0.979566  
      25A     -0.957987    26A     -0.911889    27A     -0.875896  
      28A     -0.865839    29A     -0.852684    30A     -0.852525  
      31A     -0.814865    32A     -0.773106    33A     -0.726297  
      34A     -0.723332    35A     -0.710439    36A     -0.697559  
      37A     -0.683756    38A     -0.662718    39A     -0.637031  
      40A     -0.613535    41A     -0.600180    42A     -0.585591  
      43A     -0.581391    44A     -0.563219    45A     -0.555408  
      46A     -0.535598    47A     -0.532222    48A     -0.530049  
      49A     -0.525751    50A     -0.516234    51A     -0.514575  
      52A     -0.511122    53A     -0.498182    54A     -0.490348  
      55A     -0.480978    56A     -0.472965    57A     -0.451036  
      58A     -0.448716    59A     -0.444561    60A     -0.432894  
      61A     -0.429400    62A     -0.408009    63A     -0.366914  
      64A     -0.348354    65A     -0.340902    66A     -0.335530  
      67A     -0.331835    68A     -0.304711    69A     -0.253496  

    Virtual:                                                              

      70A     -0.004229    71A      0.043660    72A      0.049267  
      73A      0.063632    74A      0.083815    75A      0.115852  
      76A      0.126243    77A      0.130283    78A      0.132899  
      79A      0.150389    80A      0.156665    81A      0.161347  
      82A      0.167513    83A      0.176086    84A      0.185776  
      85A      0.187685    86A      0.192572    87A      0.198934  
      88A      0.202345    89A      0.213573    90A      0.218053  
      91A      0.230442    92A      0.241766    93A      0.249051  
      94A      0.281423    95A      0.299913    96A      0.313700  
      97A      0.318378    98A      0.334718    99A      0.338834  
     100A      0.344443   101A      0.348338   102A      0.351150  
     103A      0.356334   104A      0.361434   105A      0.371565  
     106A      0.391479   107A      0.404723   108A      0.405410  
     109A      0.413946   110A      0.423961   111A      0.433551  
     112A      0.440732   113A      0.451275   114A      0.455866  
     115A      0.466477   116A      0.468805   117A      0.476692  
     118A      0.480067   119A      0.481072   120A      0.483915  
     121A      0.488732   122A      0.495851   123A      0.497457  
     124A      0.503364   125A      0.506143   126A      0.509936  
     127A      0.513818   128A      0.530500   129A      0.532092  
     130A      0.536246   131A      0.541214   132A      0.547220  
     133A      0.554893   134A      0.555467   135A      0.568241  
     136A      0.572114   137A      0.587561   138A      0.592352  
     139A      0.605750   140A      0.621794   141A      0.624839  
     142A      0.629478   143A      0.631278   144A      0.648253  
     145A      0.660048   146A      0.665966   147A      0.677157  
     148A      0.684243   149A      0.684837   150A      0.691872  
     151A      0.700872   152A      0.703393   153A      0.705262  
     154A      0.716905   155A      0.720581   156A      0.726232  
     157A      0.730706   158A      0.732249   159A      0.738611  
     160A      0.750782   161A      0.752455   162A      0.762602  
     163A      0.773512   164A      0.776103   165A      0.794900  
     166A      0.811417   167A      0.817053   168A      0.821938  
     169A      0.838210   170A      0.847124   171A      0.849448  
     172A      0.851641   173A      0.862449   174A      0.865629  
     175A      0.872826   176A      0.875278   177A      0.892887  
     178A      0.894925   179A      0.915907   180A      0.930568  
     181A      0.943666   182A      0.949895   183A      0.964365  
     184A      0.979034   185A      0.988716   186A      0.999842  
     187A      1.009584   188A      1.027237   189A      1.041868  
     190A      1.045169   191A      1.051282   192A      1.074151  
     193A      1.102729   194A      1.111353   195A      1.126724  
     196A      1.155772   197A      1.168588   198A      1.189617  
     199A      1.211325   200A      1.235802   201A      1.259112  
     202A      1.329672   203A      1.343360   204A      1.377111  
     205A      1.399452   206A      1.468432   207A      1.588571  
     208A      1.812724   209A      2.299344   210A      2.308377  
     211A      2.323265   212A      2.343312   213A      2.355854  
     214A      2.381031   215A      2.408778   216A      2.425323  
     217A      2.442184   218A      2.462820   219A      2.474567  
     220A      2.513245   221A      2.598211   222A      2.605874  
     223A      2.623600   224A      2.626747   225A      2.641219  
     226A      2.658890   227A      2.666823   228A      2.675860  
     229A      2.693523   230A      2.729046   231A      2.751540  
     232A      2.772644   233A      2.781858   234A      2.797939  
     235A      2.799952   236A      2.816986   237A      2.828227  
     238A      2.831570   239A      2.843659   240A      2.850820  
     241A      2.867186   242A      2.891172   243A      2.899588  
     244A      2.936453   245A      2.948694   246A      2.959310  
     247A      2.970803   248A      2.976345   249A      3.020957  
     250A      3.048296   251A      3.082546   252A      3.088927  
     253A      3.142006   254A      3.142453   255A      3.162874  
     256A      3.173078   257A      3.213222   258A      3.217711  
     259A      3.242420   260A      3.251377   261A      3.272037  
     262A      3.285070   263A      3.307251   264A      3.308705  
     265A      3.322024   266A      3.330618   267A      3.345884  
     268A      3.356903   269A      3.369481   270A      3.392973  
     271A      3.441849   272A      3.509577   273A      3.540572  
     274A      3.811120   275A      3.874874   276A      4.112937  
     277A      4.231801   278A      4.290300   279A      4.314375  
     280A      4.986129   281A      5.106496   282A      5.187779  
     283A     23.243029   284A     23.262967   285A     23.355705  
     286A     23.465606   287A     23.473215   288A     23.478690  
     289A     23.500672   290A     23.530724   291A     23.575595  
     292A     23.708878   293A     23.711676   294A     23.750361  
     295A     23.759494   296A     23.771033   297A     23.866590  
     298A     23.975662   299A     23.984149   300A     35.524216  
     301A     35.591586   302A     50.082001  

    Final Occupation by Irrep:
              A 
    DOCC [    69 ]

  @DF-RKS Final Energy:  -840.64657736409981

   => Energetics <=

    Nuclear Repulsion Energy =           1404.7954911882259239
    One-Electron Energy =               -3927.6598858688093969
    Two-Electron Energy =                1764.7624611555115735
    DFT Exchange-Correlation Energy =     -82.5208904739131128
    Empirical Dispersion Energy =          -0.0237533651150166
    VV10 Nonlocal Energy =                  0.0000000000000000
    Total Energy =                       -840.6465773640998123

Computation Completed


Properties will be evaluated at   0.000000,   0.000000,   0.000000 [a0]

Properties computed using the SCF density matrix

  Nuclear Dipole Moment: [e a0]
     X:     2.0784      Y:     5.1329      Z:    -5.5987

  Electronic Dipole Moment: [e a0]
     X:    -2.7437      Y:    -4.2091      Z:     4.9793

  Dipole Moment: [e a0]
     X:    -0.6652      Y:     0.9238      Z:    -0.6194     Total:     1.2960

  Dipole Moment: [D]
     X:    -1.6908      Y:     2.3481      Z:    -1.5743     Total:     3.2941


*** tstop() called on node74.bme.utexas.edu at Thu Jun  9 03:02:37 2022
Module time:
	user time   =     260.60 seconds =       4.34 minutes
	system time =       5.32 seconds =       0.09 minutes
	total time  =        135 seconds =       2.25 minutes
Total time:
	user time   =     260.60 seconds =       4.34 minutes
	system time =       5.32 seconds =       0.09 minutes
	total time  =        135 seconds =       2.25 minutes

*** tstart() called on node74.bme.utexas.edu
*** at Thu Jun  9 03:02:37 2022


         ------------------------------------------------------------
                                   SCF GRAD                          
                          Rob Parrish, Justin Turney,                
                       Andy Simmonett, and Alex Sokolov              
         ------------------------------------------------------------

  ==> Geometry <==

    Molecular point group: c1
    Full point group: C1

    Geometry (in Angstrom), charge = 0, multiplicity = 1:

       Center              X                  Y                   Z               Mass       
    ------------   -----------------  -----------------  -----------------  -----------------
         C           -0.569460073211    -0.167833445719     0.318021941601    12.000000000000
         N            0.637363926789    -0.866718445719     0.309732941601    14.003074004430
         C            1.929145926789    -0.611090445719    -0.231699058399    12.000000000000
         C            2.940557926789    -1.591034445719    -0.019216058399    12.000000000000
         H            0.634106926789    -1.624203445719     1.019631941601     1.007825032230
         C            2.292796926789     0.593811554281    -0.891146058399    12.000000000000
         C           -1.572594073211    -0.568207445719     1.215600941601    12.000000000000
         N           -2.579903073211    -1.703151445719     2.915317941601    14.003074004430
         C           -2.940692073211    -0.119088445719     1.352920941601    12.000000000000
         C           -1.387265073211    -1.621282445719     2.239988941601    12.000000000000
         C           -3.507199073211    -0.807790445719     2.380578941601    12.000000000000
         C           -0.836123073211     0.902224554281    -0.681768058399    12.000000000000
         C           -1.303319073211     2.177474554281    -0.271877058399    12.000000000000
         C           -0.735901073211     0.623542554281    -2.070312058399    12.000000000000
         C           -1.620717073211     3.156122554281    -1.222729058399    12.000000000000
         C           -1.050027073211     1.608000554281    -3.015952058399    12.000000000000
         C           -1.491206073211     2.880239554281    -2.599151058399    12.000000000000
         C            4.242415926789    -1.393033445719    -0.498936058399    12.000000000000
         C            3.597869926789     0.779651554281    -1.369920058399    12.000000000000
         C            4.581010926789    -0.210827445719    -1.184050058399    12.000000000000
         H            2.705036926789    -2.514528445719     0.516146941601     1.007825032230
         H            1.577389926789     1.401138554281    -1.031339058399     1.007825032230
         H           -2.722920073211    -2.344692445719     3.681475941601     1.007825032230
         O           -0.366383073211    -2.319897445719     2.466823941601    15.994914619570
         H           -1.408971073211     2.395247554281     0.792727941601     1.007825032230
         H           -0.411031073211    -0.365623445719    -2.398871058399     1.007825032230
         H           -1.968621073211     4.137007554281    -0.894259058399     1.007825032230
         H           -0.952152073211     1.386190554281    -4.079961058399     1.007825032230
         H           -1.734362073211     3.645690554281    -3.338304058399     1.007825032230
         H            4.995572926789    -2.166230445719    -0.337181058399     1.007825032230
         H            3.848381926789     1.706720554281    -1.888756058399     1.007825032230
         H           -3.438176073211     0.631570554281     0.754447941601     1.007825032230
         H           -4.505444073211    -0.748009445719     2.790893941601     1.007825032230
         H            5.594132926789    -0.061066445719    -1.561425058399     1.007825032230

  Nuclear repulsion = 1404.795491188225924

  ==> Basis Set <==

  Basis Set: 6-311G
    Blend: 6-311G
    Number of shells: 182
    Number of basis functions: 302
    Number of Cartesian functions: 302
    Spherical Harmonics?: true
    Max angular momentum: 1

  ==> DFJKGrad: Density-Fitted SCF Gradients <==

    Gradient:                    1
    J tasked:                  Yes
    K tasked:                  Yes
    wK tasked:                 Yes
    Omega:               2.000E-01
    OpenMP threads:              2
    Integrals threads:           2
    Memory [MiB]:             5841
    Schwarz Cutoff:          1E-12
    Fitting Condition:       1E-10

   => Auxiliary Basis Set <=

  Basis Set: (6-311G AUX)
    Blend: CC-PVTZ-JKFIT
    Number of shells: 640
    Number of basis functions: 2000
    Number of Cartesian functions: 2410
    Spherical Harmonics?: true
    Max angular momentum: 4

  ==> DFT Potential <==

   => LibXC <=

    Version 5.1.5
    S. Lehtola, C. Steigemann, M. J. Oliveira, and M. A. Marques, SoftwareX 7, 1 (2018) (10.1016/j.softx.2017.11.002)

   => Composite Functional: WB97X-D <= 

    wB97X-D Hyb-GGA Exchange-Correlation Functional

    J.-D. Chai and M. Head-Gordon, Phys. Chem. Chem. Phys. 10, 6615 (2008) (10.1039/B810189B)

    Deriv               =              1
    GGA                 =           TRUE
    Meta                =          FALSE

    Exchange Hybrid     =           TRUE
    MP2 Hybrid          =          FALSE

   => Exchange-Correlation Functionals <=

    1.0000   wB97X-D range-separated functional

   => Exact (HF) Exchange <=

    0.7780            HF,LR [omega = 0.2000]
    0.2220               HF 

   => LibXC Density Thresholds  <==

    XC_HYB_GGA_XC_WB97X_D:  1.00E-14 

   => Molecular Quadrature <=

    Radial Scheme          =       TREUTLER
    Pruning Scheme         =           NONE
    Nuclear Scheme         =       TREUTLER

    BS radius alpha        =              1
    Pruning alpha          =              1
    Radial Points          =             75
    Spherical Points       =            302
    Total Points           =         700551
    Total Blocks           =           5007
    Max Points             =            256
    Max Functions          =            216
    Weights Tolerance      =       1.00E-15


  -Total Gradient:
     Atom            X                  Y                   Z
    ------   -----------------  -----------------  -----------------
       1       -0.004407630537     0.015204285310    -0.006501673458
       2        0.008559531164     0.002660136586    -0.015002859393
       3       -0.008218321293    -0.011074394154     0.001887354527
       4        0.005815218361    -0.004285516701     0.004180486575
       5        0.001617492232    -0.006853290050     0.008309409460
       6       -0.000092077137     0.004339814523    -0.001383047246
       7       -0.020441507426     0.001365531675     0.007171297478
       8       -0.003579567286     0.007642457268    -0.007128880822
       9        0.011254164891    -0.003516015230    -0.004235559008
      10       -0.004119798177    -0.008535940054     0.010241319807
      11        0.007048429838    -0.007988892887     0.005627723575
      12        0.009697306887    -0.007936853300     0.010458693351
      13       -0.004598024945     0.007743632937     0.003208856793
      14        0.000281693004    -0.003852881323    -0.007257171911
      15       -0.001515739649     0.002534796871     0.007334406772
      16        0.001350202674    -0.004168443257    -0.004480343046
      17       -0.002047485336     0.005378711525    -0.006636710482
      18        0.003656061687    -0.006320376489     0.002055276157
      19       -0.002404810996     0.009063762269    -0.003223254855
      20        0.005866749706     0.000104666398    -0.001256172099
      21        0.000631701309    -0.006499922929     0.003412356825
      22       -0.002992550793     0.006707347443    -0.001875895598
      23        0.000137830401    -0.004895714765     0.005795204305
      24       -0.005787887310     0.003143176093     0.000000343553
      25       -0.001476628994     0.002195310510     0.006569310031
      26        0.001155842585    -0.006253494440    -0.002877395047
      27       -0.002123073030     0.006106508571     0.002001816545
      28        0.001183501144    -0.001198532270    -0.006621637491
      29       -0.001468897820     0.004891943089    -0.004816452265
      30        0.004868893117    -0.004816104656     0.000576314872
      31        0.001793298880     0.005461832354    -0.003760874871
      32       -0.002483318845     0.002962823887    -0.001667797900
      33       -0.003529082147    -0.000349695736     0.002581137461
      34        0.006532868406     0.001071229376    -0.002587508666


*** tstop() called on node74.bme.utexas.edu at Thu Jun  9 03:03:38 2022
Module time:
	user time   =     115.61 seconds =       1.93 minutes
	system time =       1.68 seconds =       0.03 minutes
	total time  =         61 seconds =       1.02 minutes
Total time:
	user time   =     376.21 seconds =       6.27 minutes
	system time =       7.00 seconds =       0.12 minutes
	total time  =        196 seconds =       3.27 minutes

			-----------------------------------------
			 OPTKING 2.0: for geometry optimizations 
			  - R.A. King,  Bethel University        
			-----------------------------------------
	At level 1: Red. Int., RFO, no backsteps, dynamic trust

	Internal coordinates to be generated automatically.
	Detected frag 1 with atoms:  1 2 3 4 5 6 7 8 9 10 11 12 13 14 15 16 17 18 19 20
	 21 22 23 24 25 26 27 28 29 30 31 32 33 34
	---Fragment 1 Bond Connectivity---
	 1 : 2 7 12
	 2 : 1 3 5
	 3 : 2 4 6
	 4 : 3 18 21
	 5 : 2
	 6 : 3 19 22
	 7 : 1 9 10
	 8 : 10 11 23
	 9 : 7 11 32
	 10 : 7 8 24
	 11 : 8 9 33
	 12 : 1 13 14
	 13 : 12 15 25
	 14 : 12 16 26
	 15 : 13 17 27
	 16 : 14 17 28
	 17 : 15 16 29
	 18 : 4 20 30
	 19 : 6 20 31
	 20 : 18 19 34
	 21 : 4
	 22 : 6
	 23 : 8
	 24 : 10
	 25 : 13
	 26 : 14
	 27 : 15
	 28 : 16
	 29 : 17
	 30 : 18
	 31 : 19
	 32 : 9
	 33 : 11
	 34 : 20

	Assuming in current code that numbering for constraints corresponds to unified fragment.
	Frozen dihedral atom list: 
	     1     2     3     4
	     2     1    12    13
	     7     1     2     3
	---Fragment 1 Geometry and Gradient---
	 C          -1.0761235778       -0.3171592471        0.6009743715
	 N           1.2044432639       -1.6378604903        0.5853104317
	 C           3.6455574577       -1.1547935803       -0.4378477639
	 C           5.5568491377       -3.0066193586       -0.0363130876
	 H           1.1982884259       -3.0692996844        1.9268251184
	 C           4.3327582529        1.1221412077       -1.6840219882
	 C          -2.9717721049       -1.0737564549        2.2971528575
	 N          -4.8753102386       -3.2184897826        5.5091524783
	 C          -5.5571026377       -0.2250445471        2.5566500490
	 C          -2.6215510518       -3.0637797944        4.2329656237
	 C          -6.6276457158       -1.5265027092        4.4986422197
	 C          -1.5800436155        1.7049573113       -1.2883549115
	 C          -2.4629161025        4.1148305527       -0.5137731802
	 C          -1.3906514838        1.1783246552       -3.9123227846
	 C          -3.0627113952        5.9642072460       -2.3106230460
	 C          -1.9842635927        3.0386806572       -5.6993233979
	 C          -2.8179710750        5.4428639333       -4.9116836591
	 C           8.0170042119       -2.6324516960       -0.9428525045
	 C           6.7989887967        1.4733279109       -2.5887737241
	 C           8.6568560294       -0.3984061321       -2.2375303292
	 H           5.1117789509       -4.7517700971        0.9753763601
	 H           2.9808349547        2.6477681314       -1.9489483629
	 H          -5.1455731999       -4.4308265708        6.9569812671
	 O          -0.6923636654       -4.3839708116        4.6616216493
	 H          -2.6625694471        4.5263618803        1.4980387016
	 H          -0.7767361574       -0.6909281775       -4.5332093107
	 H          -3.7201546732        7.8178112565       -1.6899047056
	 H          -1.7993066482        2.6195205053       -7.7100090029
	 H          -3.2774693208        6.8893566858       -6.3084803939
	 H           9.4402646714       -4.0935822670       -0.6371798551
	 H           7.2723878678        3.2252344203       -3.5692316682
	 H          -6.4972111495        1.1934953765        1.4256999855
	 H          -8.5140553719       -1.4135329917        5.2740251948
	 H          10.5713791410       -0.1153988579       -2.9506657258
	            -0.0044076305        0.0152042853       -0.0065016735
	             0.0085595312        0.0026601366       -0.0150028594
	            -0.0082183213       -0.0110743942        0.0018873545
	             0.0058152184       -0.0042855167        0.0041804866
	             0.0016174922       -0.0068532901        0.0083094095
	            -0.0000920771        0.0043398145       -0.0013830472
	            -0.0204415074        0.0013655317        0.0071712975
	            -0.0035795673        0.0076424573       -0.0071288808
	             0.0112541649       -0.0035160152       -0.0042355590
	            -0.0041197982       -0.0085359401        0.0102413198
	             0.0070484298       -0.0079888929        0.0056277236
	             0.0096973069       -0.0079368533        0.0104586934
	            -0.0045980249        0.0077436329        0.0032088568
	             0.0002816930       -0.0038528813       -0.0072571719
	            -0.0015157396        0.0025347969        0.0073344068
	             0.0013502027       -0.0041684433       -0.0044803430
	            -0.0020474853        0.0053787115       -0.0066367105
	             0.0036560617       -0.0063203765        0.0020552762
	            -0.0024048110        0.0090637623       -0.0032232549
	             0.0058667497        0.0001046664       -0.0012561721
	             0.0006317013       -0.0064999229        0.0034123568
	            -0.0029925508        0.0067073474       -0.0018758956
	             0.0001378304       -0.0048957148        0.0057952043
	            -0.0057878873        0.0031431761        0.0000003436
	            -0.0014766290        0.0021953105        0.0065693100
	             0.0011558426       -0.0062534944       -0.0028773950
	            -0.0021230730        0.0061065086        0.0020018165
	             0.0011835011       -0.0011985323       -0.0066216375
	            -0.0014688978        0.0048919431       -0.0048164523
	             0.0048688931       -0.0048161047        0.0005763149
	             0.0017932989        0.0054618324       -0.0037608749
	            -0.0024833188        0.0029628239       -0.0016677979
	            -0.0035290821       -0.0003496957        0.0025811375
	             0.0065328684        0.0010712294       -0.0025875087

	Previous optimization step data not found.  Starting new optimization.

	---Fragment 1 Intrafragment Coordinates---
	 - Coordinate -           - BOHR/RAD -       - ANG/DEG -
	 H(5,24)          =         3.575198	       1.891913
	 R(1,2)           =         2.635428	       1.394609
	 R(1,7)           =         2.653855	       1.404359
	 R(1,12)          =         2.812909	       1.488527
	 R(2,3)           =         2.690584	       1.423796
	 R(2,5)           =         1.961815	       1.038148
	 R(3,4)           =         2.691380	       1.424217
	 R(3,6)           =         2.685075	       1.420880
	 R(4,18)          =         2.648429	       1.401488
	 R(4,21)          =         2.065709	       1.093126
	 R(6,19)          =         2.650321	       1.402489
	 R(6,22)          =         2.055583	       1.087767
	 R(7,9)           =         2.733420	       1.446464
	 R(7,10)          =         2.798253	       1.480772
	 R(8,10)          =         2.594613	       1.373010
	 R(8,11)          =         2.637163	       1.395527
	 R(8,23)          =         1.907619	       1.009469
	 R(9,11)          =         2.571223	       1.360633
	 R(9,32)          =         2.043308	       1.081272
	 R(10,24)         =         2.376639	       1.257663
	 R(11,33)         =         2.042675	       1.080937
	 R(12,13)         =         2.680845	       1.418642
	 R(12,14)         =         2.682987	       1.419776
	 R(13,15)         =         2.647379	       1.400933
	 R(13,25)         =         2.063155	       1.091774
	 R(14,16)         =         2.647012	       1.400738
	 R(14,26)         =         2.063128	       1.091760
	 R(15,17)         =         2.664059	       1.409760
	 R(15,27)         =         2.062370	       1.091359
	 R(16,17)         =         2.663746	       1.409594
	 R(16,28)         =         2.062222	       1.091281
	 R(17,29)         =         2.062649	       1.091507
	 R(18,20)         =         2.660181	       1.407707
	 R(18,30)         =         2.062525	       1.091441
	 R(19,20)         =         2.660532	       1.407893
	 R(19,31)         =         2.062664	       1.091515
	 R(20,34)         =         2.062536	       1.091447
	 B(1,2,3)         =         2.342562	     134.218891
	 B(1,2,5)         =         1.937857	     111.031003
	 B(1,7,9)         =         2.275434	     130.372754
	 B(1,7,10)        =         2.159761	     123.745201
	 B(1,12,13)       =         2.107308	     120.739875
	 B(1,12,14)       =         2.098023	     120.207888
	 B(2,1,7)         =         2.070366	     118.623250
	 B(2,1,12)        =         2.107471	     120.749218
	 B(2,3,4)         =         2.053347	     117.648110
	 B(2,3,6)         =         2.166320	     124.120966
	 B(3,2,5)         =         1.975649	     113.196375
	 B(3,4,18)        =         2.107601	     120.756667
	 B(3,4,21)        =         2.095950	     120.089062
	 B(3,6,19)        =         2.104770	     120.594449
	 B(3,6,22)        =         2.118659	     121.390241
	 B(4,3,6)         =         2.061176	     118.096708
	 B(4,18,20)       =         2.104433	     120.575146
	 B(4,18,30)       =         2.083102	     119.352954
	 B(6,19,20)       =         2.107741	     120.764659
	 B(6,19,31)       =         2.081027	     119.234059
	 B(7,1,12)        =         2.101647	     120.415523
	 B(7,9,11)        =         1.884244	     107.959226
	 B(7,9,32)        =         2.212020	     126.739384
	 B(7,10,8)        =         1.848300	     105.899772
	 B(7,10,24)       =         2.241338	     128.419200
	 B(8,10,24)       =         2.193529	     125.679960
	 B(8,11,9)        =         1.915057	     109.724673
	 B(8,11,33)       =         2.098644	     120.243465
	 B(9,7,10)        =         1.847841	     105.873492
	 B(9,11,33)       =         2.269478	     130.031515
	 B(10,8,11)       =         1.928856	     110.515280
	 B(10,8,23)       =         2.134436	     122.294154
	 B(11,8,23)       =         2.219848	     127.187902
	 B(11,9,32)       =         2.186919	     125.301213
	 B(12,13,15)      =         2.101878	     120.428732
	 B(12,13,25)      =         2.086235	     119.532451
	 B(12,14,16)      =         2.101880	     120.428837
	 B(12,14,26)      =         2.086526	     119.549150
	 B(13,12,14)      =         2.074040	     118.833717
	 B(13,15,17)      =         2.100360	     120.341792
	 B(13,15,27)      =         2.089552	     119.722505
	 B(14,16,17)      =         2.100061	     120.324621
	 B(14,16,28)      =         2.088936	     119.687231
	 B(15,13,25)      =         2.095055	     120.037798
	 B(15,17,16)      =         2.087567	     119.608799
	 B(15,17,29)      =         2.098406	     120.229820
	 B(16,14,26)      =         2.094779	     120.022007
	 B(16,17,29)      =         2.097206	     120.161025
	 B(17,15,27)      =         2.093272	     119.935653
	 B(17,16,28)      =         2.094188	     119.988146
	 B(18,4,21)       =         2.079602	     119.152418
	 B(18,20,19)      =         2.079575	     119.150876
	 B(18,20,34)      =         2.102238	     120.449391
	 B(19,6,22)       =         2.059701	     118.012182
	 B(19,20,34)      =         2.101355	     120.398790
	 B(20,18,30)      =         2.095650	     120.071891
	 B(20,19,31)      =         2.094412	     120.000947
	*D(1,2,3,4)       =         3.134671	     179.603425
	 D(1,2,3,6)       =         0.068145	       3.904404
	 D(1,7,9,11)      =        -3.133839	    -179.555758
	 D(1,7,9,32)      =         0.005184	       0.297013
	 D(1,7,10,8)      =         3.129502	     179.307230
	 D(1,7,10,24)     =        -0.018430	      -1.055987
	 D(1,12,13,15)    =        -3.081439	    -176.553449
	 D(1,12,13,25)    =         0.066561	       3.813653
	 D(1,12,14,16)    =         3.086152	     176.823463
	 D(1,12,14,26)    =        -0.055960	      -3.206275
	 D(2,1,7,9)       =        -3.026601	    -173.411472
	 D(2,1,7,10)      =         0.093701	       5.368652
	*D(2,1,12,13)     =        -2.270767	    -130.105345
	 D(2,1,12,14)     =         0.965659	      55.328198
	 D(2,3,4,18)      =        -3.117785	    -178.635926
	 D(2,3,4,21)      =         0.032525	       1.863549
	 D(2,3,6,19)      =         3.115663	     178.514315
	 D(2,3,6,22)      =        -0.014477	      -0.829469
	*D(3,2,1,7)       =        -2.883230	    -165.196929
	 D(3,2,1,12)      =         0.350323	      20.072004
	 D(3,4,18,20)     =         0.016509	       0.945891
	 D(3,4,18,30)     =        -3.124487	    -179.019904
	 D(3,6,19,20)     =        -0.022360	      -1.281145
	 D(3,6,19,31)     =         3.122904	     178.929197
	 D(4,3,2,5)       =         0.270439	      15.495030
	 D(4,3,6,19)      =         0.049448	       2.833175
	 D(4,3,6,22)      =        -3.080691	    -176.510610
	 D(4,18,20,19)    =         0.011846	       0.678717
	 D(4,18,20,34)    =        -3.135887	    -179.673092
	 D(5,2,1,7)       =        -0.014662	      -0.840069
	 D(5,2,1,12)      =        -3.064294	    -175.571136
	 D(5,2,3,6)       =        -2.796087	    -160.203990
	 D(6,3,4,18)      =        -0.046630	      -2.671716
	 D(6,3,4,21)      =         3.103680	     177.827759
	 D(6,19,20,18)    =        -0.008953	      -0.512974
	 D(6,19,20,34)    =         3.138777	     179.838652
	 D(7,1,12,13)     =         0.964434	      55.258026
	 D(7,1,12,14)     =        -2.082325	    -119.308431
	 D(7,9,11,8)      =        -0.013661	      -0.782698
	 D(7,9,11,33)     =         3.131744	     179.435739
	 D(7,10,8,11)     =         0.021705	       1.243580
	 D(7,10,8,23)     =        -3.129560	    -179.310608
	 D(8,10,7,9)      =        -0.028954	      -1.658945
	 D(8,11,9,32)     =         3.130455	     179.361868
	 D(9,7,1,12)      =         0.023348	       1.337750
	 D(9,7,10,24)     =         3.106299	     177.977839
	 D(9,11,8,10)     =        -0.005594	      -0.320530
	 D(9,11,8,23)     =        -3.136924	    -179.732492
	 D(10,7,1,12)     =        -3.139535	    -179.882126
	 D(10,7,9,11)     =         0.026159	       1.498782
	 D(10,7,9,32)     =        -3.118004	    -178.648448
	 D(10,8,11,33)    =         3.132619	     179.485865
	 D(11,8,10,24)    =        -3.113774	    -178.406083
	 D(12,13,15,17)   =         0.010389	       0.595247
	 D(12,13,15,27)   =        -3.129791	    -179.323788
	 D(12,14,16,17)   =        -0.018792	      -1.076722
	 D(12,14,16,28)   =         3.123151	     178.943359
	 D(13,12,14,16)   =         0.037598	       2.154202
	 D(13,12,14,26)   =        -3.104514	    -177.875536
	 D(13,15,17,16)   =         0.008998	       0.515534
	 D(13,15,17,29)   =        -3.136378	    -179.701230
	 D(14,12,13,15)   =        -0.033396	      -1.913478
	 D(14,12,13,25)   =         3.114603	     178.453625
	 D(14,16,17,15)   =        -0.004788	      -0.274351
	 D(14,16,17,29)   =         3.140585	     179.942262
	 D(15,17,16,28)   =         3.136453	     179.705508
	 D(16,17,15,27)   =        -3.134011	    -179.565604
	 D(17,15,13,25)   =        -3.137643	    -179.773714
	 D(17,16,14,26)   =         3.123322	     178.953157
	 D(18,20,19,31)   =         3.128940	     179.275077
	 D(19,20,18,30)   =        -3.130348	    -179.355734
	 D(20,18,4,21)    =        -3.133721	    -179.548963
	 D(20,19,6,22)    =         3.108158	     178.084350
	 D(21,4,18,30)    =         0.008469	       0.485242
	 D(22,6,19,31)    =        -0.029763	      -1.705307
	 D(23,8,10,24)    =         0.018147	       1.039729
	 D(23,8,11,33)    =         0.001290	       0.073902
	 D(25,13,15,27)   =         0.005363	       0.307252
	 D(26,14,16,28)   =        -0.017920	      -1.026763
	 D(27,15,17,29)   =         0.003798	       0.217632
	 D(28,16,17,29)   =        -0.001359	      -0.077879
	 D(30,18,20,34)   =         0.005104	       0.292457
	 D(31,19,20,34)   =        -0.006515	      -0.373297
	 D(32,9,11,33)    =        -0.007325	      -0.419695
	 R(2,24)          =         5.268331	       2.787881
	 R(3,14)          =         6.548192	       3.465154
	 R(6,12)          =         5.954616	       3.151047
	 R(6,14)          =         6.142141	       3.250281
	 R(9,13)          =         6.151098	       3.255021

	Current energy   :      -840.6465773641

	Generating empirical Hessian (Schlegel '84) for each fragment.
	Taking RFO optimization step.
	Going to follow RFO solution 1.
	Using RFO vector 1.
	Norm of target step-size    0.25800
	Projected energy change by RFO approximation:        -0.0153023543

	Back-transformation to cartesian coordinates...
	Could not converge backtransformation.
	Using first guess instead.

	Back-transformation to cartesian coordinates to adjust frozen coordinates...
	Successfully converged to displaced geometry.

	--- Internal Coordinate Step in ANG or DEG, aJ/ANG or AJ/DEG ---
	 ---------------------------------------------------------------------------
	   Coordinate                Previous        Force       Change         New 
	   ----------                --------       ------       ------       ------
	    1 H(5,24)         =      1.891913    -0.029849    -0.021210     1.870703
	    2 R(1,2)          =      1.394609    -0.156148    -0.026497     1.368112
	    3 R(1,7)          =      1.404359    -0.142666    -0.028593     1.375766
	    4 R(1,12)         =      1.488527     0.032867    -0.004870     1.483657
	    5 R(2,3)          =      1.423796    -0.075937    -0.014161     1.409635
	    6 R(2,5)          =      1.038148    -0.111629    -0.013980     1.024167
	    7 R(3,4)          =      1.424217    -0.167675    -0.024542     1.399675
	    8 R(3,6)          =      1.420880    -0.142507    -0.020938     1.399943
	    9 R(4,18)         =      1.401488    -0.098861    -0.013509     1.387980
	   10 R(4,21)         =      1.093126    -0.057910    -0.009590     1.083536
	   11 R(6,19)         =      1.402489    -0.084617    -0.011378     1.391112
	   12 R(6,22)         =      1.087767    -0.059226    -0.010212     1.077555
	   13 R(7,9)          =      1.446464     0.075803     0.008348     1.454812
	   14 R(7,10)         =      1.480772    -0.023128    -0.010691     1.470080
	   15 R(8,10)         =      1.373010     0.026697     0.004042     1.377052
	   16 R(8,11)         =      1.395527     0.048502     0.008695     1.404222
	   17 R(8,23)         =      1.009469    -0.061711    -0.008088     1.001380
	   18 R(9,11)         =      1.360633    -0.085196    -0.008932     1.351701
	   19 R(9,32)         =      1.081272    -0.033979    -0.005842     1.075430
	   20 R(10,24)        =      1.257663     0.055162     0.004310     1.261973
	   21 R(11,33)        =      1.080937    -0.034788    -0.005738     1.075199
	   22 R(12,13)        =      1.418642    -0.129213    -0.021362     1.397280
	   23 R(12,14)        =      1.419776    -0.120918    -0.020045     1.399731
	   24 R(13,15)        =      1.400933    -0.072997    -0.009922     1.391011
	   25 R(13,25)        =      1.091774    -0.057576    -0.009618     1.082157
	   26 R(14,16)        =      1.400738    -0.087638    -0.011815     1.388924
	   27 R(14,26)        =      1.091760    -0.056616    -0.009987     1.081774
	   28 R(15,17)        =      1.409760    -0.133259    -0.017353     1.392407
	   29 R(15,27)        =      1.091359    -0.055789    -0.009722     1.081638
	   30 R(16,17)        =      1.409594    -0.122109    -0.016232     1.393362
	   31 R(16,28)        =      1.091281    -0.056057    -0.009418     1.081863
	   32 R(17,29)        =      1.091507    -0.057849    -0.010199     1.081308
	   33 R(18,20)        =      1.407707    -0.112073    -0.015241     1.392466
	   34 R(18,30)        =      1.091441    -0.056483    -0.009819     1.081622
	   35 R(19,20)        =      1.407893    -0.117924    -0.016117     1.391776
	   36 R(19,31)        =      1.091515    -0.056314    -0.009463     1.082052
	   37 R(20,34)        =      1.091447    -0.058508    -0.010286     1.081161
	   38 B(1,2,3)        =    134.218891     0.000066    -1.239419   132.979472
	   39 B(1,2,5)        =    111.031003     0.000044     0.742323   111.773326
	   40 B(1,7,9)        =    130.372754    -0.000149    -0.569906   129.802848
	   41 B(1,7,10)       =    123.745201     0.000119    -0.302450   123.442751
	   42 B(1,12,13)      =    120.739875     0.000109    -0.186103   120.553772
	   43 B(1,12,14)      =    120.207888     0.000057    -0.017409   120.190480
	   44 B(2,1,7)        =    118.623250    -0.000401    -0.534906   118.088344
	   45 B(2,1,12)       =    120.749218     0.000241     0.466877   121.216095
	   46 B(2,3,4)        =    117.648110    -0.000636    -1.909530   115.738580
	   47 B(2,3,6)        =    124.120966     0.000355     1.124605   125.245572
	   48 B(3,2,5)        =    113.196375    -0.000103     0.719563   113.915937
	   49 B(3,4,18)       =    120.756667    -0.000044    -0.184231   120.572436
	   50 B(3,4,21)       =    120.089062    -0.000151    -0.651008   119.438053
	   51 B(3,6,19)       =    120.594449    -0.000197    -0.587621   120.006828
	   52 B(3,6,22)       =    121.390241    -0.000089    -0.515904   120.874337
	   53 B(4,3,6)        =    118.096708     0.000284     0.769357   118.866065
	   54 B(4,18,20)      =    120.575146    -0.000006    -0.009333   120.565813
	   55 B(4,18,30)      =    119.352954    -0.000022    -0.112367   119.240587
	   56 B(6,19,20)      =    120.764659     0.000050     0.227704   120.992363
	   57 B(6,19,31)      =    119.234059    -0.000055    -0.259007   118.975052
	   58 B(7,1,12)       =    120.415523     0.000146    -0.219577   120.195946
	   59 B(7,9,11)       =    107.959226     0.000155    -0.188297   107.770929
	   60 B(7,9,32)       =    126.739384    -0.000140    -0.181495   126.557889
	   61 B(7,10,8)       =    105.899772    -0.000249    -0.849991   105.049781
	   62 B(7,10,24)      =    128.419200     0.000698     1.143160   129.562360
	   63 B(8,10,24)      =    125.679960    -0.000449    -0.302368   125.377593
	   64 B(8,11,9)       =    109.724673    -0.000149    -0.441806   109.282867
	   65 B(8,11,33)      =    120.243465     0.000164     0.596554   120.840019
	   66 B(9,7,10)       =    105.873492     0.000029     0.871748   106.745240
	   67 B(9,11,33)      =    130.031515    -0.000015    -0.155685   129.875830
	   68 B(10,8,11)      =    110.515280     0.000214     0.627873   111.143154
	   69 B(10,8,23)      =    122.294154    -0.000023     0.060029   122.354183
	   70 B(11,8,23)      =    127.187902    -0.000191    -0.692720   126.495182
	   71 B(11,9,32)      =    125.301213    -0.000015     0.363098   125.664311
	   72 B(12,13,15)     =    120.428732     0.000111    -0.053506   120.375225
	   73 B(12,13,25)     =    119.532451    -0.000138    -0.327181   119.205270
	   74 B(12,14,16)     =    120.428837     0.000114    -0.036712   120.392125
	   75 B(12,14,26)     =    119.549150    -0.000123    -0.269703   119.279447
	   76 B(13,12,14)     =    118.833717    -0.000165     0.284185   119.117902
	   77 B(13,15,17)     =    120.341792    -0.000032    -0.150163   120.191629
	   78 B(13,15,27)     =    119.722505     0.000013     0.045343   119.767849
	   79 B(14,16,17)     =    120.324621    -0.000015    -0.130393   120.194227
	   80 B(14,16,28)     =    119.687231     0.000008     0.065606   119.752837
	   81 B(15,13,25)     =    120.037798     0.000027     0.375035   120.412832
	   82 B(15,17,16)     =    119.608799    -0.000012     0.103492   119.712291
	   83 B(15,17,29)     =    120.229820    -0.000000    -0.066402   120.163418
	   84 B(16,14,26)     =    120.022007     0.000010     0.305998   120.328005
	   85 B(16,17,29)     =    120.161025     0.000012    -0.037057   120.123968
	   86 B(17,15,27)     =    119.935653     0.000019     0.104794   120.040447
	   87 B(17,16,28)     =    119.988146     0.000007     0.064788   120.052933
	   88 B(18,4,21)      =    119.152418     0.000195     0.836003   119.988421
	   89 B(18,20,19)     =    119.150876    -0.000086    -0.207489   118.943387
	   90 B(18,20,34)     =    120.449391     0.000031     0.064156   120.513547
	   91 B(19,6,22)      =    118.012182     0.000286     1.100382   119.112564
	   92 B(19,20,34)     =    120.398790     0.000054     0.139807   120.538597
	   93 B(20,18,30)     =    120.071891     0.000028     0.121421   120.193312
	   94 B(20,19,31)     =    120.000947     0.000005     0.028313   120.029260
	   95 *D(1,2,3,4)     =    179.603425    -0.000000    -0.000000   179.603425
	   96 D(1,2,3,6)      =      3.904404    -0.000012     0.218791     4.123195
	   97 D(1,7,9,11)     =   -179.555758    -0.000010    -0.907797  -180.463554
	   98 D(1,7,9,32)     =      0.297013    -0.000002     0.153895     0.450908
	   99 D(1,7,10,8)     =    179.307230     0.000011     0.811574   180.118803
	  100 D(1,7,10,24)    =     -1.055987     0.000006     0.039704    -1.016282
	  101 D(1,12,13,15)   =   -176.553449    -0.000004    -0.725933  -177.279382
	  102 D(1,12,13,25)   =      3.813653     0.000001    -0.157316     3.656338
	  103 D(1,12,14,16)   =    176.823463     0.000001     0.233128   177.056591
	  104 D(1,12,14,26)   =     -3.206275    -0.000002     0.026916    -3.179358
	  105 D(2,1,7,9)      =   -173.411472     0.000038     1.145685  -172.265787
	  106 D(2,1,7,10)     =      5.368652     0.000030     1.113311     6.481962
	  107 *D(2,1,12,13)   =   -130.105345    -0.000000     0.000000  -130.105345
	  108 D(2,1,12,14)    =     55.328198    -0.000003    -1.128222    54.199976
	  109 D(2,3,4,18)     =   -178.635926    -0.000006     0.426636  -178.209290
	  110 D(2,3,4,21)     =      1.863549    -0.000007     0.307043     2.170591
	  111 D(2,3,6,19)     =    178.514315    -0.000003    -0.557809   177.956506
	  112 D(2,3,6,22)     =     -0.829469     0.000001    -0.294972    -1.124441
	  113 *D(3,2,1,7)     =   -165.196929    -0.000000    -0.000000  -165.196929
	  114 D(3,2,1,12)     =     20.072004     0.000037     2.825905    22.897908
	  115 D(3,4,18,20)    =      0.945891    -0.000006    -0.239082     0.706809
	  116 D(3,4,18,30)    =   -179.019904    -0.000006    -0.468005  -179.487909
	  117 D(3,6,19,20)    =     -1.281145     0.000004     0.186138    -1.095007
	  118 D(3,6,19,31)    =    178.929197     0.000008     0.638988   179.568185
	  119 D(4,3,2,5)      =     15.495030    -0.000009    -1.332555    14.162476
	  120 D(4,3,6,19)     =      2.833175    -0.000006    -0.227416     2.605759
	  121 D(4,3,6,22)     =   -176.510610    -0.000003     0.035421  -176.475189
	  122 D(4,18,20,19)   =      0.678717     0.000000     0.162268     0.840985
	  123 D(4,18,20,34)   =   -179.673092    -0.000001    -0.250768  -179.923860
	  124 D(5,2,1,7)      =     -0.840069     0.000005     1.316592     0.476523
	  125 D(5,2,1,12)     =   -175.571136     0.000041     4.142497  -171.428639
	  126 D(5,2,3,6)      =   -160.203990    -0.000021    -1.113764  -161.317754
	  127 D(6,3,4,18)     =     -2.671716     0.000007     0.248060    -2.423656
	  128 D(6,3,4,21)     =    177.827759     0.000005     0.128467   177.956226
	  129 D(6,19,20,18)   =     -0.512974     0.000001    -0.132604    -0.645578
	  130 D(6,19,20,34)   =    179.838652     0.000003     0.280813   180.119465
	  131 D(7,1,12,13)    =     55.258026     0.000044     2.900387    58.158414
	  132 D(7,1,12,14)    =   -119.308431     0.000041     1.772165  -117.536266
	  133 D(7,9,11,8)     =     -0.782698     0.000004     0.661241    -0.121457
	  134 D(7,9,11,33)    =    179.435739     0.000007     0.860482   180.296221
	  135 D(7,10,8,11)    =      1.243580    -0.000000    -0.400104     0.843476
	  136 D(7,10,8,23)    =   -179.310608    -0.000005    -0.781170  -180.091778
	  137 D(8,10,7,9)     =     -1.658945     0.000004     0.773131    -0.885814
	  138 D(8,11,9,32)    =    179.361868    -0.000004    -0.387441   178.974427
	  139 D(9,7,1,12)     =      1.337750     0.000003    -1.612663    -0.274912
	  140 D(9,7,10,24)    =    177.977839    -0.000001     0.001262   177.979100
	  141 D(9,11,8,10)    =     -0.320530    -0.000002    -0.157595    -0.478124
	  142 D(9,11,8,23)    =   -179.732492     0.000003     0.237149  -179.495342
	  143 D(10,7,1,12)    =   -179.882126    -0.000005    -1.645037  -181.527163
	  144 D(10,7,9,11)    =      1.498782    -0.000003    -0.871161     0.627621
	  145 D(10,7,9,32)    =   -178.648448     0.000005     0.190531  -178.457916
	  146 D(10,8,11,33)   =    179.485865    -0.000005    -0.337317   179.148548
	  147 D(11,8,10,24)   =   -178.406083     0.000003     0.322795  -178.083288
	  148 D(12,13,15,17)  =      0.595247     0.000003     0.224737     0.819984
	  149 D(12,13,15,27)  =   -179.323788     0.000001     0.043819  -179.279969
	  150 D(12,14,16,17)  =     -1.076722     0.000006     0.736371    -0.340351
	  151 D(12,14,16,28)  =    178.943359     0.000006     0.734449   179.677808
	  152 D(13,12,14,16)  =      2.154202    -0.000006    -0.853847     1.300355
	  153 D(13,12,14,26)  =   -177.875536    -0.000008    -1.060058  -178.935594
	  154 D(13,15,17,16)  =      0.515534    -0.000003    -0.357977     0.157557
	  155 D(13,15,17,29)  =   -179.701230    -0.000004    -0.347604  -180.048834
	  156 D(14,12,13,15)  =     -1.913478     0.000001     0.374503    -1.538975
	  157 D(14,12,13,25)  =    178.453625     0.000007     0.943121   179.396745
	  158 D(14,16,17,15)  =     -0.274351    -0.000002    -0.121835    -0.396186
	  159 D(14,16,17,29)  =    179.942262    -0.000001    -0.132140   179.810122
	  160 D(15,17,16,28)  =    179.705508    -0.000002    -0.119908   179.585600
	  161 D(16,17,15,27)  =   -179.565604    -0.000001    -0.176612  -179.742216
	  162 D(17,15,13,25)  =   -179.773714    -0.000002    -0.353391  -180.127105
	  163 D(17,16,14,26)  =    178.953157     0.000008     0.944928   179.898085
	  164 D(18,20,19,31)  =    179.275077    -0.000003    -0.590788   178.684289
	  165 D(19,20,18,30)  =   -179.355734     0.000001     0.393294  -178.962440
	  166 D(20,18,4,21)   =   -179.548963    -0.000005    -0.126198  -179.675161
	  167 D(20,19,6,22)   =    178.084350    -0.000000    -0.082240   178.002111
	  168 D(21,4,18,30)   =      0.485242    -0.000005    -0.355121     0.130121
	  169 D(22,6,19,31)   =     -1.705307     0.000004     0.370610    -1.334697
	  170 D(23,8,10,24)   =      1.039729    -0.000002    -0.058271     0.981458
	  171 D(23,8,11,33)   =      0.073902     0.000000     0.057427     0.131330
	  172 D(25,13,15,27)  =      0.307252    -0.000005    -0.534310    -0.227058
	  173 D(26,14,16,28)  =     -1.026763     0.000009     0.943007    -0.083756
	  174 D(27,15,17,29)  =      0.217632    -0.000001    -0.166238     0.051393
	  175 D(28,16,17,29)  =     -0.077879    -0.000002    -0.130213    -0.208092
	  176 D(30,18,20,34)  =      0.292457    -0.000001    -0.019743     0.272714
	  177 D(31,19,20,34)  =     -0.373297    -0.000002    -0.177371    -0.550668
	  178 D(32,9,11,33)   =     -0.419695    -0.000001    -0.188200    -0.607895
	  179 R(2,24)         =      2.787881    -0.033941    -0.031853     2.756027
	  180 R(3,14)         =      3.465154    -0.063990    -0.039492     3.425662
	  181 R(6,12)         =      3.151047    -0.029508    -0.025621     3.125426
	  182 R(6,14)         =      3.250281     0.025864     0.004302     3.254583
	  183 R(9,13)         =      3.255021    -0.051351    -0.025540     3.229481
	 ---------------------------------------------------------------------------
	Successfully symmetrized geometry.

  ==> Convergence Check <==

  Measures of convergence in internal coordinates in au.
  Criteria marked as inactive (o), active & met (*), and active & unmet ( ).
  --------------------------------------------------------------------------------------------- ~
   Step     Total Energy     Delta E     MAX Force     RMS Force      MAX Disp      RMS Disp    ~
  --------------------------------------------------------------------------------------------- ~
    Convergence Criteria             o    2.50e-03 *    1.70e-03 *    1.00e-02 *    6.70e-03 *  ~
  --------------------------------------------------------------------------------------------- ~
      1    -840.64657736   -8.41e+02 o    2.04e-02      5.15e-03      7.46e-02      1.89e-02    ~
  ---------------------------------------------------------------------------------------------

	Writing optimization data to binary file.
	Structure for next step:
	Cartesian Geometry (in Angstrom)
	    C    -0.5414934298  -0.1451953510   0.3304271032
	    N     0.6324241927  -0.8474240102   0.3075634471
	    C     1.9044377769  -0.5755674953  -0.2357109433
	    C     2.8738800905  -1.5657049810  -0.0384831989
	    H     0.6232722720  -1.6245771240   0.9745478807
	    C     2.2774588617   0.6206999590  -0.8599218764
	    C    -1.5211854223  -0.5495246130   1.2076122707
	    N    -2.5293754353  -1.7007102945   2.8710496922
	    C    -2.8972624508  -0.0964174817   1.3402142630
	    C    -1.3237225847  -1.6039259305   2.2127897891
	    C    -3.4691535283  -0.8016671618   2.3415426142
	    C    -0.8298376346   0.9036924823  -0.6784984756
	    C    -1.2659670849   2.1704072044  -0.2814905548
	    C    -0.7539703380   0.6065238423  -2.0442148144
	    C    -1.5892397034   3.1329595894  -1.2322268332
	    C    -1.0820074226   1.5676137269  -2.9917413021
	    C    -1.4968118327   2.8354734283  -2.5893400599
	    C     4.1707341834  -1.3856893528  -0.4991913701
	    C     3.5791592721   0.7883160175  -1.3210867304
	    C     4.5333719232  -0.2107533239  -1.1526287215
	    H     2.6032306847  -2.4815335951   0.4734327989
	    H     1.5717908256   1.4265207912  -0.9774415694
	    H    -2.6821758891  -2.3515971940   3.6165433277
	    O    -0.3046301515  -2.3104480932   2.4469969941
	    H    -1.3345496448   2.3983926766   0.7741525389
	    H    -0.4332512515  -0.3790153130  -2.3541926771
	    H    -1.9146589535   4.1141402302  -0.9139077302
	    H    -1.0146660362   1.3284049078  -4.0446757196
	    H    -1.7489782228   3.5838123412  -3.3280065348
	    H     4.9005576724  -2.1684292387  -0.3424059908
	    H     3.8474894140   1.7169619626  -1.8073495542
	    H    -3.3852883759   0.6529574943   0.7428713862
	    H    -4.4697471046  -0.7564446713   2.7324644439
	    H     5.5434808291  -0.0719276078  -1.5122358517
			--------------------------
			 OPTKING Finished Execution 
			--------------------------

    Structure for next step:
    Molecular point group: c1
    Full point group: C1

    Geometry (in Angstrom), charge = 0, multiplicity = 1:

    C           -0.547246712612    -0.149344660118     0.331443515266
    N            0.626670914581    -0.851573322114     0.308579859124
    C            1.898684503768    -0.579716806088    -0.234694533412
    C            2.868126821179    -1.569854295699    -0.037466788291
    H            0.617518993825    -1.628726438965     0.975564295350
    C            2.271705590012     0.616550652914    -0.858905468952
    C           -1.526938708871    -0.553673923678     1.208628686252
    N           -2.535128725928    -1.704859609767     2.872066114309
    C           -2.903015742873    -0.100566790644     1.341230679081
    C           -1.329475870584    -1.608075245345     2.213806208537
    C           -3.474906822595    -0.805816473451     2.342559034151
    C           -0.835590918473     0.899543177340    -0.677482067474
    C           -1.271720370500     2.166257904404    -0.280474145136
    C           -0.759723621631     0.602374536139    -2.043198411679
    C           -1.594992990332     3.128810293205    -1.231210427216
    C           -1.087760707495     1.563464424471    -2.990724903034
    C           -1.502565119268     2.831324130872    -2.588323659307
    C            4.164980919153    -1.389838666748    -0.498174961322
    C            3.573406005569     0.784166712053    -1.320070324788
    C            4.527618660393    -0.214902633233    -1.151612315253
    H            2.597477414336    -2.485682913415     0.474449211524
    H            1.566037551134     1.422371488294    -0.976425162473
    H           -2.687929180235    -2.355746511741     3.617559752715
    O           -0.310383433305    -2.314597410816     2.448013414458
    H           -1.340302930669     2.394243377462     0.775168952711
    H           -0.439004533822    -0.383164623049    -2.353176275595
    H           -1.920412241662     4.109990937780    -0.912891323054
    H           -1.020419320777     1.324255604487    -4.043659324756
    H           -1.754731510323     3.579663046738    -3.326990137121
    H            4.894804411027    -2.172578555808    -0.341389581400
    H            3.841736148532     1.712812660800    -1.806333150478
    H           -3.391041669809     0.648808188313     0.743887799881
    H           -4.475500402805    -0.760593982797     2.733480865434
    H            5.537727570210    -0.076076916631    -1.511219446842


Scratch directory: /scratch/bdw2292/Psi4-1_16_Index_0-farH_in17/

Scratch directory: /scratch/bdw2292/Psi4-1_16_Index_0-farH_in17/
gradient() will perform analytic gradient computation.

*** tstart() called on node74.bme.utexas.edu
*** at Thu Jun  9 03:03:39 2022

   => Loading Basis Set <=

    Name: 6-311G
    Role: ORBITAL
    Keyword: BASIS
    atoms 1, 3-4, 6-7, 9-20 entry C          line    92 file /home/bdw2292/miniconda3/envs/newamoebamdpoltype/share/psi4/basis/6-311g.gbs 
    atoms 2, 8              entry N          line   109 file /home/bdw2292/miniconda3/envs/newamoebamdpoltype/share/psi4/basis/6-311g.gbs 
    atoms 5, 21-23, 25-34   entry H          line    21 file /home/bdw2292/miniconda3/envs/newamoebamdpoltype/share/psi4/basis/6-311g.gbs 
    atoms 24                entry O          line   126 file /home/bdw2292/miniconda3/envs/newamoebamdpoltype/share/psi4/basis/6-311g.gbs 

   => WB97X-D: Empirical Dispersion <=

    Chai and Head-Gordon Dispersion Correction
    Chai, J.-D.; Head-Gordon, M. (2010), J. Chem. Phys., 132: 6615-6620

        s6 =       1.000000


         ---------------------------------------------------------
                                   SCF
               by Justin Turney, Rob Parrish, Andy Simmonett
                          and Daniel G. A. Smith
                              RKS Reference
                        2 Threads,   7788 MiB Core
         ---------------------------------------------------------

  ==> Geometry <==

    Molecular point group: c1
    Full point group: C1

    Geometry (in Angstrom), charge = 0, multiplicity = 1:

       Center              X                  Y                   Z               Mass       
    ------------   -----------------  -----------------  -----------------  -----------------
         C           -0.547246712612    -0.149344660118     0.331443515266    12.000000000000
         N            0.626670914581    -0.851573322114     0.308579859124    14.003074004430
         C            1.898684503768    -0.579716806088    -0.234694533412    12.000000000000
         C            2.868126821179    -1.569854295699    -0.037466788291    12.000000000000
         H            0.617518993825    -1.628726438965     0.975564295350     1.007825032230
         C            2.271705590012     0.616550652914    -0.858905468952    12.000000000000
         C           -1.526938708871    -0.553673923678     1.208628686252    12.000000000000
         N           -2.535128725928    -1.704859609767     2.872066114309    14.003074004430
         C           -2.903015742873    -0.100566790644     1.341230679081    12.000000000000
         C           -1.329475870584    -1.608075245345     2.213806208537    12.000000000000
         C           -3.474906822595    -0.805816473451     2.342559034151    12.000000000000
         C           -0.835590918473     0.899543177340    -0.677482067474    12.000000000000
         C           -1.271720370500     2.166257904404    -0.280474145136    12.000000000000
         C           -0.759723621631     0.602374536139    -2.043198411679    12.000000000000
         C           -1.594992990332     3.128810293205    -1.231210427216    12.000000000000
         C           -1.087760707495     1.563464424471    -2.990724903034    12.000000000000
         C           -1.502565119268     2.831324130872    -2.588323659307    12.000000000000
         C            4.164980919153    -1.389838666748    -0.498174961322    12.000000000000
         C            3.573406005569     0.784166712053    -1.320070324788    12.000000000000
         C            4.527618660393    -0.214902633233    -1.151612315253    12.000000000000
         H            2.597477414336    -2.485682913415     0.474449211524     1.007825032230
         H            1.566037551134     1.422371488294    -0.976425162473     1.007825032230
         H           -2.687929180235    -2.355746511741     3.617559752715     1.007825032230
         O           -0.310383433305    -2.314597410816     2.448013414458    15.994914619570
         H           -1.340302930669     2.394243377462     0.775168952711     1.007825032230
         H           -0.439004533822    -0.383164623049    -2.353176275595     1.007825032230
         H           -1.920412241662     4.109990937780    -0.912891323054     1.007825032230
         H           -1.020419320777     1.324255604487    -4.043659324756     1.007825032230
         H           -1.754731510323     3.579663046738    -3.326990137121     1.007825032230
         H            4.894804411027    -2.172578555808    -0.341389581400     1.007825032230
         H            3.841736148532     1.712812660800    -1.806333150478     1.007825032230
         H           -3.391041669809     0.648808188313     0.743887799881     1.007825032230
         H           -4.475500402805    -0.760593982797     2.733480865434     1.007825032230
         H            5.537727570210    -0.076076916631    -1.511219446842     1.007825032230

  Running in c1 symmetry.

  Rotational constants: A =      0.01399  B =      0.00992  C =      0.00616 [cm^-1]
  Rotational constants: A =    419.27846  B =    297.54088  C =    184.63132 [MHz]
  Nuclear repulsion = 1419.281760162039745

  Charge       = 0
  Multiplicity = 1
  Electrons    = 138
  Nalpha       = 69
  Nbeta        = 69

  ==> Algorithm <==

  SCF Algorithm Type is DF.
  DIIS enabled.
  MOM disabled.
  Fractional occupation disabled.
  Guess Type is READ.
  Energy threshold   = 1.00e-08
  Density threshold  = 1.00e-08
  Integral threshold = 1.00e-12

  ==> Primary Basis <==

  Basis Set: 6-311G
    Blend: 6-311G
    Number of shells: 182
    Number of basis functions: 302
    Number of Cartesian functions: 302
    Spherical Harmonics?: true
    Max angular momentum: 1

  ==> DFT Potential <==

   => LibXC <=

    Version 5.1.5
    S. Lehtola, C. Steigemann, M. J. Oliveira, and M. A. Marques, SoftwareX 7, 1 (2018) (10.1016/j.softx.2017.11.002)

   => Composite Functional: WB97X-D <= 

    wB97X-D Hyb-GGA Exchange-Correlation Functional

    J.-D. Chai and M. Head-Gordon, Phys. Chem. Chem. Phys. 10, 6615 (2008) (10.1039/B810189B)

    Deriv               =              1
    GGA                 =           TRUE
    Meta                =          FALSE

    Exchange Hybrid     =           TRUE
    MP2 Hybrid          =          FALSE

   => Exchange-Correlation Functionals <=

    1.0000   wB97X-D range-separated functional

   => Exact (HF) Exchange <=

    0.7780            HF,LR [omega = 0.2000]
    0.2220               HF 

   => LibXC Density Thresholds  <==

    XC_HYB_GGA_XC_WB97X_D:  1.00E-14 

   => Molecular Quadrature <=

    Radial Scheme          =       TREUTLER
    Pruning Scheme         =           NONE
    Nuclear Scheme         =       TREUTLER

    BS radius alpha        =              1
    Pruning alpha          =              1
    Radial Points          =             75
    Spherical Points       =            302
    Total Points           =         699753
    Total Blocks           =           5017
    Max Points             =            256
    Max Functions          =            221
    Weights Tolerance      =       1.00E-15

   => Loading Basis Set <=

    Name: (6-311G AUX)
    Role: JKFIT
    Keyword: DF_BASIS_SCF
    atoms 1, 3-4, 6-7, 9-20 entry C          line   125 file /home/bdw2292/miniconda3/envs/newamoebamdpoltype/share/psi4/basis/cc-pvtz-jkfit.gbs 
    atoms 2, 8              entry N          line   177 file /home/bdw2292/miniconda3/envs/newamoebamdpoltype/share/psi4/basis/cc-pvtz-jkfit.gbs 
    atoms 5, 21-23, 25-34   entry H          line    51 file /home/bdw2292/miniconda3/envs/newamoebamdpoltype/share/psi4/basis/cc-pvtz-jkfit.gbs 
    atoms 24                entry O          line   229 file /home/bdw2292/miniconda3/envs/newamoebamdpoltype/share/psi4/basis/cc-pvtz-jkfit.gbs 

   => Loading Basis Set <=

    Name: 6-311G
    Role: ORBITAL
    Keyword: BASIS
    atoms 1, 3-4, 6-7, 9-20 entry C          line    92 file /home/bdw2292/miniconda3/envs/newamoebamdpoltype/share/psi4/basis/6-311g.gbs 
    atoms 2, 8              entry N          line   109 file /home/bdw2292/miniconda3/envs/newamoebamdpoltype/share/psi4/basis/6-311g.gbs 
    atoms 5, 21-23, 25-34   entry H          line    21 file /home/bdw2292/miniconda3/envs/newamoebamdpoltype/share/psi4/basis/6-311g.gbs 
    atoms 24                entry O          line   126 file /home/bdw2292/miniconda3/envs/newamoebamdpoltype/share/psi4/basis/6-311g.gbs 

  Reading orbitals from file /scratch/bdw2292/Psi4-1_16_Index_0-farH_in17/1_16_Index_0-opt-1_2-3-179.default.1277097.180.npy, no projection.

  ==> Integral Setup <==

  DFHelper Memory: AOs need 3.153 GiB; user supplied 3.153 GiB. Using in-core AOs.

  ==> MemDFJK: Density-Fitted J/K Matrices <==

    J tasked:                   Yes
    K tasked:                   Yes
    wK tasked:                  Yes
    Omega:                2.000E-01
    OpenMP threads:               2
    Memory [MiB]:              3228
    Algorithm:                 Core
    Schwarz Cutoff:           1E-12
    Mask sparsity (%):      23.8849
    Fitting Condition:        1E-10

   => Auxiliary Basis Set <=

  Basis Set: (6-311G AUX)
    Blend: CC-PVTZ-JKFIT
    Number of shells: 640
    Number of basis functions: 2000
    Number of Cartesian functions: 2410
    Spherical Harmonics?: true
    Max angular momentum: 4

  Cached 50.0% of DFT collocation blocks in 1.483 [GiB].

  Minimum eigenvalue in the overlap matrix is 2.3722901631E-04.
  Reciprocal condition number of the overlap matrix is 3.4854722565E-05.
    Using symmetric orthogonalization.

  ==> Pre-Iterations <==

  SCF Guess: Orbitals guess was supplied from a previous computation.

   -------------------------------------------------------
    Irrep   Nso     Nmo     Nalpha   Nbeta   Ndocc  Nsocc
   -------------------------------------------------------
     A        302     302      69      69      69       0
   -------------------------------------------------------
    Total     302     302      69      69      69       0
   -------------------------------------------------------

  ==> Iterations <==

                           Total Energy        Delta E     RMS |[F,P]|

   @DF-RKS iter   0:  -840.84297400974094   -8.40843e+02   6.23316e-04 
   @DF-RKS iter   1:  -840.65181147591147    1.91163e-01   1.32532e-04 DIIS
   @DF-RKS iter   2:  -840.65186572452819   -5.42486e-05   1.56189e-04 DIIS
   @DF-RKS iter   3:  -840.65306083162091   -1.19511e-03   2.31018e-05 DIIS
   @DF-RKS iter   4:  -840.65308842132686   -2.75897e-05   8.82138e-06 DIIS
   @DF-RKS iter   5:  -840.65309329378363   -4.87246e-06   4.60555e-06 DIIS
   @DF-RKS iter   6:  -840.65309414944556   -8.55662e-07   1.91659e-06 DIIS
   @DF-RKS iter   7:  -840.65309433697200   -1.87526e-07   5.04393e-07 DIIS
   @DF-RKS iter   8:  -840.65309435232678   -1.53548e-08   1.59261e-07 DIIS
   @DF-RKS iter   9:  -840.65309435516770   -2.84092e-09   5.56839e-08 DIIS
   @DF-RKS iter  10:  -840.65309435550910   -3.41402e-10   2.36739e-08 DIIS
   @DF-RKS iter  11:  -840.65309435559971   -9.06084e-11   1.04808e-08 DIIS
   @DF-RKS iter  12:  -840.65309435561323   -1.35287e-11   4.92230e-09 DIIS
  Energy and wave function converged.


  ==> Post-Iterations <==

   Electrons on quadrature grid:
[...]
	   22 R(12,13)        =      1.396780     0.000738     0.000072     1.396852
	   23 R(12,14)        =      1.399863     0.000433     0.000054     1.399917
	   24 R(13,15)        =      1.393388     0.000192     0.000006     1.393394
	   25 R(13,25)        =      1.081471    -0.000274    -0.000052     1.081419
	   26 R(14,16)        =      1.389908     0.000147    -0.000011     1.389897
	   27 R(14,26)        =      1.081516     0.000001    -0.000010     1.081506
	   28 R(15,17)        =      1.392695     0.000404     0.000025     1.392720
	   29 R(15,27)        =      1.081355    -0.000209    -0.000041     1.081314
	   30 R(16,17)        =      1.395196     0.000502     0.000056     1.395252
	   31 R(16,28)        =      1.081283    -0.000342    -0.000064     1.081219
	   32 R(17,29)        =      1.081403    -0.000194    -0.000045     1.081358
	   33 R(18,20)        =      1.394077     0.000434     0.000033     1.394110
	   34 R(18,30)        =      1.081469    -0.000135    -0.000024     1.081445
	   35 R(19,20)        =      1.391600     0.000469     0.000050     1.391651
	   36 R(19,31)        =      1.081735    -0.000217    -0.000042     1.081693
	   37 R(20,34)        =      1.080923    -0.000269    -0.000053     1.080870
	   38 B(1,2,3)        =    131.874625     0.000004     0.019718   131.894343
	   39 B(1,2,5)        =    112.276875    -0.000005    -0.020352   112.256523
	   40 B(1,7,9)        =    130.471458     0.000005     0.023357   130.494815
	   41 B(1,7,10)       =    122.795584     0.000001    -0.008047   122.787537
	   42 B(1,12,13)      =    120.632847    -0.000005    -0.010699   120.622148
	   43 B(1,12,14)      =    119.749566     0.000005     0.011799   119.761365
	   44 B(2,1,7)        =    118.598387     0.000000    -0.012927   118.585460
	   45 B(2,1,12)       =    120.896025    -0.000000     0.001268   120.897293
	   46 B(2,3,4)        =    115.743131     0.000004     0.006522   115.749653
	   47 B(2,3,6)        =    125.283302    -0.000000     0.005934   125.289236
	   48 B(3,2,5)        =    114.562090     0.000001     0.001330   114.563420
	   49 B(3,4,18)       =    120.750935     0.000000     0.004162   120.755097
	   50 B(3,4,21)       =    119.177235     0.000000    -0.003119   119.174116
	   51 B(3,6,19)       =    119.865790     0.000002     0.004418   119.870208
	   52 B(3,6,22)       =    121.123475    -0.000006    -0.017333   121.106143
	   53 B(4,3,6)        =    118.798364    -0.000003    -0.007438   118.790925
	   54 B(4,18,20)      =    120.357682    -0.000001    -0.002813   120.354868
	   55 B(4,18,30)      =    119.404555    -0.000001    -0.002115   119.402440
	   56 B(6,19,20)      =    121.146664    -0.000000    -0.000150   121.146514
	   57 B(6,19,31)      =    118.814192     0.000000    -0.000586   118.813606
	   58 B(7,1,12)       =    120.054324     0.000000     0.002001   120.056325
	   59 B(7,9,11)       =    107.608050     0.000003     0.006055   107.614105
	   60 B(7,9,32)       =    126.203806    -0.000000     0.002440   126.206246
	   61 B(7,10,8)       =    105.605762     0.000010     0.023880   105.629642
	   62 B(7,10,24)      =    128.752835    -0.000005    -0.017719   128.735116
	   63 B(8,10,24)      =    125.628104    -0.000006    -0.001430   125.626674
	   64 B(8,11,9)       =    109.440968     0.000002     0.006955   109.447922
	   65 B(8,11,33)      =    120.570609    -0.000001    -0.002000   120.568609
	   66 B(9,7,10)       =    106.719702    -0.000006    -0.016914   106.702788
	   67 B(9,11,33)      =    129.986060    -0.000001    -0.004251   129.981809
	   68 B(10,8,11)      =    110.611170    -0.000009    -0.026118   110.585052
	   69 B(10,8,23)      =    123.020711     0.000003     0.007590   123.028300
	   70 B(11,8,23)      =    126.346994     0.000006     0.015453   126.362447
	   71 B(11,9,32)      =    126.183546    -0.000002    -0.007795   126.175751
	   72 B(12,13,15)     =    120.190145    -0.000000     0.000300   120.190445
	   73 B(12,13,25)     =    119.356210     0.000001     0.002401   119.358611
	   74 B(12,14,16)     =    120.160223    -0.000001    -0.001298   120.158925
	   75 B(12,14,26)     =    119.432529     0.000001     0.001527   119.434056
	   76 B(13,12,14)     =    119.512981     0.000001     0.001410   119.514391
	   77 B(13,15,17)     =    120.089179    -0.000001    -0.002728   120.086450
	   78 B(13,15,27)     =    119.766872    -0.000000    -0.000973   119.765899
	   79 B(14,16,17)     =    120.153784    -0.000000    -0.000661   120.153123
	   80 B(14,16,28)     =    119.777949    -0.000001    -0.004812   119.773137
	   81 B(15,13,25)     =    120.446496    -0.000001    -0.003439   120.443057
	   82 B(15,17,16)     =    119.881465     0.000002     0.003881   119.885346
	   83 B(15,17,29)     =    120.086033    -0.000001    -0.003698   120.082335
	   84 B(16,14,26)     =    120.405823     0.000000    -0.000302   120.405520
	   85 B(16,17,29)     =    120.032090    -0.000000    -0.000009   120.032081
	   86 B(17,15,27)     =    120.143923     0.000001     0.003721   120.147644
	   87 B(17,16,28)     =    120.068231     0.000002     0.005462   120.073693
	   88 B(18,4,21)      =    120.070638    -0.000000    -0.001370   120.069268
	   89 B(18,20,19)     =    119.019891     0.000002     0.003237   119.023128
	   90 B(18,20,34)     =    120.476346    -0.000001    -0.001266   120.475080
	   91 B(19,6,22)      =    119.003597     0.000004     0.012722   119.016319
	   92 B(19,20,34)     =    120.498311    -0.000001    -0.001652   120.496658
	   93 B(20,18,30)     =    120.236867     0.000001     0.004846   120.241714
	   94 B(20,19,31)     =    120.034047     0.000000     0.001044   120.035091
	   95 *D(1,2,3,4)     =    179.603425     0.000000    -0.000000   179.603425
	   96 D(1,2,3,6)      =      4.494444    -0.000000    -0.070039     4.424405
	   97 D(1,7,9,11)     =    179.736934    -0.000000     0.051738   179.788672
	   98 D(1,7,9,32)     =      0.480509    -0.000000    -0.007185     0.473323
	   99 D(1,7,10,8)     =    179.992638    -0.000001    -0.171764   179.820875
	  100 D(1,7,10,24)    =     -1.291533     0.000000     0.081748    -1.209786
	  101 D(1,12,13,15)   =   -177.606518    -0.000000     0.000016  -177.606503
	  102 D(1,12,13,25)   =      3.361678     0.000000     0.048840     3.410517
	  103 D(1,12,14,16)   =    177.239043    -0.000000    -0.002453   177.236591
	  104 D(1,12,14,26)   =     -3.193375    -0.000000    -0.013476    -3.206851
	  105 D(2,1,7,9)      =   -173.999291    -0.000000     0.060469  -173.938822
	  106 D(2,1,7,10)     =      4.492412    -0.000000    -0.028452     4.463961
	  107 *D(2,1,12,13)   =   -130.105345    -0.000000     0.000000  -130.105345
	  108 D(2,1,12,14)    =     53.631174    -0.000000    -0.045096    53.586077
	  109 D(2,3,4,18)     =   -178.033780    -0.000000    -0.063369  -178.097148
	  110 D(2,3,4,21)     =      2.363148    -0.000000    -0.012199     2.350950
	  111 D(2,3,6,19)     =    177.741773     0.000000     0.027462   177.769235
	  112 D(2,3,6,22)     =     -1.276579     0.000000     0.040464    -1.236115
	  113 *D(3,2,1,7)     =   -165.196929     0.000000    -0.000000  -165.196929
	  114 D(3,2,1,12)     =     22.507706     0.000000     0.081436    22.589142
	  115 D(3,4,18,20)    =      0.746181     0.000000     0.042091     0.788272
	  116 D(3,4,18,30)    =   -179.597377     0.000000     0.026740  -179.570638
	  117 D(3,6,19,20)    =     -1.146857     0.000000     0.044361    -1.102496
	  118 D(3,6,19,31)    =    179.674302     0.000000     0.019206   179.693508
	  119 D(4,3,2,5)      =     13.798784     0.000000    -0.000497    13.798287
	  120 D(4,3,6,19)     =      2.769489    -0.000000    -0.045172     2.724317
	  121 D(4,3,6,22)     =   -176.248863    -0.000000    -0.032170  -176.281033
	  122 D(4,18,20,19)   =      0.921915    -0.000000    -0.042881     0.879034
	  123 D(4,18,20,34)   =   -179.923238    -0.000000    -0.017843  -179.941081
	  124 D(5,2,1,7)      =      0.855844    -0.000000     0.002708     0.858552
	  125 D(5,2,1,12)     =   -171.439520    -0.000000     0.084143  -171.355377
	  126 D(5,2,3,6)      =   -161.310197    -0.000000    -0.070536  -161.380733
	  127 D(6,3,4,18)     =     -2.589105     0.000000     0.002494    -2.586612
	  128 D(6,3,4,21)     =    177.807823     0.000000     0.053664   177.861486
	  129 D(6,19,20,18)   =     -0.721809    -0.000000    -0.000291    -0.722100
	  130 D(6,19,20,34)   =   -179.876466    -0.000000    -0.025338  -179.901803
	  131 D(7,1,12,13)    =     57.710761     0.000000     0.083767    57.794528
	  132 D(7,1,12,14)    =   -118.552721    -0.000000     0.038671  -118.514050
	  133 D(7,9,11,8)     =     -0.502829     0.000001     0.032339    -0.470490
	  134 D(7,9,11,33)    =   -179.934755    -0.000000    -0.059653  -179.994409
	  135 D(7,10,8,11)    =      0.937300     0.000002     0.268912     1.206212
	  136 D(7,10,8,23)    =    179.361127     0.000001     0.158342   179.519469
	  137 D(8,10,7,9)     =     -1.205366    -0.000001    -0.241831    -1.447197
	  138 D(8,11,9,32)    =    178.753788     0.000001     0.091337   178.845126
	  139 D(9,7,1,12)     =     -1.637210    -0.000000    -0.020307    -1.657517
	  140 D(9,7,10,24)    =    177.510463     0.000000     0.011680   177.522143
	  141 D(9,11,8,10)    =     -0.288447    -0.000002    -0.196569    -0.485016
	  142 D(9,11,8,23)    =   -178.647618    -0.000001    -0.081263  -178.728882
	  143 D(10,7,1,12)    =    176.854493    -0.000001    -0.109228   176.745266
	  144 D(10,7,9,11)    =      1.060754    -0.000000     0.129782     1.190535
	  145 D(10,7,9,32)    =   -178.195672     0.000000     0.070858  -178.124814
	  146 D(10,8,11,33)   =    179.206030    -0.000001    -0.114724   179.091306
	  147 D(11,8,10,24)   =   -177.830613     0.000001     0.025913  -177.804700
	  148 D(12,13,15,17)  =      0.827399    -0.000000    -0.005329     0.822071
	  149 D(12,13,15,27)  =   -179.231200     0.000000     0.023037  -179.208163
	  150 D(12,14,16,17)  =     -0.024419     0.000000     0.007646    -0.016772
	  151 D(12,14,16,28)  =   -179.955910     0.000000     0.017427  -179.938483
	  152 D(13,12,14,16)  =      0.933451    -0.000000    -0.046584     0.886867
	  153 D(13,12,14,26)  =   -179.498968    -0.000000    -0.057607  -179.556575
	  154 D(13,15,17,16)  =      0.089237    -0.000000    -0.033881     0.055356
	  155 D(13,15,17,29)  =    179.855837     0.000000     0.022296   179.878133
	  156 D(14,12,13,15)  =     -1.334259     0.000000     0.045389    -1.288870
	  157 D(14,12,13,25)  =    179.633937     0.000001     0.094212   179.728150
	  158 D(14,16,17,15)  =     -0.490161     0.000000     0.032707    -0.457454
	  159 D(14,16,17,29)  =    179.743111    -0.000000    -0.023433   179.719678
	  160 D(15,17,16,28)  =    179.441130     0.000000     0.022889   179.464020
	  161 D(16,17,15,27)  =   -179.851942    -0.000000    -0.062352  -179.914294
	  162 D(17,15,13,25)  =    179.848549    -0.000000    -0.054629   179.793920
	  163 D(17,16,14,26)  =   -179.587752     0.000000     0.018769  -179.568983
	  164 D(18,20,19,31)  =    178.447110     0.000000     0.025155   178.472265
	  165 D(19,20,18,30)  =   -178.731654    -0.000000    -0.027376  -178.759030
	  166 D(20,18,4,21)   =   -179.654282    -0.000000    -0.009543  -179.663825
	  167 D(20,19,6,22)   =    177.892299     0.000000     0.031337   177.923636
	  168 D(21,4,18,30)   =      0.002159    -0.000000    -0.024893    -0.022734
	  169 D(22,6,19,31)   =     -1.286542     0.000000     0.006182    -1.280360
	  170 D(23,8,10,24)   =      0.593214    -0.000000    -0.084657     0.508557
	  171 D(23,8,11,33)   =      0.846858     0.000000     0.000582     0.847440
	  172 D(25,13,15,27)  =     -0.210050    -0.000000    -0.026264    -0.236314
	  173 D(26,14,16,28)  =      0.480756     0.000000     0.028550     0.509307
	  174 D(27,15,17,29)  =     -0.085341    -0.000000    -0.006175    -0.091516
	  175 D(28,16,17,29)  =     -0.325597    -0.000000    -0.033251    -0.358848
	  176 D(30,18,20,34)  =      0.423193    -0.000000    -0.002338     0.420855
	  177 D(31,19,20,34)  =     -0.707546     0.000000     0.000108    -0.707438
	  178 D(32,9,11,33)   =     -0.678138    -0.000000    -0.000655    -0.678793
	  179 R(2,24)         =      2.719688    -0.000161    -0.000925     2.718763
	  180 R(3,14)         =      3.376631     0.000215     0.000596     3.377227
	  181 R(6,12)         =      3.080277     0.000365     0.001040     3.081317
	  182 R(6,14)         =      3.192408     0.000416     0.001000     3.193408
	  183 R(9,13)         =      3.230978     0.000255     0.001435     3.232413
	 ---------------------------------------------------------------------------
	Successfully symmetrized geometry.

  ==> Convergence Check <==

  Measures of convergence in internal coordinates in au.
  Criteria marked as inactive (o), active & met (*), and active & unmet ( ).
  ---------------------------------------------------------------------------------------------
   Step     Total Energy     Delta E     MAX Force     RMS Force      MAX Disp      RMS Disp   
  ---------------------------------------------------------------------------------------------
    Convergence Criteria             o    2.50e-03 *    1.70e-03 *    1.00e-02 *    6.70e-03 *
  ---------------------------------------------------------------------------------------------
      7    -840.65355161   -6.07e-06 o    3.53e-04 *    5.15e-05 *    4.69e-03 *    9.05e-04 *  ~
  ---------------------------------------------------------------------------------------------


  **** Optimization is complete! (in 7 steps) ****

  ==> Optimization Summary <==

  Measures of convergence in internal coordinates in au.
  --------------------------------------------------------------------------------------------------------------- ~
   Step         Total Energy             Delta E       MAX Force       RMS Force        MAX Disp        RMS Disp  ~
  --------------------------------------------------------------------------------------------------------------- ~
      1    -840.646577364100   -840.646577364100      0.02035203      0.00514964      0.07462902      0.01892778  ~
      2    -840.653094355613     -0.006516991513      0.00343801      0.00078301      0.06463443      0.01240235  ~
      3    -840.653306011052     -0.000211655439      0.00262295      0.00048099      0.04186045      0.01062971  ~
      4    -840.653430146749     -0.000124135697      0.00307723      0.00042093      0.02414093      0.00508808  ~
      5    -840.653534214909     -0.000104068160      0.00060337      0.00009791      0.01778500      0.00251278  ~
      6    -840.653545548292     -0.000011333383      0.00054691      0.00007313      0.01271312      0.00194543  ~
      7    -840.653551614923     -0.000006066631      0.00035252      0.00005154      0.00469339      0.00090542  ~
  --------------------------------------------------------------------------------------------------------------- ~

	Writing optimization data to binary file.
	Final energy is   -840.6535516149228
	Final (previous) structure:
	Cartesian Geometry (in Angstrom)
	    C    -0.5466495695  -0.1602055855   0.3484687595
	    N     0.6174399161  -0.8708865232   0.3122312670
	    C     1.8786558576  -0.5860846624  -0.2563895836
	    C     2.8622023335  -1.5723213262  -0.0831706134
	    H     0.6151985580  -1.6538650824   0.9729928851
	    C     2.2331220604   0.6185872055  -0.8759367159
	    C    -1.5283878786  -0.5469159665   1.2352458273
	    N    -2.5263413668  -1.7101761393   2.8981934069
	    C    -2.8902324760  -0.0596577434   1.4098180151
	    C    -1.3401277813  -1.6247009372   2.2038342873
	    C    -3.4531491856  -0.7697298143   2.4128247675
	    C    -0.8268268039   0.8958838860  -0.6570126306
	    C    -1.2454234287   2.1668430791  -0.2564691980
	    C    -0.7464967133   0.5945517867  -2.0216966912
	    C    -1.5536817007   3.1356644378  -1.2093031833
	    C    -1.0626171411   1.5603913054  -2.9698875851
	    C    -1.4620131846   2.8347269173  -2.5660026794
	    C     4.1504253921  -1.3823540388  -0.5644918324
	    C     3.5280796309   0.7958297525  -1.3584950446
	    C     4.4916413570  -0.1980465934  -1.2159811899
	    H     2.6037900664  -2.4915410353   0.4269922600
	    H     1.5248680068   1.4231044477  -0.9742431529
	    H    -2.6852826838  -2.3785932841   3.6266173614
	    O    -0.3286094754  -2.3626563568   2.3801574588
	    H    -1.3122730969   2.3950017284   0.7985451599
	    H    -0.4300463129  -0.3925237467  -2.3302709867
	    H    -1.8650985640   4.1212435567  -0.8915261230
	    H    -0.9991202062   1.3207232814  -4.0223609018
	    H    -1.7035075534   3.5859524383  -3.3054438159
	    H     4.8894512932  -2.1594503741  -0.4247144207
	    H     3.7819781005   1.7311849088  -1.8389089122
	    H    -3.3658585983   0.7153150114   0.8361144260
	    H    -4.4400261832  -0.7069116548   2.8343597997
	    H     5.4937529365  -0.0486151487  -1.5925937845
	Saving final (previous) structure.
	Cleaning optimization helper files.
			--------------------------
			 OPTKING Finished Execution 
			--------------------------

    Final optimized geometry and variables:
    Molecular point group: c1
    Full point group: C1

    Geometry (in Angstrom), charge = 0, multiplicity = 1:

    C           -0.546649571677    -0.160205586114     0.348468760883
    N            0.617439918500    -0.870886526670     0.312231268186
    C            1.878655864991    -0.586084664664    -0.256389584628
    C            2.862202344720    -1.572321332339    -0.083170613714
    H            0.615198560459    -1.653865088925     0.972992888926
    C            2.233122069136     0.618587207912    -0.875936719373
    C           -1.528387884616    -0.546915968638     1.235245832124
    N           -2.526341376748    -1.710176145977     2.898193418286
    C           -2.890232487352    -0.059657743675     1.409818020615
    C           -1.340127786589    -1.624700943610     2.203834295994
    C           -3.453149199175    -0.769729817293     2.412824776963
    C           -0.826826807148     0.895883889550    -0.657012633169
    C           -1.245423433573     2.166843087633    -0.256469199036
    C           -0.746496716231     0.594551789051    -2.021696699147
    C           -1.553681706839     3.135664450084    -1.209303188076
    C           -1.062617145288     1.560391311543    -2.969887596792
    C           -1.462013190331     2.834726928435    -2.566002689516
    C            4.150425408386    -1.382354044250    -0.564491834583
    C            3.528079644718     0.795829755634    -1.358495049936
    C            4.491641374656    -0.198046594203    -1.215981194630
    H            2.603790076634    -2.491541045109     0.426992261703
    H            1.524868012820     1.423104453308    -0.974243156707
    H           -2.685282694352    -2.378593293486     3.626617375674
    O           -0.328609476649    -2.362656366065     2.380157468198
    H           -1.312273102070     2.395001737775     0.798545163082
    H           -0.430046314572    -0.392523748270    -2.330270995819
    H           -1.865098571282     4.121243572884    -0.891526126491
    H           -0.999120210125     1.320723286551    -4.022360917566
    H           -1.703507560059     3.585952452442    -3.305443828898
    H            4.889451312376    -2.159450382595    -0.424714422370
    H            3.781978115331     1.731184915637    -1.838908919424
    H           -3.365858611486     0.715315014223     0.836114429241
    H           -4.440026200643    -0.706911657615     2.834359810797
    H            5.493752958106    -0.048615148905    -1.592593790723

	Removing binary optimization data file.
	Cleaning optimization helper files.

    Psi4 stopped on: Thursday, 09 June 2022 03:20AM
    Psi4 wall time for execution: 0:20:34.18

*** Psi4 exiting successfully. Buy a developer a beer!
