
    -----------------------------------------------------------------------
          Psi4: An Open-Source Ab Initio Electronic Structure Package
                               Psi4 1.5 release

                         Git: Rev {HEAD} e9f4d6d 


    D. G. A. Smith, L. A. Burns, A. C. Simmonett, R. M. Parrish,
    M. C. Schieber, R. Galvelis, P. Kraus, H. Kruse, R. Di Remigio,
    A. Alenaizan, A. M. James, S. Lehtola, J. P. Misiewicz, M. Scheurer,
    R. A. Shaw, J. B. Schriber, Y. Xie, Z. L. Glick, D. A. Sirianni,
    J. S. O'Brien, J. M. Waldrop, A. Kumar, E. G. Hohenstein,
    B. P. Pritchard, B. R. Brooks, H. F. Schaefer III, A. Yu. Sokolov,
    K. Patkowski, A. E. DePrince III, U. Bozkaya, R. A. King,
    F. A. Evangelista, J. M. Turney, T. D. Crawford, C. D. Sherrill,
    J. Chem. Phys. 152(18) 184108 (2020). https://doi.org/10.1063/5.0006002

                            Additional Code Authors
    E. T. Seidl, C. L. Janssen, E. F. Valeev, M. L. Leininger,
    J. F. Gonthier, R. M. Richard, H. R. McAlexander, M. Saitow, X. Wang,
    P. Verma, M. H. Lechner, and A. Jiang

             Previous Authors, Complete List of Code Contributors,
                       and Citations for Specific Modules
    https://github.com/psi4/psi4/blob/master/codemeta.json
    https://github.com/psi4/psi4/graphs/contributors
    http://psicode.org/psi4manual/master/introduction.html#citing-psifour

    -----------------------------------------------------------------------


    Psi4 started on: Wednesday, 08 June 2022 07:29PM

    Process ID: 1187062
    Host:       node74.bme.utexas.edu
    PSIDATADIR: /home/bdw2292/miniconda3/envs/newamoebamdpoltype/share/psi4
    Memory:     500.0 MiB
    Threads:    1
    
  ==> Input File <==

--------------------------------------------------------------------------
molecule { 
0 1
 C   -0.564168   -0.364887    0.227869
 N    0.721752   -0.720043    0.578324
 C    1.977829   -0.169709    0.215365
 C    3.111633   -1.021283    0.168640
 H    0.743705   -1.409311    1.344953
 C    2.149941    1.217413   -0.026579
 C   -1.595542   -0.895677    0.988190
 N   -3.168200   -2.390029    1.615602
 C   -2.269461   -0.391796    2.158618
 C   -2.193402   -2.201279    0.662862
 C   -3.214047   -1.309318    2.502200
 C   -0.851374    0.572674   -0.891508
 C   -0.247034    0.380963   -2.160890
 C   -1.700040    1.692759   -0.698410
 C   -0.487098    1.283698   -3.205125
 C   -1.938391    2.590456   -1.747857
 C   -1.333620    2.393043   -3.005974
 C    4.373918   -0.501056   -0.149239
 C    3.416341    1.726809   -0.345321
 C    4.536677    0.874030   -0.412678
 H    3.003957   -2.089453    0.371428
 H    1.301844    1.900837    0.033527
 H   -3.745458   -3.218177    1.628715
 O   -1.900613   -3.003355   -0.248485
 H    0.407040   -0.478019   -2.323239
 H   -2.167809    1.857310    0.273572
 H   -0.013792    1.126060   -4.175790
 H   -2.592973    3.448639   -1.586079
 H   -1.519264    3.094843   -3.821138
 H    5.233168   -1.172784   -0.191327
 H    3.528049    2.794834   -0.540070
 H   -2.067920    0.536803    2.673621
 H   -3.922796   -1.304615    3.318734
 H    5.520299    1.274957   -0.663624
}
set optking { 
  frozen_dihedral = ("
    2 1 12 13
    7 1 2 3
    1 2 3 4
  ")
}
set {
  geom_maxiter 400
  g_convergence GAU_LOOSE
  dynamic_level 1
}
memory 8.166666666666666GB
set_num_threads(2)
psi4_io.set_default_path("/scratch/bdw2292/Psi4-1_16_Index_0-farH_in17")
for _ in range(1):
  try:
    set opt_coordinates both
    optimize('wb97x-d/6-311G')
    break
  except OptimizationConvergenceError:
    break
  else:
    try:
      set opt_coordinates cartesian
      optimize('wb97x-d/6-311G')
      break
    except OptimizationConvergenceError:
      pass
clean()
--------------------------------------------------------------------------

  Memory set to   7.606 GiB by Python driver.
  Threads set to 2 by Python driver.

Scratch directory: /scratch/bdw2292/Psi4-1_16_Index_0-farH_in17/

Scratch directory: /scratch/bdw2292/Psi4-1_16_Index_0-farH_in17/
gradient() will perform analytic gradient computation.

*** tstart() called on node74.bme.utexas.edu
*** at Wed Jun  8 19:29:20 2022

   => Loading Basis Set <=

    Name: 6-311G
    Role: ORBITAL
    Keyword: BASIS
    atoms 1, 3-4, 6-7, 9-20 entry C          line    92 file /home/bdw2292/miniconda3/envs/newamoebamdpoltype/share/psi4/basis/6-311g.gbs 
    atoms 2, 8              entry N          line   109 file /home/bdw2292/miniconda3/envs/newamoebamdpoltype/share/psi4/basis/6-311g.gbs 
    atoms 5, 21-23, 25-34   entry H          line    21 file /home/bdw2292/miniconda3/envs/newamoebamdpoltype/share/psi4/basis/6-311g.gbs 
    atoms 24                entry O          line   126 file /home/bdw2292/miniconda3/envs/newamoebamdpoltype/share/psi4/basis/6-311g.gbs 

   => WB97X-D: Empirical Dispersion <=

    Chai and Head-Gordon Dispersion Correction
    Chai, J.-D.; Head-Gordon, M. (2010), J. Chem. Phys., 132: 6615-6620

        s6 =       1.000000


         ---------------------------------------------------------
                                   SCF
               by Justin Turney, Rob Parrish, Andy Simmonett
                          and Daniel G. A. Smith
                              RKS Reference
                        2 Threads,   7788 MiB Core
         ---------------------------------------------------------

  ==> Geometry <==

    Molecular point group: c1
    Full point group: C1

    Geometry (in Angstrom), charge = 0, multiplicity = 1:

       Center              X                  Y                   Z               Mass       
    ------------   -----------------  -----------------  -----------------  -----------------
         C           -0.476972273079    -0.308974769893     0.401750410653    12.000000000000
         N            0.808947726921    -0.664130769893     0.752205410653    14.003074004430
         C            2.065024726921    -0.113796769893     0.389246410653    12.000000000000
         C            3.198828726921    -0.965370769893     0.342521410653    12.000000000000
         H            0.830900726921    -1.353398769893     1.518834410653     1.007825032230
         C            2.237136726921     1.273325230107     0.147302410653    12.000000000000
         C           -1.508346273079    -0.839764769893     1.162071410653    12.000000000000
         N           -3.081004273079    -2.334116769893     1.789483410653    14.003074004430
         C           -2.182265273079    -0.335883769893     2.332499410653    12.000000000000
         C           -2.106206273079    -2.145366769893     0.836743410653    12.000000000000
         C           -3.126851273079    -1.253405769893     2.676081410653    12.000000000000
         C           -0.764178273079     0.628586230107    -0.717626589347    12.000000000000
         C           -0.159838273079     0.436875230107    -1.987008589347    12.000000000000
         C           -1.612844273079     1.748671230107    -0.524528589347    12.000000000000
         C           -0.399902273079     1.339610230107    -3.031243589347    12.000000000000
         C           -1.851195273079     2.646368230107    -1.573975589347    12.000000000000
         C           -1.246424273079     2.448955230107    -2.832092589347    12.000000000000
         C            4.461113726921    -0.445143769893     0.024642410653    12.000000000000
         C            3.503536726921     1.782721230107    -0.171439589347    12.000000000000
         C            4.623872726921     0.929942230107    -0.238796589347    12.000000000000
         H            3.091152726921    -2.033540769893     0.545309410653     1.007825032230
         H            1.389039726921     1.956749230107     0.207408410653     1.007825032230
         H           -3.658262273079    -3.162264769893     1.802596410653     1.007825032230
         O           -1.813417273079    -2.947442769893    -0.074603589347    15.994914619570
         H            0.494235726921    -0.422106769893    -2.149357589347     1.007825032230
         H           -2.080613273079     1.913222230107     0.447453410653     1.007825032230
         H            0.073403726921     1.181972230107    -4.001908589347     1.007825032230
         H           -2.505777273079     3.504551230107    -1.412197589347     1.007825032230
         H           -1.432068273079     3.150755230107    -3.647256589347     1.007825032230
         H            5.320363726921    -1.116871769893    -0.017445589347     1.007825032230
         H            3.615244726921     2.850746230107    -0.366188589347     1.007825032230
         H           -1.980724273079     0.592715230107     2.847502410653     1.007825032230
         H           -3.835600273079    -1.248702769893     3.492615410653     1.007825032230
         H            5.607494726921     1.330869230107    -0.489742589347     1.007825032230

  Running in c1 symmetry.

  Rotational constants: A =      0.01511  B =      0.00870  C =      0.00651 [cm^-1]
  Rotational constants: A =    453.00954  B =    260.93711  C =    195.01813 [MHz]
  Nuclear repulsion = 1407.877306595636583

  Charge       = 0
  Multiplicity = 1
  Electrons    = 138
  Nalpha       = 69
  Nbeta        = 69

  ==> Algorithm <==

  SCF Algorithm Type is DF.
  DIIS enabled.
  MOM disabled.
  Fractional occupation disabled.
  Guess Type is SAD.
  Energy threshold   = 1.00e-08
  Density threshold  = 1.00e-08
  Integral threshold = 1.00e-12

  ==> Primary Basis <==

  Basis Set: 6-311G
    Blend: 6-311G
    Number of shells: 182
    Number of basis functions: 302
    Number of Cartesian functions: 302
    Spherical Harmonics?: true
    Max angular momentum: 1

  ==> DFT Potential <==

   => LibXC <=

    Version 5.1.5
    S. Lehtola, C. Steigemann, M. J. Oliveira, and M. A. Marques, SoftwareX 7, 1 (2018) (10.1016/j.softx.2017.11.002)

   => Composite Functional: WB97X-D <= 

    wB97X-D Hyb-GGA Exchange-Correlation Functional

    J.-D. Chai and M. Head-Gordon, Phys. Chem. Chem. Phys. 10, 6615 (2008) (10.1039/B810189B)

    Deriv               =              1
    GGA                 =           TRUE
    Meta                =          FALSE

    Exchange Hybrid     =           TRUE
    MP2 Hybrid          =          FALSE

   => Exchange-Correlation Functionals <=

    1.0000   wB97X-D range-separated functional

   => Exact (HF) Exchange <=

    0.7780            HF,LR [omega = 0.2000]
    0.2220               HF 

   => LibXC Density Thresholds  <==

    XC_HYB_GGA_XC_WB97X_D:  1.00E-14 

   => Molecular Quadrature <=

    Radial Scheme          =       TREUTLER
    Pruning Scheme         =           NONE
    Nuclear Scheme         =       TREUTLER

    BS radius alpha        =              1
    Pruning alpha          =              1
    Radial Points          =             75
    Spherical Points       =            302
    Total Points           =         701100
    Total Blocks           =           5004
    Max Points             =            256
    Max Functions          =            215
    Weights Tolerance      =       1.00E-15

   => Loading Basis Set <=

    Name: (6-311G AUX)
    Role: JKFIT
    Keyword: DF_BASIS_SCF
    atoms 1, 3-4, 6-7, 9-20 entry C          line   125 file /home/bdw2292/miniconda3/envs/newamoebamdpoltype/share/psi4/basis/cc-pvtz-jkfit.gbs 
    atoms 2, 8              entry N          line   177 file /home/bdw2292/miniconda3/envs/newamoebamdpoltype/share/psi4/basis/cc-pvtz-jkfit.gbs 
    atoms 5, 21-23, 25-34   entry H          line    51 file /home/bdw2292/miniconda3/envs/newamoebamdpoltype/share/psi4/basis/cc-pvtz-jkfit.gbs 
    atoms 24                entry O          line   229 file /home/bdw2292/miniconda3/envs/newamoebamdpoltype/share/psi4/basis/cc-pvtz-jkfit.gbs 

  ==> Integral Setup <==

  DFHelper Memory: AOs need 3.153 GiB; user supplied 3.153 GiB. Using in-core AOs.

  ==> MemDFJK: Density-Fitted J/K Matrices <==

    J tasked:                   Yes
    K tasked:                   Yes
    wK tasked:                  Yes
    Omega:                2.000E-01
    OpenMP threads:               2
    Memory [MiB]:              3229
    Algorithm:                 Core
    Schwarz Cutoff:           1E-12
    Mask sparsity (%):      23.8696
    Fitting Condition:        1E-10

   => Auxiliary Basis Set <=

  Basis Set: (6-311G AUX)
    Blend: CC-PVTZ-JKFIT
    Number of shells: 640
    Number of basis functions: 2000
    Number of Cartesian functions: 2410
    Spherical Harmonics?: true
    Max angular momentum: 4

  Cached 50.0% of DFT collocation blocks in 1.463 [GiB].

  Minimum eigenvalue in the overlap matrix is 2.6354065944E-04.
  Reciprocal condition number of the overlap matrix is 3.9635855876E-05.
    Using symmetric orthogonalization.

  ==> Pre-Iterations <==

  SCF Guess: Superposition of Atomic Densities via on-the-fly atomic UHF (no occupation information).

   -------------------------
    Irrep   Nso     Nmo    
   -------------------------
     A        302     302 
   -------------------------
    Total     302     302
   -------------------------

  ==> Iterations <==

                           Total Energy        Delta E     RMS |[F,P]|

   @DF-RKS iter SAD:  -839.81426581615278   -8.39814e+02   0.00000e+00 
   @DF-RKS iter   1:  -839.97130663430505   -1.57041e-01   3.64673e-03 DIIS
   @DF-RKS iter   2:  -840.12196040269350   -1.50654e-01   3.41886e-03 DIIS
   @DF-RKS iter   3:  -840.52965317942801   -4.07693e-01   9.73476e-04 DIIS
   @DF-RKS iter   4:  -840.56402395254247   -3.43708e-02   1.84434e-04 DIIS
   @DF-RKS iter   5:  -840.56531708532839   -1.29313e-03   7.84081e-05 DIIS
   @DF-RKS iter   6:  -840.56562527091103   -3.08186e-04   2.37475e-05 DIIS
   @DF-RKS iter   7:  -840.56567070214601   -4.54312e-05   1.08483e-05 DIIS
   @DF-RKS iter   8:  -840.56568923723933   -1.85351e-05   4.31839e-06 DIIS
   @DF-RKS iter   9:  -840.56570064388166   -1.14066e-05   2.81353e-06 DIIS
   @DF-RKS iter  10:  -840.56570456992631   -3.92604e-06   1.48249e-06 DIIS
   @DF-RKS iter  11:  -840.56570664728406   -2.07736e-06   1.33015e-06 DIIS
   @DF-RKS iter  12:  -840.56570815287193   -1.50559e-06   1.22561e-06 DIIS
   @DF-RKS iter  13:  -840.56571191689693   -3.76402e-06   1.09469e-06 DIIS
   @DF-RKS iter  14:  -840.56571941499112   -7.49809e-06   9.08728e-07 DIIS
   @DF-RKS iter  15:  -840.56572403980317   -4.62481e-06   6.77369e-07 DIIS
   @DF-RKS iter  16:  -840.56572435592625   -3.16123e-07   4.88251e-07 DIIS
   @DF-RKS iter  17:  -840.56572498720072   -6.31274e-07   2.77065e-07 DIIS
   @DF-RKS iter  18:  -840.56572499219260   -4.99188e-09   6.83572e-08 DIIS
   @DF-RKS iter  19:  -840.56572499256993   -3.77327e-10   4.09768e-08 DIIS
   @DF-RKS iter  20:  -840.56572499268850   -1.18575e-10   1.06064e-08 DIIS
   @DF-RKS iter  21:  -840.56572499270897   -2.04636e-11   5.29121e-09 DIIS
  Energy and wave function converged.


  ==> Post-Iterations <==

   Electrons on quadrature grid:
      Ntotal   =  137.9998651783 ; deviation = -1.348e-04 

    Orbital Energies [Eh]
    ---------------------

    Doubly Occupied:                                                      

       1A    -19.135310     2A    -14.537887     3A    -14.429806  
       4A    -10.419866     5A    -10.379250     6A    -10.338414  
       7A    -10.337519     8A    -10.331797     9A    -10.330545  
      10A    -10.326966    11A    -10.326539    12A    -10.325428  
      13A    -10.321982    14A    -10.321327    15A    -10.319027  
      16A    -10.316210    17A    -10.315679    18A    -10.274456  
      19A    -10.261908    20A    -10.239403    21A     -1.113296  
      22A     -1.084446    23A     -1.011453    24A     -0.992727  
      25A     -0.981888    26A     -0.920383    27A     -0.883183  
      28A     -0.876401    29A     -0.871278    30A     -0.855048  
      31A     -0.808447    32A     -0.761531    33A     -0.745925  
      34A     -0.737310    35A     -0.725003    36A     -0.701337  
      37A     -0.677738    38A     -0.662819    39A     -0.654708  
      40A     -0.632266    41A     -0.610582    42A     -0.588058  
      43A     -0.580157    44A     -0.564898    45A     -0.561920  
      46A     -0.556823    47A     -0.544317    48A     -0.542796  
      49A     -0.532084    50A     -0.520705    51A     -0.503732  
      52A     -0.491167    53A     -0.487342    54A     -0.480960  
      55A     -0.476216    56A     -0.470356    57A     -0.461434  
      58A     -0.454417    59A     -0.449139    60A     -0.442597  
      61A     -0.425390    62A     -0.367246    63A     -0.361104  
      64A     -0.358968    65A     -0.350867    66A     -0.335400  
      67A     -0.301187    68A     -0.276990    69A     -0.201291  

    Virtual:                                                              

      70A     -0.041209    71A      0.028479    72A      0.033724  
      73A      0.046185    74A      0.062451    75A      0.102938  
      76A      0.116234    77A      0.121543    78A      0.138127  
      79A      0.145923    80A      0.152242    81A      0.155449  
      82A      0.158334    83A      0.167918    84A      0.175189  
      85A      0.186879    86A      0.187630    87A      0.191935  
      88A      0.197719    89A      0.199987    90A      0.204115  
      91A      0.214420    92A      0.231206    93A      0.267052  
      94A      0.274794    95A      0.294469    96A      0.307869  
      97A      0.320154    98A      0.322743    99A      0.327528  
     100A      0.334052   101A      0.339765   102A      0.343984  
     103A      0.352016   104A      0.359072   105A      0.369250  
     106A      0.393299   107A      0.394133   108A      0.405027  
     109A      0.408159   110A      0.420596   111A      0.424709  
     112A      0.432848   113A      0.441642   114A      0.445135  
     115A      0.458046   116A      0.464093   117A      0.465921  
     118A      0.471999   119A      0.478929   120A      0.483560  
     121A      0.484536   122A      0.491488   123A      0.494769  
     124A      0.496578   125A      0.498453   126A      0.508697  
     127A      0.514853   128A      0.519488   129A      0.533633  
     130A      0.534503   131A      0.541451   132A      0.543825  
     133A      0.552512   134A      0.563187   135A      0.570319  
     136A      0.572315   137A      0.581371   138A      0.585350  
     139A      0.600481   140A      0.607964   141A      0.616928  
     142A      0.622324   143A      0.628516   144A      0.636457  
     145A      0.656944   146A      0.664710   147A      0.671136  
     148A      0.672909   149A      0.677512   150A      0.681576  
     151A      0.686317   152A      0.688076   153A      0.694897  
     154A      0.702102   155A      0.710760   156A      0.716830  
     157A      0.728707   158A      0.729862   159A      0.738562  
     160A      0.743641   161A      0.757978   162A      0.763512  
     163A      0.770040   164A      0.783635   165A      0.786282  
     166A      0.802584   167A      0.818393   168A      0.821143  
     169A      0.829615   170A      0.834941   171A      0.839133  
     172A      0.843320   173A      0.851466   174A      0.854986  
     175A      0.858864   176A      0.871823   177A      0.877591  
     178A      0.890911   179A      0.898708   180A      0.914118  
     181A      0.928156   182A      0.935836   183A      0.949441  
     184A      0.954845   185A      0.970136   186A      0.998409  
     187A      1.009608   188A      1.011867   189A      1.035245  
     190A      1.049218   191A      1.066363   192A      1.076151  
     193A      1.087252   194A      1.093469   195A      1.115265  
     196A      1.132026   197A      1.153044   198A      1.165708  
     199A      1.182089   200A      1.191131   201A      1.252433  
     202A      1.312166   203A      1.336794   204A      1.353036  
     205A      1.383991   206A      1.483402   207A      1.509126  
     208A      1.872285   209A      2.275263   210A      2.295082  
     211A      2.324436   212A      2.328106   213A      2.338279  
     214A      2.369291   215A      2.383178   216A      2.402920  
     217A      2.416867   218A      2.430991   219A      2.440618  
     220A      2.504024   221A      2.574400   222A      2.598305  
     223A      2.607302   224A      2.623301   225A      2.639742  
     226A      2.651104   227A      2.663920   228A      2.692802  
     229A      2.710576   230A      2.724068   231A      2.750704  
     232A      2.756282   233A      2.764320   234A      2.785868  
     235A      2.791720   236A      2.811349   237A      2.823716  
     238A      2.826693   239A      2.847891   240A      2.851320  
     241A      2.864754   242A      2.889342   243A      2.899979  
     244A      2.924424   245A      2.937591   246A      2.955480  
     247A      2.969078   248A      2.988710   249A      2.992247  
     250A      3.028702   251A      3.067929   252A      3.090343  
     253A      3.106222   254A      3.120199   255A      3.155838  
     256A      3.172168   257A      3.188419   258A      3.207328  
     259A      3.237016   260A      3.239196   261A      3.248427  
     262A      3.277149   263A      3.285775   264A      3.311181  
     265A      3.312863   266A      3.325588   267A      3.331994  
     268A      3.344613   269A      3.354718   270A      3.367297  
     271A      3.468689   272A      3.493031   273A      3.522946  
     274A      3.841266   275A      3.867498   276A      4.137425  
     277A      4.160169   278A      4.258139   279A      4.283273  
     280A      5.066593   281A      5.141202   282A      5.174003  
     283A     23.216159   284A     23.243617   285A     23.384462  
     286A     23.442927   287A     23.458667   288A     23.476167  
     289A     23.488020   290A     23.548452   291A     23.615776  
     292A     23.684375   293A     23.716882   294A     23.725524  
     295A     23.741946   296A     23.748240   297A     23.912407  
     298A     23.952320   299A     23.973478   300A     35.515393  
     301A     35.558472   302A     50.146990  

    Final Occupation by Irrep:
              A 
    DOCC [    69 ]

  @DF-RKS Final Energy:  -840.56572499270897

   => Energetics <=

    Nuclear Repulsion Energy =           1407.8773065956365826
    One-Electron Energy =               -3933.6248250886037567
    Two-Electron Energy =                1767.7364102490294044
    DFT Exchange-Correlation Energy =     -82.5306029902533282
    Empirical Dispersion Energy =          -0.0240137585177951
    VV10 Nonlocal Energy =                  0.0000000000000000
    Total Energy =                       -840.5657249927088515

Computation Completed


Properties will be evaluated at   0.000000,   0.000000,   0.000000 [a0]

Properties computed using the SCF density matrix

  Nuclear Dipole Moment: [e a0]
     X:     4.6185      Y:     6.6925      Z:    -1.1537

  Electronic Dipole Moment: [e a0]
     X:    -2.4629      Y:    -4.4973      Z:     1.1402

  Dipole Moment: [e a0]
     X:     2.1556      Y:     2.1952      Z:    -0.0135     Total:     3.0766

  Dipole Moment: [D]
     X:     5.4790      Y:     5.5795      Z:    -0.0343     Total:     7.8200


*** tstop() called on node74.bme.utexas.edu at Wed Jun  8 19:32:11 2022
Module time:
	user time   =     332.06 seconds =       5.53 minutes
	system time =       6.42 seconds =       0.11 minutes
	total time  =        171 seconds =       2.85 minutes
Total time:
	user time   =     332.06 seconds =       5.53 minutes
	system time =       6.42 seconds =       0.11 minutes
	total time  =        171 seconds =       2.85 minutes

*** tstart() called on node74.bme.utexas.edu
*** at Wed Jun  8 19:32:11 2022


         ------------------------------------------------------------
                                   SCF GRAD                          
                          Rob Parrish, Justin Turney,                
                       Andy Simmonett, and Alex Sokolov              
         ------------------------------------------------------------

  ==> Geometry <==

    Molecular point group: c1
    Full point group: C1

    Geometry (in Angstrom), charge = 0, multiplicity = 1:

       Center              X                  Y                   Z               Mass       
    ------------   -----------------  -----------------  -----------------  -----------------
         C           -0.476972273079    -0.308974769893     0.401750410653    12.000000000000
         N            0.808947726921    -0.664130769893     0.752205410653    14.003074004430
         C            2.065024726921    -0.113796769893     0.389246410653    12.000000000000
         C            3.198828726921    -0.965370769893     0.342521410653    12.000000000000
         H            0.830900726921    -1.353398769893     1.518834410653     1.007825032230
         C            2.237136726921     1.273325230107     0.147302410653    12.000000000000
         C           -1.508346273079    -0.839764769893     1.162071410653    12.000000000000
         N           -3.081004273079    -2.334116769893     1.789483410653    14.003074004430
         C           -2.182265273079    -0.335883769893     2.332499410653    12.000000000000
         C           -2.106206273079    -2.145366769893     0.836743410653    12.000000000000
         C           -3.126851273079    -1.253405769893     2.676081410653    12.000000000000
         C           -0.764178273079     0.628586230107    -0.717626589347    12.000000000000
         C           -0.159838273079     0.436875230107    -1.987008589347    12.000000000000
         C           -1.612844273079     1.748671230107    -0.524528589347    12.000000000000
         C           -0.399902273079     1.339610230107    -3.031243589347    12.000000000000
         C           -1.851195273079     2.646368230107    -1.573975589347    12.000000000000
         C           -1.246424273079     2.448955230107    -2.832092589347    12.000000000000
         C            4.461113726921    -0.445143769893     0.024642410653    12.000000000000
         C            3.503536726921     1.782721230107    -0.171439589347    12.000000000000
         C            4.623872726921     0.929942230107    -0.238796589347    12.000000000000
         H            3.091152726921    -2.033540769893     0.545309410653     1.007825032230
         H            1.389039726921     1.956749230107     0.207408410653     1.007825032230
         H           -3.658262273079    -3.162264769893     1.802596410653     1.007825032230
         O           -1.813417273079    -2.947442769893    -0.074603589347    15.994914619570
         H            0.494235726921    -0.422106769893    -2.149357589347     1.007825032230
         H           -2.080613273079     1.913222230107     0.447453410653     1.007825032230
         H            0.073403726921     1.181972230107    -4.001908589347     1.007825032230
         H           -2.505777273079     3.504551230107    -1.412197589347     1.007825032230
         H           -1.432068273079     3.150755230107    -3.647256589347     1.007825032230
         H            5.320363726921    -1.116871769893    -0.017445589347     1.007825032230
         H            3.615244726921     2.850746230107    -0.366188589347     1.007825032230
         H           -1.980724273079     0.592715230107     2.847502410653     1.007825032230
         H           -3.835600273079    -1.248702769893     3.492615410653     1.007825032230
         H            5.607494726921     1.330869230107    -0.489742589347     1.007825032230

  Nuclear repulsion = 1407.877306595636583

  ==> Basis Set <==

  Basis Set: 6-311G
    Blend: 6-311G
    Number of shells: 182
    Number of basis functions: 302
    Number of Cartesian functions: 302
    Spherical Harmonics?: true
    Max angular momentum: 1

  ==> DFJKGrad: Density-Fitted SCF Gradients <==

    Gradient:                    1
    J tasked:                  Yes
    K tasked:                  Yes
    wK tasked:                 Yes
    Omega:               2.000E-01
    OpenMP threads:              2
    Integrals threads:           2
    Memory [MiB]:             5841
    Schwarz Cutoff:          1E-12
    Fitting Condition:       1E-10

   => Auxiliary Basis Set <=

  Basis Set: (6-311G AUX)
    Blend: CC-PVTZ-JKFIT
    Number of shells: 640
    Number of basis functions: 2000
    Number of Cartesian functions: 2410
    Spherical Harmonics?: true
    Max angular momentum: 4

  ==> DFT Potential <==

   => LibXC <=

    Version 5.1.5
    S. Lehtola, C. Steigemann, M. J. Oliveira, and M. A. Marques, SoftwareX 7, 1 (2018) (10.1016/j.softx.2017.11.002)

   => Composite Functional: WB97X-D <= 

    wB97X-D Hyb-GGA Exchange-Correlation Functional

    J.-D. Chai and M. Head-Gordon, Phys. Chem. Chem. Phys. 10, 6615 (2008) (10.1039/B810189B)

    Deriv               =              1
    GGA                 =           TRUE
    Meta                =          FALSE

    Exchange Hybrid     =           TRUE
    MP2 Hybrid          =          FALSE

   => Exchange-Correlation Functionals <=

    1.0000   wB97X-D range-separated functional

   => Exact (HF) Exchange <=

    0.7780            HF,LR [omega = 0.2000]
    0.2220               HF 

   => LibXC Density Thresholds  <==

    XC_HYB_GGA_XC_WB97X_D:  1.00E-14 

   => Molecular Quadrature <=

    Radial Scheme          =       TREUTLER
    Pruning Scheme         =           NONE
    Nuclear Scheme         =       TREUTLER

    BS radius alpha        =              1
    Pruning alpha          =              1
    Radial Points          =             75
    Spherical Points       =            302
    Total Points           =         701100
    Total Blocks           =           5004
    Max Points             =            256
    Max Functions          =            215
    Weights Tolerance      =       1.00E-15


  -Total Gradient:
     Atom            X                  Y                   Z
    ------   -----------------  -----------------  -----------------
       1       -0.049286420030    -0.015446573994     0.000341677418
       2        0.039500160979    -0.004583166208     0.001712954449
       3       -0.027424418019    -0.010153904610     0.011339735273
       4        0.007312901019    -0.006235216229     0.000842111718
       5        0.004785002992    -0.008187657703     0.012752513680
       6        0.000874288794     0.007378183986    -0.000639452546
       7        0.029512158685     0.037468321782    -0.015090348768
       8        0.007174309011    -0.004734772173    -0.008469227468
       9        0.002987141516    -0.002162168128     0.004694635542
      10       -0.017501865681    -0.024420866404    -0.004819198625
      11        0.013706388461     0.004512595955    -0.012874300089
      12       -0.014533036146    -0.009638537457     0.008921784863
      13        0.001005338978    -0.002708876228    -0.004296597126
      14       -0.000640851223     0.006062970246     0.001318857288
      15        0.005293171690    -0.002653070250    -0.003004296212
      16       -0.004998816293     0.003288880907     0.003123749531
      17       -0.002195377857     0.005988449679    -0.006288406491
      18        0.001540753639    -0.006715433184    -0.000168591197
      19       -0.002923721329     0.007309325935    -0.000204600622
      20        0.008322755671     0.003853816277    -0.001608527218
      21        0.001027252295    -0.006811720253     0.001817851622
      22       -0.004526925516     0.005960970374     0.000497298707
      23       -0.004245629506    -0.007026122549    -0.000705888928
      24       -0.004367633507     0.015932944458     0.017708241617
      25        0.004460196861    -0.005387070008    -0.001504724995
      26       -0.002118066452     0.003095379898     0.006070933719
      27        0.003525044625    -0.000362131828    -0.006197120753
      28       -0.004137124313     0.005794976698     0.000721094926
      29       -0.001130156268     0.004601636077    -0.005364050211
      30        0.005624699086    -0.004485040695    -0.000420433481
      31        0.000739202536     0.007009507272    -0.001627885086
      32        0.000305045295     0.001752773456     0.001203473767
      33       -0.003942846805    -0.001045857706     0.002188953078
      34        0.006627259364     0.002796226364    -0.001774079281


*** tstop() called on node74.bme.utexas.edu at Wed Jun  8 19:33:09 2022
Module time:
	user time   =     110.74 seconds =       1.85 minutes
	system time =       1.46 seconds =       0.02 minutes
	total time  =         58 seconds =       0.97 minutes
Total time:
	user time   =     442.80 seconds =       7.38 minutes
	system time =       7.89 seconds =       0.13 minutes
	total time  =        229 seconds =       3.82 minutes

			-----------------------------------------
			 OPTKING 2.0: for geometry optimizations 
			  - R.A. King,  Bethel University        
			-----------------------------------------
	At level 1: Red. Int., RFO, no backsteps, dynamic trust

	Internal coordinates to be generated automatically.
	Detected frag 1 with atoms:  1 2 3 4 5 6 7 8 9 10 11 12 13 14 15 16 17 18 19 20
	 21 22 23 24 25 26 27 28 29 30 31 32 33 34
	---Fragment 1 Bond Connectivity---
	 1 : 2 7 12
	 2 : 1 3 5
	 3 : 2 4 6
	 4 : 3 18 21
	 5 : 2
	 6 : 3 19 22
	 7 : 1 9 10
	 8 : 10 11 23
	 9 : 7 11 32
	 10 : 7 8 24
	 11 : 8 9 33
	 12 : 1 13 14
	 13 : 12 15 25
	 14 : 12 16 26
	 15 : 13 17 27
	 16 : 14 17 28
	 17 : 15 16 29
	 18 : 4 20 30
	 19 : 6 20 31
	 20 : 18 19 34
	 21 : 4
	 22 : 6
	 23 : 8
	 24 : 10
	 25 : 13
	 26 : 14
	 27 : 15
	 28 : 16
	 29 : 17
	 30 : 18
	 31 : 19
	 32 : 9
	 33 : 11
	 34 : 20

	Assuming in current code that numbering for constraints corresponds to unified fragment.
	Frozen dihedral atom list: 
	     2     1    12    13
	     7     1     2     3
	     1     2     3     4
	---Fragment 1 Geometry and Gradient---
	 C          -0.9013469656       -0.5838776948        0.7591982469
	 N           1.5286896537       -1.2550252666        1.4214622162
	 C           3.9023311762       -0.2150447291        0.7355691115
	 C           6.0449102161       -1.8242863646        0.6472716582
	 H           1.5701748113       -2.5575530136        2.8701810661
	 C           4.2275757191        2.4062359535        0.2783612138
	 C          -2.8503613585       -1.5869254249        2.1959967044
	 N          -5.8222542675       -4.4108414399        3.3816335522
	 C          -4.1238836992       -0.6347283351        4.4077850739
	 C          -3.9801530198       -4.0541556338        1.5812158834
	 C          -5.9088925412       -2.3685936292        5.0570609556
	 C          -1.4440876471        1.1878558211       -1.3561177142
	 C          -0.3020505605        0.8255745359       -3.7549020428
	 C          -3.0478339591        3.3045097084       -0.9912153788
	 C          -0.7557057731        2.5314964498       -5.7282202034
	 C          -3.4982520709        5.0009111820       -2.9743827920
	 C          -2.3554005122        4.6278546784       -5.3518793558
	 C           8.4302831584       -0.8411998116        0.0465674072
	 C           6.6207248844        3.3688548829       -0.3239738709
	 C           8.7378530929        1.7573361274       -0.4512601536
	 H           5.8414320658       -3.8428351201        1.0304854398
	 H           2.6249046613        3.6977201411        0.3919450923
	 H          -6.9131137912       -5.9758143513        3.4064135309
	 O          -3.4268619973       -5.5698596056       -0.1409803518
	 H           0.9339701653       -0.7976661908       -4.0616971895
	 H          -3.9317892591        3.6154660320        0.8455644000
	 H           0.1387129405        2.2336038028       -7.5625112130
	 H          -4.7352327775        6.6226420175       -2.6686666789
	 H          -2.7062168291        5.9540644733       -6.8923160631
	 H          10.0540303317       -2.1105817624       -0.0329673860
	 H           6.8318224104        5.3871296281       -0.6919961441
	 H          -3.7430264062        1.1200694553        5.3809996977
	 H          -7.2482340429       -2.3597062472        6.6000865877
	 H          10.5966292838        2.5149783537       -0.9254793658
	            -0.0492864200       -0.0154465740        0.0003416774
	             0.0395001610       -0.0045831662        0.0017129544
	            -0.0274244180       -0.0101539046        0.0113397353
	             0.0073129010       -0.0062352162        0.0008421117
	             0.0047850030       -0.0081876577        0.0127525137
	             0.0008742888        0.0073781840       -0.0006394525
	             0.0295121587        0.0374683218       -0.0150903488
	             0.0071743090       -0.0047347722       -0.0084692275
	             0.0029871415       -0.0021621681        0.0046946355
	            -0.0175018657       -0.0244208664       -0.0048191986
	             0.0137063885        0.0045125960       -0.0128743001
	            -0.0145330361       -0.0096385375        0.0089217849
	             0.0010053390       -0.0027088762       -0.0042965971
	            -0.0006408512        0.0060629702        0.0013188573
	             0.0052931717       -0.0026530702       -0.0030042962
	            -0.0049988163        0.0032888809        0.0031237495
	            -0.0021953779        0.0059884497       -0.0062884065
	             0.0015407536       -0.0067154332       -0.0001685912
	            -0.0029237213        0.0073093259       -0.0002046006
	             0.0083227557        0.0038538163       -0.0016085272
	             0.0010272523       -0.0068117203        0.0018178516
	            -0.0045269255        0.0059609704        0.0004972987
	            -0.0042456295       -0.0070261225       -0.0007058889
	            -0.0043676335        0.0159329445        0.0177082416
	             0.0044601969       -0.0053870700       -0.0015047250
	            -0.0021180665        0.0030953799        0.0060709337
	             0.0035250446       -0.0003621318       -0.0061971208
	            -0.0041371243        0.0057949767        0.0007210949
	            -0.0011301563        0.0046016361       -0.0053640502
	             0.0056246991       -0.0044850407       -0.0004204335
	             0.0007392025        0.0070095073       -0.0016278851
	             0.0003050453        0.0017527735        0.0012034738
	            -0.0039428468       -0.0010458577        0.0021889531
	             0.0066272594        0.0027962264       -0.0017740793

	Previous optimization step data not found.  Starting new optimization.

	---Fragment 1 Intrafragment Coordinates---
	 - Coordinate -           - BOHR/RAD -       - ANG/DEG -
	 R(1,2)           =         2.606551	       1.379328
	 R(1,7)           =         2.620907	       1.386924
	 R(1,12)          =         2.812147	       1.488124
	 R(2,3)           =         2.680706	       1.418568
	 R(2,5)           =         1.948611	       1.031161
	 R(3,4)           =         2.681063	       1.418758
	 R(3,6)           =         2.680660	       1.418544
	 R(4,18)          =         2.649020	       1.401801
	 R(4,21)          =         2.064654	       1.092568
	 R(6,19)          =         2.648888	       1.401731
	 R(6,22)          =         2.061404	       1.090848
	 R(7,9)           =         2.724068	       1.441515
	 R(7,10)          =         2.782375	       1.472369
	 R(8,10)          =         2.600397	       1.376071
	 R(8,11)          =         2.642979	       1.398604
	 R(8,23)          =         1.907807	       1.009568
	 R(9,11)          =         2.571790	       1.360933
	 R(9,32)          =         2.042429	       1.080807
	 R(10,24)         =         2.359968	       1.248841
	 R(11,33)         =         2.043243	       1.081238
	 R(12,13)         =         2.681355	       1.418912
	 R(12,14)         =         2.680556	       1.418489
	 R(13,15)         =         2.647632	       1.401067
	 R(13,25)         =         2.063197	       1.091797
	 R(14,16)         =         2.648322	       1.401431
	 R(14,26)         =         2.061997	       1.091162
	 R(15,17)         =         2.663714	       1.409577
	 R(15,27)         =         2.062365	       1.091356
	 R(16,17)         =         2.664164	       1.409815
	 R(16,28)         =         2.062424	       1.091388
	 R(17,29)         =         2.062729	       1.091549
	 R(18,20)         =         2.663610	       1.409522
	 R(18,30)         =         2.062574	       1.091467
	 R(19,20)         =         2.663724	       1.409582
	 R(19,31)         =         2.062386	       1.091368
	 R(20,34)         =         2.062512	       1.091434
	 B(1,2,3)         =         2.292402	     131.344976
	 B(1,2,5)         =         1.961520	     112.386791
	 B(1,7,9)         =         2.290277	     131.223220
	 B(1,7,10)        =         2.117871	     121.345080
	 B(1,12,13)       =         2.100886	     120.371927
	 B(1,12,14)       =         2.106635	     120.701321
	 B(2,1,7)         =         2.043678	     117.094118
	 B(2,1,12)        =         2.133258	     122.226665
	 B(2,3,4)         =         2.075082	     118.893429
	 B(2,3,6)         =         2.129902	     122.034411
	 B(3,2,5)         =         2.016059	     115.511645
	 B(3,4,18)        =         2.099405	     120.287063
	 B(3,4,21)        =         2.096648	     120.129096
	 B(3,6,19)        =         2.098736	     120.248733
	 B(3,6,22)        =         2.104705	     120.590695
	 B(4,3,6)         =         2.076418	     118.969982
	 B(4,18,20)       =         2.104131	     120.557810
	 B(4,18,30)       =         2.082014	     119.290611
	 B(6,19,20)       =         2.104908	     120.602319
	 B(6,19,31)       =         2.081376	     119.254067
	 B(7,1,12)        =         2.105936	     120.661263
	 B(7,9,11)        =         1.869003	     107.085972
	 B(7,9,32)        =         2.214342	     126.872465
	 B(7,10,8)        =         1.829982	     104.850238
	 B(7,10,24)       =         2.259525	     129.461222
	 B(8,10,24)       =         2.193508	     125.678769
	 B(8,11,9)        =         1.915754	     109.764639
	 B(8,11,33)       =         2.098525	     120.236623
	 B(9,7,10)        =         1.874995	     107.429285
	 B(9,11,33)       =         2.268794	     129.992322
	 B(10,8,11)       =         1.934922	     110.862858
	 B(10,8,23)       =         2.125345	     121.773288
	 B(11,8,23)       =         2.222917	     127.363778
	 B(11,9,32)       =         2.199838	     126.041453
	 B(12,13,15)      =         2.102192	     120.446743
	 B(12,13,25)      =         2.088042	     119.635980
	 B(12,14,16)      =         2.100898	     120.372569
	 B(12,14,26)      =         2.090727	     119.789838
	 B(13,12,14)      =         2.075209	     118.900744
	 B(13,15,17)      =         2.099811	     120.310293
	 B(13,15,27)      =         2.089224	     119.703697
	 B(14,16,17)      =         2.100884	     120.371812
	 B(14,16,28)      =         2.088274	     119.649314
	 B(15,13,25)      =         2.092948	     119.917089
	 B(15,17,16)      =         2.087370	     119.597481
	 B(15,17,29)      =         2.097428	     120.173791
	 B(16,14,26)      =         2.091558	     119.837427
	 B(16,17,29)      =         2.098387	     120.228726
	 B(17,15,27)      =         2.094149	     119.985911
	 B(17,16,28)      =         2.094017	     119.978364
	 B(18,4,21)       =         2.087089	     119.581404
	 B(18,20,19)      =         2.082312	     119.307676
	 B(18,20,34)      =         2.100645	     120.358074
	 B(19,6,22)       =         2.079744	     119.160542
	 B(19,20,34)      =         2.100225	     120.334053
	 B(20,18,30)      =         2.097041	     120.151578
	 B(20,19,31)      =         2.096900	     120.143528
	*D(1,2,3,4)       =        -2.626570	    -150.491356
	 D(1,2,3,6)       =         0.579858	      33.223430
	 D(1,7,9,11)      =         3.136585	     179.713073
	 D(1,7,9,32)      =        -0.007026	      -0.402584
	 D(1,7,10,8)      =        -3.138889	    -179.845085
	 D(1,7,10,24)     =         0.021971	       1.258855
	 D(1,12,13,15)    =        -3.110501	    -178.218558
	 D(1,12,13,25)    =         0.033850	       1.939480
	 D(1,12,14,16)    =         3.112806	     178.350667
	 D(1,12,14,26)    =        -0.026200	      -1.501141
	 D(2,1,7,9)       =         1.599795	      91.661479
	 D(2,1,7,10)      =        -1.530607	     -87.697302
	*D(2,1,12,13)     =         0.863594	      49.480264
	 D(2,1,12,14)     =        -2.245268	    -128.644352
	 D(2,3,4,18)      =        -3.109798	    -178.178322
	 D(2,3,4,21)      =         0.041747	       2.391933
	 D(2,3,6,19)      =         3.109252	     178.147030
	 D(2,3,6,22)      =        -0.031240	      -1.789936
	*D(3,2,1,7)       =        -2.884135	    -165.248762
	 D(3,2,1,12)      =         0.230702	      13.218269
	 D(3,4,18,20)     =         0.011488	       0.658219
	 D(3,4,18,30)     =        -3.129931	    -179.331838
	 D(3,6,19,20)     =        -0.014558	      -0.834129
	 D(3,6,19,31)     =         3.128899	     179.272725
	 D(4,3,2,5)       =         0.704892	      40.387329
	 D(4,3,6,19)      =         0.032543	       1.864564
	 D(4,3,6,22)      =        -3.107950	    -178.072402
	 D(4,18,20,19)    =         0.006933	       0.397213
	 D(4,18,20,34)    =        -3.137471	    -179.763868
	 D(5,2,1,7)       =         0.072188	       4.136053
	 D(5,2,1,12)      =        -3.096160	    -177.396916
	 D(5,2,3,6)       =        -2.371866	    -135.897885
	 D(6,3,4,18)      =        -0.031027	      -1.777699
	 D(6,3,4,21)      =         3.120519	     178.792557
	 D(6,19,20,18)    =        -0.005395	      -0.309108
	 D(6,19,20,34)    =         3.139008	     179.851934
	 D(7,1,12,13)     =        -2.305690	    -132.106294
	 D(7,1,12,14)     =         0.868634	      49.769091
	 D(7,9,11,8)      =         0.012779	       0.732169
	 D(7,9,11,33)     =         3.137991	     179.793614
	 D(7,10,8,11)     =        -0.003975	      -0.227774
	 D(7,10,8,23)     =         3.139248	     179.865648
	 D(8,10,7,9)      =         0.011526	       0.660411
	 D(8,11,9,32)     =        -3.126817	    -179.153406
	 D(9,7,1,12)      =        -1.515486	     -86.830956
	 D(9,7,10,24)     =        -3.110799	    -178.235649
	 D(9,11,8,10)     =        -0.005570	      -0.319147
	 D(9,11,8,23)     =         3.134278	     179.580926
	 D(10,7,1,12)     =         1.637298	      93.810263
	 D(10,7,9,11)     =        -0.015026	      -0.860911
	 D(10,7,9,32)     =         3.124548	     179.023432
	 D(10,8,11,33)    =        -3.132637	    -179.486869
	 D(11,8,10,24)    =         3.119305	     178.722986
	 D(12,13,15,17)   =        -0.000908	      -0.052044
	 D(12,13,15,27)   =         3.138688	     179.833547
	 D(12,14,16,17)   =        -0.003935	      -0.225463
	 D(12,14,16,28)   =        -3.140995	    -179.965770
	 D(13,12,14,16)   =         0.003470	       0.198843
	 D(13,12,14,26)   =        -3.135536	    -179.652965
	 D(13,15,17,16)   =         0.000489	       0.028021
	 D(13,15,17,29)   =        -3.141373	    -179.987393
	 D(14,12,13,15)   =        -0.001055	      -0.060475
	 D(14,12,13,25)   =        -3.139890	    -179.902436
	 D(14,16,17,15)   =         0.001933	       0.110764
	 D(14,16,17,29)   =        -3.139390	    -179.873814
	 D(15,17,16,28)   =         3.138978	     179.850215
	 D(16,17,15,27)   =        -3.139101	    -179.857247
	 D(17,15,13,25)   =         3.137918	     179.789473
	 D(17,16,14,26)   =         3.135070	     179.626275
	 D(18,20,19,31)   =         3.134316	     179.583088
	 D(19,20,18,30)   =        -3.134835	    -179.612815
	 D(20,18,4,21)    =        -3.140003	    -179.908916
	 D(20,19,6,22)    =         3.125950	     179.103734
	 D(21,4,18,30)    =         0.001763	       0.101027
	 D(22,6,19,31)    =        -0.013778	      -0.789412
	 D(23,8,10,24)    =        -0.020658	      -1.183592
	 D(23,8,11,33)    =         0.007212	       0.413204
	 D(25,13,15,27)   =        -0.005671	      -0.324936
	 D(26,14,16,28)   =        -0.001990	      -0.114032
	 D(27,15,17,29)   =         0.002222	       0.127340
	 D(28,16,17,29)   =        -0.002345	      -0.134363
	 D(30,18,20,34)   =         0.003946	       0.226103
	 D(31,19,20,34)   =        -0.004466	      -0.255870
	 D(32,9,11,33)    =        -0.001605	      -0.091961
	 R(3,13)          =         6.238914	       3.301491
	 R(6,12)          =         6.026918	       3.189307
	 R(6,13)          =         6.267633	       3.316688
	 R(9,14)          =         6.769393	       3.582209

	Current energy   :      -840.5657249927

	Generating empirical Hessian (Schlegel '84) for each fragment.
	Taking RFO optimization step.
	Going to follow RFO solution 1.
	Using RFO vector 1.
	Norm of target step-size    0.35878
	Projected energy change by RFO approximation:        -0.0255694843

	Back-transformation to cartesian coordinates...
	Could not converge backtransformation.
	Using first guess instead.

	Back-transformation to cartesian coordinates to adjust frozen coordinates...
	Successfully converged to displaced geometry.

	--- Internal Coordinate Step in ANG or DEG, aJ/ANG or AJ/DEG ---
	 ---------------------------------------------------------------------------
	   Coordinate                Previous        Force       Change         New 
	   ----------                --------       ------       ------       ------
	    1 R(1,2)          =      1.379328    -0.334109    -0.032012     1.347316
	    2 R(1,7)          =      1.386924     0.286574     0.063270     1.450194
	    3 R(1,12)         =      1.488124    -0.055287    -0.005023     1.483101
	    4 R(2,3)          =      1.418568     0.066800     0.035227     1.453795
	    5 R(2,5)          =      1.031161    -0.124014    -0.007463     1.023698
	    6 R(3,4)          =      1.418758    -0.168248    -0.009499     1.409258
	    7 R(3,6)          =      1.418544    -0.164447    -0.002500     1.416044
	    8 R(4,18)         =      1.401801    -0.093646     0.014361     1.416162
	    9 R(4,21)         =      1.092568    -0.056803     0.007594     1.100162
	   10 R(6,19)         =      1.401731    -0.094395     0.014020     1.415751
	   11 R(6,22)         =      1.090848    -0.060064     0.000410     1.091258
	   12 R(7,9)          =      1.441515     0.041504     0.029951     1.471466
	   13 R(7,10)         =      1.472369    -0.134065     0.004624     1.476994
	   14 R(8,10)         =      1.376071     0.131471     0.040746     1.416817
	   15 R(8,11)         =      1.398604    -0.022721     0.021732     1.420336
	   16 R(8,23)         =      1.009568    -0.067455     0.010508     1.020076
	   17 R(9,11)         =      1.360933     0.005476     0.027268     1.388201
	   18 R(9,32)         =      1.080807    -0.017569     0.016767     1.097574
	   19 R(10,24)        =      1.248841     0.199204     0.035320     1.284162
	   20 R(11,33)        =      1.081238    -0.034903     0.012034     1.093272
	   21 R(12,13)        =      1.418912    -0.107390     0.004819     1.423730
	   22 R(12,14)        =      1.418489    -0.139145    -0.004977     1.413512
	   23 R(13,15)        =      1.401067    -0.097994    -0.004326     1.396741
	   24 R(13,25)        =      1.091797    -0.058779     0.000874     1.092671
	   25 R(14,16)        =      1.401431    -0.100225    -0.005471     1.395961
	   26 R(14,26)        =      1.091162    -0.055836     0.007115     1.098276
	   27 R(15,17)        =      1.409577    -0.121186    -0.002103     1.407473
	   28 R(15,27)        =      1.091356    -0.058479     0.006663     1.098019
	   29 R(16,17)        =      1.409815    -0.112871     0.005728     1.415543
	   30 R(16,28)        =      1.091388    -0.058862     0.001325     1.092713
	   31 R(17,29)        =      1.091549    -0.059002    -0.003576     1.087973
	   32 R(18,20)        =      1.409522    -0.127388     0.003512     1.413034
	   33 R(18,30)        =      1.091467    -0.059280     0.000657     1.092125
	   34 R(19,20)        =      1.409582    -0.119198    -0.002122     1.407460
	   35 R(19,31)        =      1.091368    -0.059540     0.006123     1.097490
	   36 R(20,34)        =      1.091434    -0.060963     0.010271     1.101705
	   37 B(1,2,3)        =    131.344976     0.000828     1.602218   132.947194
	   38 B(1,2,5)        =    112.386791    -0.000739    -3.142985   109.243806
	   39 B(1,7,9)        =    131.223220    -0.000216    -0.376332   130.846888
	   40 B(1,7,10)       =    121.345080    -0.000081    -0.069706   121.275374
	   41 B(1,12,13)      =    120.371927     0.000549     1.441537   121.813464
	   42 B(1,12,14)      =    120.701321    -0.000692    -2.444363   118.256958
	   43 B(2,1,7)        =    117.094118    -0.000146     0.834948   117.929065
	   44 B(2,1,12)       =    122.226665    -0.000140    -3.157401   119.069263
	   45 B(2,3,4)        =    118.893429    -0.000373    -1.089022   117.804407
	   46 B(2,3,6)        =    122.034411     0.000006     1.011503   123.045914
	   47 B(3,2,5)        =    115.511645    -0.000075     1.648375   117.160019
	   48 B(3,4,18)       =    120.287063    -0.000082    -0.398965   119.888098
	   49 B(3,4,21)       =    120.129096    -0.000084    -1.271140   118.857956
	   50 B(3,6,19)       =    120.248733    -0.000196     0.399161   120.647894
	   51 B(3,6,22)       =    120.590695    -0.000037    -1.170710   119.419986
	   52 B(4,3,6)        =    118.969982     0.000370     0.091714   119.061697
	   53 B(4,18,20)      =    120.557810    -0.000117     0.712053   121.269863
	   54 B(4,18,30)      =    119.290611     0.000061     0.050957   119.341568
	   55 B(6,19,20)      =    120.602319    -0.000024    -0.106898   120.495421
	   56 B(6,19,31)      =    119.254067     0.000008     0.999759   120.253826
	   57 B(7,1,12)       =    120.661263     0.000290     2.311842   122.973105
	   58 B(7,9,11)       =    107.085972     0.000368     1.176854   108.262826
	   59 B(7,9,32)       =    126.872465    -0.000200    -0.754237   126.118228
	   60 B(7,10,8)       =    104.850238    -0.000476    -1.145450   103.704788
	   61 B(7,10,24)      =    129.461222     0.000342     0.802235   130.263457
	   62 B(8,10,24)      =    125.678769     0.000135     0.352559   126.031328
	   63 B(8,11,9)       =    109.764639    -0.000755    -2.298582   107.466057
	   64 B(8,11,33)      =    120.236623     0.000506     1.539913   121.776536
	   65 B(9,7,10)       =    107.429285     0.000298     0.447466   107.876751
	   66 B(9,11,33)      =    129.992322     0.000248     0.762889   130.755212
	   67 B(10,8,11)      =    110.862858     0.000566     1.819095   112.681953
	   68 B(10,8,23)      =    121.773288    -0.000213    -0.470528   121.302760
	   69 B(11,8,23)      =    127.363778    -0.000353    -1.352912   126.010866
	   70 B(11,9,32)      =    126.041453    -0.000168    -0.428785   125.612668
	   71 B(12,13,15)     =    120.446743    -0.000071     0.486166   120.932908
	   72 B(12,13,25)     =    119.635980    -0.000005     0.304993   119.940972
	   73 B(12,14,16)     =    120.372569    -0.000080    -1.512781   118.859789
	   74 B(12,14,26)     =    119.789838    -0.000067     0.101186   119.891024
	   75 B(13,12,14)     =    118.900744     0.000149     0.953665   119.854409
	   76 B(13,15,17)     =    120.310293    -0.000072    -1.340194   118.970099
	   77 B(13,15,27)     =    119.703697     0.000012     0.857086   120.560783
	   78 B(14,16,17)     =    120.371812    -0.000007     0.758025   121.129837
	   79 B(14,16,28)     =    119.649314    -0.000028    -1.206801   118.442513
	   80 B(15,13,25)     =    119.917089     0.000076    -0.804374   119.112715
	   81 B(15,17,16)     =    119.597481     0.000082     0.615477   120.212959
	   82 B(15,17,29)     =    120.173791    -0.000035    -1.256432   118.917360
	   83 B(16,14,26)     =    119.837427     0.000146     1.409905   121.247333
	   84 B(16,17,29)     =    120.228726    -0.000046     0.632700   120.861425
	   85 B(17,15,27)     =    119.985911     0.000060     0.483053   120.468965
	   86 B(17,16,28)     =    119.978364     0.000036     0.439516   120.417881
	   87 B(18,4,21)      =    119.581404     0.000166     1.670532   121.251936
	   88 B(18,20,19)     =    119.307676     0.000051    -0.685105   118.622571
	   89 B(18,20,34)     =    120.358074    -0.000033     0.864477   121.222550
	   90 B(19,6,22)      =    119.160542     0.000233     0.771562   119.932104
	   91 B(19,20,34)     =    120.334053    -0.000018    -0.179503   120.154550
	   92 B(20,18,30)     =    120.151578     0.000056    -0.763830   119.387748
	   93 B(20,19,31)     =    120.143528     0.000016    -0.894090   119.249438
	   94 *D(1,2,3,4)     =   -150.491356     0.000000     0.000000  -150.491356
	   95 D(1,2,3,6)      =     33.223430    -0.000016    -0.267441    32.955989
	   96 D(1,7,9,11)     =    179.713073    -0.000003    -0.033537   179.679536
	   97 D(1,7,9,32)     =     -0.402584    -0.000011    -0.791058    -1.193642
	   98 D(1,7,10,8)     =   -179.845085     0.000007     0.643539  -179.201546
	   99 D(1,7,10,24)    =      1.258855    -0.000000    -0.229313     1.029541
	  100 D(1,12,13,15)   =   -178.218558    -0.000041    -3.933976  -182.152534
	  101 D(1,12,13,25)   =      1.939480    -0.000027    -2.748380    -0.808900
	  102 D(1,12,14,16)   =    178.350667     0.000030     2.540180   180.890847
	  103 D(1,12,14,26)   =     -1.501141     0.000022     1.902870     0.401729
	  104 D(2,1,7,9)      =     91.661479     0.000076     6.009746    97.671225
	  105 D(2,1,7,10)     =    -87.697302     0.000062     4.960403   -82.736899
	  106 *D(2,1,12,13)   =     49.480264     0.000000     0.000000    49.480264
	  107 D(2,1,12,14)    =   -128.644352    -0.000055    -5.034438  -133.678790
	  108 D(2,3,4,18)     =   -178.178322     0.000001     0.511822  -177.666500
	  109 D(2,3,4,21)     =      2.391933    -0.000001     0.450790     2.842724
	  110 D(2,3,6,19)     =    178.147030     0.000001    -0.200942   177.946088
	  111 D(2,3,6,22)     =     -1.789936     0.000001    -0.310450    -2.100386
	  112 *D(3,2,1,7)     =   -165.248762     0.000000     0.000000  -165.248762
	  113 D(3,2,1,12)     =     13.218269     0.000039     3.418700    16.636969
	  114 D(3,4,18,20)    =      0.658219    -0.000011    -0.697922    -0.039703
	  115 D(3,4,18,30)    =   -179.331838    -0.000006    -0.376118  -179.707956
	  116 D(3,6,19,20)    =     -0.834129     0.000002    -0.048912    -0.883041
	  117 D(3,6,19,31)    =    179.272725     0.000005     0.264574   179.537299
	  118 D(4,3,2,5)      =     40.387329    -0.000001    -0.491770    39.895558
	  119 D(4,3,6,19)     =      1.864564    -0.000008    -0.429874     1.434690
	  120 D(4,3,6,22)     =   -178.072402    -0.000009    -0.539383  -178.611785
	  121 D(4,18,20,19)   =      0.397213     0.000002     0.202522     0.599735
	  122 D(4,18,20,34)   =   -179.763868     0.000002     0.155319  -179.608550
	  123 D(5,2,1,7)      =      4.136053     0.000013     0.832714     4.968767
	  124 D(5,2,1,12)     =   -177.396916     0.000051     4.251414  -173.145503
	  125 D(5,2,3,6)      =   -135.897885    -0.000017    -0.759211  -136.657097
	  126 D(6,3,4,18)     =     -1.777699     0.000013     0.805455    -0.972244
	  127 D(6,3,4,21)     =    178.792557     0.000011     0.744423   179.536980
	  128 D(6,19,20,18)   =     -0.309108     0.000003     0.170073    -0.139035
	  129 D(6,19,20,34)   =    179.851934     0.000002     0.215025   180.066958
	  130 D(7,1,12,13)    =   -132.106294     0.000039     3.572583  -128.533710
	  131 D(7,1,12,14)    =     49.769091    -0.000017    -1.461855    48.307236
	  132 D(7,9,11,8)     =      0.732169    -0.000016    -1.286797    -0.554627
	  133 D(7,9,11,33)    =    179.793614    -0.000011    -0.892316   178.901299
	  134 D(7,10,8,11)    =     -0.227774    -0.000007    -0.621326    -0.849099
	  135 D(7,10,8,23)    =    179.865648     0.000001     0.006297   179.871946
	  136 D(8,10,7,9)     =      0.660411    -0.000003    -0.186348     0.474063
	  137 D(8,11,9,32)    =   -179.153406    -0.000008    -0.533596  -179.687002
	  138 D(9,7,1,12)     =    -86.830956     0.000040     2.537508   -84.293449
	  139 D(9,7,10,24)    =   -178.235649    -0.000011    -1.059200  -179.294849
	  140 D(9,11,8,10)    =     -0.319147     0.000015     1.232084     0.912937
	  141 D(9,11,8,23)    =    179.580926     0.000006     0.570380   180.151307
	  142 D(10,7,1,12)    =     93.810263     0.000025     1.488165    95.298427
	  143 D(10,7,9,11)    =     -0.860911     0.000010     0.906958     0.046047
	  144 D(10,7,9,32)    =    179.023432     0.000002     0.149437   179.172870
	  145 D(10,8,11,33)   =   -179.486869     0.000011     0.884612  -178.602257
	  146 D(11,8,10,24)   =    178.722986     0.000001     0.209861   178.932848
	  147 D(12,13,15,17)  =     -0.052044     0.000011     0.766702     0.714658
	  148 D(12,13,15,27)  =    179.833547     0.000010     0.739219   180.572766
	  149 D(12,14,16,17)  =     -0.225463     0.000021     1.848272     1.622810
	  150 D(12,14,16,28)  =   -179.965770     0.000005     0.456075  -179.509695
	  151 D(13,12,14,16)  =      0.198843    -0.000026    -2.403156    -2.204313
	  152 D(13,12,14,26)  =   -179.652965    -0.000034    -3.040466  -182.693431
	  153 D(13,15,17,16)  =      0.028021    -0.000016    -1.342982    -1.314962
	  154 D(13,15,17,29)  =   -179.987393    -0.000004    -0.291388  -180.278780
	  155 D(14,12,13,15)  =     -0.060475     0.000010     1.116365     1.055890
	  156 D(14,12,13,25)  =   -179.902436     0.000024     2.301961  -177.600476
	  157 D(14,16,17,15)  =      0.110764    -0.000001     0.031890     0.142654
	  158 D(14,16,17,29)  =   -179.873814    -0.000012    -1.040125  -180.913939
	  159 D(15,17,16,28)  =    179.850215     0.000016     1.447193   181.297408
	  160 D(16,17,15,27)  =   -179.857247    -0.000015    -1.315956  -181.173204
	  161 D(17,15,13,25)  =    179.789473    -0.000003    -0.407491   179.381982
	  162 D(17,16,14,26)  =    179.626275     0.000030     2.492541   182.118816
	  163 D(18,20,19,31)  =    179.583088    -0.000000    -0.138272   179.444816
	  164 D(19,20,18,30)  =   -179.612815    -0.000003    -0.119348  -179.732163
	  165 D(20,18,4,21)   =   -179.908916    -0.000010    -0.652476  -180.561392
	  166 D(20,19,6,22)   =    179.103734     0.000002     0.059936   179.163670
	  167 D(21,4,18,30)   =      0.101027    -0.000005    -0.330671    -0.229644
	  168 D(22,6,19,31)   =     -0.789412     0.000005     0.373422    -0.415990
	  169 D(23,8,10,24)   =     -1.183592     0.000009     0.837484    -0.346107
	  170 D(23,8,11,33)   =      0.413204     0.000002     0.222909     0.636113
	  171 D(25,13,15,27)  =     -0.324936    -0.000004    -0.434974    -0.759910
	  172 D(26,14,16,28)  =     -0.114032     0.000013     1.100343     0.986312
	  173 D(27,15,17,29)  =      0.127340    -0.000003    -0.264362    -0.137022
	  174 D(28,16,17,29)  =     -0.134363     0.000004     0.375178     0.240815
	  175 D(30,18,20,34)  =      0.226103    -0.000003    -0.166551     0.059552
	  176 D(31,19,20,34)  =     -0.255870    -0.000001    -0.093320    -0.349190
	  177 D(32,9,11,33)   =     -0.091961    -0.000003    -0.139115    -0.231076
	  178 R(3,13)         =      3.301491    -0.063427    -0.028405     3.273086
	  179 R(6,12)         =      3.189307    -0.020416     0.023787     3.213094
	  180 R(6,13)         =      3.316688     0.019041     0.051935     3.368623
	  181 R(9,14)         =      3.582209    -0.006772     0.020988     3.603197
	 ---------------------------------------------------------------------------
	Successfully symmetrized geometry.

  ==> Convergence Check <==

  Measures of convergence in internal coordinates in au.
  Criteria marked as inactive (o), active & met (*), and active & unmet ( ).
  --------------------------------------------------------------------------------------------- ~
   Step     Total Energy     Delta E     MAX Force     RMS Force      MAX Disp      RMS Disp    ~
  --------------------------------------------------------------------------------------------- ~
    Convergence Criteria             o    2.50e-03 *    1.70e-03 *    1.00e-02 *    6.70e-03 *  ~
  --------------------------------------------------------------------------------------------- ~
      1    -840.56572499   -8.41e+02 o    4.06e-02      6.89e-03      1.20e-01      2.95e-02    ~
  ---------------------------------------------------------------------------------------------

	Writing optimization data to binary file.
	Structure for next step:
	Cartesian Geometry (in Angstrom)
	    C    -0.4105183014  -0.1570101045   0.5711023258
	    N     0.8669595725  -0.5637420010   0.7048136509
	    C     2.1099852749  -0.1473023804   0.0763344770
	    C     3.1282886586  -1.1106668216  -0.0685637487
	    H     0.9378046272  -1.1949566040   1.5076251887
	    C     2.3627819812   1.1866394504  -0.3259996493
	    C    -1.3628590142  -0.5644987184   1.5860222165
	    N    -2.8629971308  -1.8868677716   2.6729332261
	    C    -1.8736227075   0.1478694826   2.7679121034
	    C    -2.0106105168  -1.8911186251   1.5412134429
	    C    -2.7789057043  -0.6802072312   3.4174149288
	    C    -0.7908611427   0.6447113862  -0.6172449330
	    C    -0.4407506676   0.2424973443  -1.9373415400
	    C    -1.5787581807   1.8015378164  -0.4197931903
	    C    -0.8466761303   0.9880681103  -3.0465002563
	    C    -1.9597857739   2.5550542563  -1.5314301494
	    C    -1.5993441740   2.1596649388  -2.8419689563
	    C     4.3749531414  -0.7408573794  -0.6294423670
	    C     3.6088138847   1.5451379794  -0.8945355650
	    C     4.6248371235   0.5840330322  -1.0523930770
	    H     2.9308753434  -2.1443365234   0.2522349901
	    H     1.5863358290   1.9422202254  -0.1953371344
	    H    -3.4488615392  -2.6909666582   2.8981972228
	    O    -1.8696679913  -2.8557377075   0.7053207855
	    H     0.1349504905  -0.6729162635  -2.0939171129
	    H    -1.8863394723   2.0876169856   0.5949794724
	    H    -0.5811474354   0.6671408328  -4.0624464339
	    H    -2.5619731387   3.4525002343  -1.3702396173
	    H    -1.9111712136   2.7422317229  -3.7062984353
	    H     5.1561453055  -1.4957104826  -0.7420106162
	    H     3.7950967931   2.5793466022  -1.2110733313
	    H    -1.5809129412   1.1544372796   3.0931967509
	    H    -3.3570098905  -0.5268814505   4.3325814334
	    H     5.5927507348   0.8694218353  -1.4944911338
			--------------------------
			 OPTKING Finished Execution 
			--------------------------

    Structure for next step:
    Molecular point group: c1
    Full point group: C1

    Geometry (in Angstrom), charge = 0, multiplicity = 1:

    C           -0.416897008192    -0.178342305778     0.511953148547
    N            0.860580870701    -0.585074203811     0.645664474228
    C            2.103606577983    -0.168634581589     0.017185297843
    C            3.121909965721    -1.131999026595    -0.127712928492
    H            0.931425925636    -1.216288809353     1.448476015170
    C            2.356403285264     1.165307254476    -0.385148830024
    C           -1.369237724763    -0.585830921244     1.526873043272
    N           -2.869375847302    -1.908199979615     2.613784057080
    C           -1.880001420037     0.126537282592     2.708762934806
    C           -2.016989229899    -1.912450833197     1.482064269441
    C           -2.785284420462    -0.701539434462     3.358265762800
    C           -0.797239851035     0.623379188113    -0.676394114895
    C           -0.447129374534     0.221165144661    -1.996490727089
    C           -1.585136892164     1.780205622840    -0.478942371400
    C           -0.853054838877     0.966735913515    -3.105649447725
    C           -1.966164486826     2.533722065726    -1.590579334887
    C           -1.605722885506     2.138332746636    -2.901118146926
    C            4.368574453351    -0.762189582977    -0.688591548946
    C            3.602435193690     1.523805784854    -0.953684747957
    C            4.618458436450     0.562700833893    -1.111542260604
    H            2.924496649749    -2.165668732468     0.193085811653
    H            1.579957130066     1.920888032433    -0.254486314624
    H           -3.455240258008    -2.712298869385     2.839048054686
    O           -1.876046703904    -2.877069919355     0.646171608828
    H            0.128571785808    -0.694248466784    -2.153066300638
    H           -1.892718184908     2.066284793150     0.535830295283
    H           -0.587526142921     0.645808634775    -4.121595629386
    H           -2.568351853991     3.431168047248    -1.429388802151
    H           -1.917549926326     2.720899533089    -3.765447629331
    H            5.149766620542    -1.517042689081    -0.801159798564
    H            3.788718102827     2.558014411679    -1.270222515573
    H           -1.587291652641     1.133105083492     3.034047583604
    H           -3.363388608898    -0.548213653203     4.273432270981
    H            5.586372051586     0.848089638092    -1.553640319130


Scratch directory: /scratch/bdw2292/Psi4-1_16_Index_0-farH_in17/

Scratch directory: /scratch/bdw2292/Psi4-1_16_Index_0-farH_in17/
gradient() will perform analytic gradient computation.

*** tstart() called on node74.bme.utexas.edu
*** at Wed Jun  8 19:33:10 2022

   => Loading Basis Set <=

    Name: 6-311G
    Role: ORBITAL
    Keyword: BASIS
    atoms 1, 3-4, 6-7, 9-20 entry C          line    92 file /home/bdw2292/miniconda3/envs/newamoebamdpoltype/share/psi4/basis/6-311g.gbs 
    atoms 2, 8              entry N          line   109 file /home/bdw2292/miniconda3/envs/newamoebamdpoltype/share/psi4/basis/6-311g.gbs 
    atoms 5, 21-23, 25-34   entry H          line    21 file /home/bdw2292/miniconda3/envs/newamoebamdpoltype/share/psi4/basis/6-311g.gbs 
    atoms 24                entry O          line   126 file /home/bdw2292/miniconda3/envs/newamoebamdpoltype/share/psi4/basis/6-311g.gbs 

   => WB97X-D: Empirical Dispersion <=

    Chai and Head-Gordon Dispersion Correction
    Chai, J.-D.; Head-Gordon, M. (2010), J. Chem. Phys., 132: 6615-6620

        s6 =       1.000000


         ---------------------------------------------------------
                                   SCF
               by Justin Turney, Rob Parrish, Andy Simmonett
                          and Daniel G. A. Smith
                              RKS Reference
                        2 Threads,   7788 MiB Core
         ---------------------------------------------------------

  ==> Geometry <==

    Molecular point group: c1
    Full point group: C1

    Geometry (in Angstrom), charge = 0, multiplicity = 1:

       Center              X                  Y                   Z               Mass       
    ------------   -----------------  -----------------  -----------------  -----------------
         C           -0.416897008192    -0.178342305778     0.511953148547    12.000000000000
         N            0.860580870701    -0.585074203811     0.645664474228    14.003074004430
         C            2.103606577983    -0.168634581589     0.017185297843    12.000000000000
         C            3.121909965721    -1.131999026595    -0.127712928492    12.000000000000
         H            0.931425925636    -1.216288809353     1.448476015170     1.007825032230
         C            2.356403285264     1.165307254476    -0.385148830024    12.000000000000
         C           -1.369237724763    -0.585830921244     1.526873043272    12.000000000000
         N           -2.869375847302    -1.908199979615     2.613784057080    14.003074004430
         C           -1.880001420037     0.126537282592     2.708762934806    12.000000000000
         C           -2.016989229899    -1.912450833197     1.482064269441    12.000000000000
         C           -2.785284420462    -0.701539434462     3.358265762800    12.000000000000
         C           -0.797239851035     0.623379188113    -0.676394114895    12.000000000000
         C           -0.447129374534     0.221165144661    -1.996490727089    12.000000000000
         C           -1.585136892164     1.780205622840    -0.478942371400    12.000000000000
         C           -0.853054838877     0.966735913515    -3.105649447725    12.000000000000
         C           -1.966164486826     2.533722065726    -1.590579334887    12.000000000000
         C           -1.605722885506     2.138332746636    -2.901118146926    12.000000000000
         C            4.368574453351    -0.762189582977    -0.688591548946    12.000000000000
         C            3.602435193690     1.523805784854    -0.953684747957    12.000000000000
         C            4.618458436450     0.562700833893    -1.111542260604    12.000000000000
         H            2.924496649749    -2.165668732468     0.193085811653     1.007825032230
         H            1.579957130066     1.920888032433    -0.254486314624     1.007825032230
         H           -3.455240258008    -2.712298869385     2.839048054686     1.007825032230
         O           -1.876046703904    -2.877069919355     0.646171608828    15.994914619570
         H            0.128571785808    -0.694248466784    -2.153066300638     1.007825032230
         H           -1.892718184908     2.066284793150     0.535830295283     1.007825032230
         H           -0.587526142921     0.645808634775    -4.121595629386     1.007825032230
         H           -2.568351853991     3.431168047248    -1.429388802151     1.007825032230
         H           -1.917549926326     2.720899533089    -3.765447629331     1.007825032230
         H            5.149766620542    -1.517042689081    -0.801159798564     1.007825032230
         H            3.788718102827     2.558014411679    -1.270222515573     1.007825032230
         H           -1.587291652641     1.133105083492     3.034047583604     1.007825032230
         H           -3.363388608898    -0.548213653203     4.273432270981     1.007825032230
         H            5.586372051586     0.848089638092    -1.553640319130     1.007825032230

  Running in c1 symmetry.

  Rotational constants: A =      0.01503  B =      0.00844  C =      0.00639 [cm^-1]
  Rotational constants: A =    450.45729  B =    253.15495  C =    191.43693 [MHz]
  Nuclear repulsion = 1396.236644344368642

  Charge       = 0
  Multiplicity = 1
  Electrons    = 138
  Nalpha       = 69
  Nbeta        = 69

  ==> Algorithm <==

  SCF Algorithm Type is DF.
  DIIS enabled.
  MOM disabled.
  Fractional occupation disabled.
  Guess Type is READ.
  Energy threshold   = 1.00e-08
  Density threshold  = 1.00e-08
  Integral threshold = 1.00e-12

  ==> Primary Basis <==

  Basis Set: 6-311G
    Blend: 6-311G
    Number of shells: 182
    Number of basis functions: 302
    Number of Cartesian functions: 302
    Spherical Harmonics?: true
    Max angular momentum: 1

  ==> DFT Potential <==

   => LibXC <=

    Version 5.1.5
    S. Lehtola, C. Steigemann, M. J. Oliveira, and M. A. Marques, SoftwareX 7, 1 (2018) (10.1016/j.softx.2017.11.002)

   => Composite Functional: WB97X-D <= 

    wB97X-D Hyb-GGA Exchange-Correlation Functional

    J.-D. Chai and M. Head-Gordon, Phys. Chem. Chem. Phys. 10, 6615 (2008) (10.1039/B810189B)

    Deriv               =              1
    GGA                 =           TRUE
    Meta                =          FALSE

    Exchange Hybrid     =           TRUE
    MP2 Hybrid          =          FALSE

   => Exchange-Correlation Functionals <=

    1.0000   wB97X-D range-separated functional

   => Exact (HF) Exchange <=

    0.7780            HF,LR [omega = 0.2000]
    0.2220               HF 

   => LibXC Density Thresholds  <==

    XC_HYB_GGA_XC_WB97X_D:  1.00E-14 

   => Molecular Quadrature <=

    Radial Scheme          =       TREUTLER
    Pruning Scheme         =           NONE
    Nuclear Scheme         =       TREUTLER

    BS radius alpha        =              1
    Pruning alpha          =              1
    Radial Points          =             75
    Spherical Points       =            302
    Total Points           =         701788
    Total Blocks           =           4977
    Max Points             =            256
    Max Functions          =            218
    Weights Tolerance      =       1.00E-15

   => Loading Basis Set <=

    Name: (6-311G AUX)
    Role: JKFIT
    Keyword: DF_BASIS_SCF
    atoms 1, 3-4, 6-7, 9-20 entry C          line   125 file /home/bdw2292/miniconda3/envs/newamoebamdpoltype/share/psi4/basis/cc-pvtz-jkfit.gbs 
    atoms 2, 8              entry N          line   177 file /home/bdw2292/miniconda3/envs/newamoebamdpoltype/share/psi4/basis/cc-pvtz-jkfit.gbs 
    atoms 5, 21-23, 25-34   entry H          line    51 file /home/bdw2292/miniconda3/envs/newamoebamdpoltype/share/psi4/basis/cc-pvtz-jkfit.gbs 
    atoms 24                entry O          line   229 file /home/bdw2292/miniconda3/envs/newamoebamdpoltype/share/psi4/basis/cc-pvtz-jkfit.gbs 

   => Loading Basis Set <=

    Name: 6-311G
    Role: ORBITAL
    Keyword: BASIS
    atoms 1, 3-4, 6-7, 9-20 entry C          line    92 file /home/bdw2292/miniconda3/envs/newamoebamdpoltype/share/psi4/basis/6-311g.gbs 
    atoms 2, 8              entry N          line   109 file /home/bdw2292/miniconda3/envs/newamoebamdpoltype/share/psi4/basis/6-311g.gbs 
    atoms 5, 21-23, 25-34   entry H          line    21 file /home/bdw2292/miniconda3/envs/newamoebamdpoltype/share/psi4/basis/6-311g.gbs 
    atoms 24                entry O          line   126 file /home/bdw2292/miniconda3/envs/newamoebamdpoltype/share/psi4/basis/6-311g.gbs 

  Reading orbitals from file /scratch/bdw2292/Psi4-1_16_Index_0-farH_in17/1_16_Index_0-opt-1_1-12-049.default.1187062.180.npy, no projection.

  ==> Integral Setup <==

  DFHelper Memory: AOs need 3.128 GiB; user supplied 3.128 GiB. Using in-core AOs.

  ==> MemDFJK: Density-Fitted J/K Matrices <==

    J tasked:                   Yes
    K tasked:                   Yes
    wK tasked:                  Yes
    Omega:                2.000E-01
    OpenMP threads:               2
    Memory [MiB]:              3203
    Algorithm:                 Core
    Schwarz Cutoff:           1E-12
    Mask sparsity (%):      24.4836
    Fitting Condition:        1E-10

   => Auxiliary Basis Set <=

  Basis Set: (6-311G AUX)
    Blend: CC-PVTZ-JKFIT
    Number of shells: 640
    Number of basis functions: 2000
    Number of Cartesian functions: 2410
    Spherical Harmonics?: true
    Max angular momentum: 4

  Cached 50.0% of DFT collocation blocks in 1.457 [GiB].

  Minimum eigenvalue in the overlap matrix is 2.6735990254E-04.
  Reciprocal condition number of the overlap matrix is 4.0407562541E-05.
    Using symmetric orthogonalization.

  ==> Pre-Iterations <==

  SCF Guess: Orbitals guess was supplied from a previous computation.

   -------------------------------------------------------
    Irrep   Nso     Nmo     Nalpha   Nbeta   Ndocc  Nsocc
   -------------------------------------------------------
     A        302     302      69      69      69       0
   -------------------------------------------------------
    Total     302     302      69      69      69       0
   -------------------------------------------------------

  ==> Iterations <==

                           Total Energy        Delta E     RMS |[F,P]|

   @DF-RKS iter   0:  -840.05734850691010   -8.40057e+02   3.54962e-03 
   @DF-RKS iter   1:  -840.52664433085852   -4.69296e-01   7.16454e-04 DIIS
   @DF-RKS iter   2:  -840.54236275857420   -1.57184e-02   7.11687e-04 DIIS
   @DF-RKS iter   3:  -840.56522946734049   -2.28667e-02   1.76875e-04 DIIS
   @DF-RKS iter   4:  -840.56678274670492   -1.55328e-03   7.29668e-05 DIIS
   @DF-RKS iter   5:  -840.56713764136680   -3.54895e-04   3.25022e-05 DIIS
   @DF-RKS iter   6:  -840.56721210588046   -7.44645e-05   1.05983e-05 DIIS
   @DF-RKS iter   7:  -840.56725545769859   -4.33518e-05   7.34008e-06 DIIS
   @DF-RKS iter   8:  -840.56728853026209   -3.30726e-05   5.80430e-06 DIIS
   @DF-RKS iter   9:  -840.56734056204243   -5.20318e-05   4.43786e-06 DIIS
   @DF-RKS iter  10:  -840.56737297280131   -3.24108e-05   2.38335e-06 DIIS
[...]
	   15 R(8,10)         =      1.377692    -0.000726    -0.000048     1.377644
	   16 R(8,11)         =      1.406968    -0.000532    -0.000131     1.406837
	   17 R(8,23)         =      1.001361    -0.000222     0.000002     1.001363
	   18 R(9,11)         =      1.351791     0.000281     0.000084     1.351875
	   19 R(9,32)         =      1.075362    -0.000715    -0.000175     1.075187
	   20 R(10,24)        =      1.264514     0.002096     0.000230     1.264743
	   21 R(11,33)        =      1.075021    -0.000475    -0.000023     1.074997
	   22 R(12,13)        =      1.399421    -0.000884    -0.000161     1.399260
	   23 R(12,14)        =      1.398276    -0.001179    -0.000179     1.398097
	   24 R(13,15)        =      1.390357    -0.001295    -0.000252     1.390105
	   25 R(13,25)        =      1.081475    -0.000918    -0.000216     1.081259
	   26 R(14,16)        =      1.392962    -0.001489    -0.000281     1.392681
	   27 R(14,26)        =      1.081600    -0.000544    -0.000125     1.081475
	   28 R(15,17)        =      1.394751    -0.001886    -0.000367     1.394385
	   29 R(15,27)        =      1.081221    -0.000169    -0.000038     1.081183
	   30 R(16,17)        =      1.393243    -0.001092    -0.000225     1.393018
	   31 R(16,28)        =      1.081563    -0.000745    -0.000176     1.081388
	   32 R(17,29)        =      1.081521    -0.000624    -0.000154     1.081367
	   33 R(18,20)        =      1.393841    -0.001099    -0.000224     1.393617
	   34 R(18,30)        =      1.081456    -0.000165    -0.000041     1.081414
	   35 R(19,20)        =      1.393745    -0.000765    -0.000134     1.393611
	   36 R(19,31)        =      1.081567    -0.000531    -0.000133     1.081435
	   37 R(20,34)        =      1.081013     0.000127     0.000037     1.081050
	   38 B(1,2,3)        =    128.837302     0.000004     0.022548   128.859850
	   39 B(1,2,5)        =    113.604977    -0.000003    -0.022173   113.582803
	   40 B(1,7,9)        =    130.819508     0.000002     0.026979   130.846487
	   41 B(1,7,10)       =    122.417862    -0.000006    -0.017902   122.399960
	   42 B(1,12,13)      =    120.077965     0.000005     0.007407   120.085372
	   43 B(1,12,14)      =    120.512557    -0.000005     0.000804   120.513360
	   44 B(2,1,7)        =    118.929196     0.000004     0.007404   118.936600
	   45 B(2,1,12)       =    119.706262    -0.000003    -0.039016   119.667246
	   46 B(2,3,4)        =    117.605278    -0.000003    -0.006990   117.598289
	   47 B(2,3,6)        =    122.841850     0.000002    -0.000082   122.841768
	   48 B(3,2,5)        =    116.660752    -0.000001    -0.002771   116.657981
	   49 B(3,4,18)       =    120.262603     0.000001     0.004351   120.266954
	   50 B(3,4,21)       =    119.162583    -0.000001    -0.006072   119.156511
	   51 B(3,6,19)       =    119.859674    -0.000003    -0.015320   119.844354
	   52 B(3,6,22)       =    120.103202     0.000005     0.027184   120.130386
	   53 B(4,3,6)        =    119.496899     0.000002     0.004866   119.501765
	   54 B(4,18,20)      =    120.269781    -0.000000    -0.001166   120.268614
	   55 B(4,18,30)      =    119.528201     0.000000     0.003072   119.531273
	   56 B(6,19,20)      =    120.648252     0.000004     0.021212   120.669464
	   57 B(6,19,31)      =    119.256918    -0.000002    -0.009205   119.247713
	   58 B(7,1,12)       =    121.254615    -0.000001     0.036816   121.291431
	   59 B(7,9,11)       =    107.609610    -0.000001     0.015209   107.624819
	   60 B(7,9,32)       =    126.266713     0.000001    -0.006781   126.259932
	   61 B(7,10,8)       =    105.637515     0.000000     0.004770   105.642285
	   62 B(7,10,24)      =    128.753385    -0.000003    -0.004243   128.749142
	   63 B(8,10,24)      =    125.601564     0.000003    -0.007548   125.594016
	   64 B(8,11,9)       =    109.447254    -0.000005    -0.023100   109.424154
	   65 B(8,11,33)      =    120.573493     0.000005     0.026929   120.600422
	   66 B(9,7,10)       =    106.710242     0.000005     0.000988   106.711230
	   67 B(9,11,33)      =    129.976816    -0.000001    -0.003199   129.973617
	   68 B(10,8,11)      =    110.558527     0.000002     0.016613   110.575140
	   69 B(10,8,23)      =    122.983165    -0.000002    -0.005236   122.977929
	   70 B(11,8,23)      =    126.422859    -0.000000    -0.002877   126.419982
	   71 B(11,9,32)      =    126.120283     0.000001    -0.008680   126.111603
	   72 B(12,13,15)     =    120.233824    -0.000002    -0.002012   120.231811
	   73 B(12,13,25)     =    119.522078     0.000004     0.014903   119.536981
	   74 B(12,14,16)     =    120.232562     0.000001     0.008509   120.241071
	   75 B(12,14,26)     =    119.413695    -0.000001    -0.005315   119.408380
	   76 B(13,12,14)     =    119.409478    -0.000000    -0.008239   119.401240
	   77 B(13,15,17)     =    120.164276     0.000002     0.004041   120.168317
	   78 B(13,15,27)     =    119.737431    -0.000002    -0.006566   119.730865
	   79 B(14,16,17)     =    120.106207    -0.000002    -0.008180   120.098027
	   80 B(14,16,28)     =    119.747595     0.000002     0.007727   119.755322
	   81 B(15,13,25)     =    120.244083    -0.000001    -0.012921   120.231163
	   82 B(15,17,16)     =    119.851195     0.000002     0.006009   119.857204
	   83 B(15,17,29)     =    120.045721    -0.000000     0.001332   120.047054
	   84 B(16,14,26)     =    120.347623    -0.000000    -0.003231   120.344392
	   85 B(16,17,29)     =    120.103000    -0.000002    -0.007352   120.095648
	   86 B(17,15,27)     =    120.098110     0.000000     0.002550   120.100660
	   87 B(17,16,28)     =    120.145881     0.000000     0.000420   120.146302
	   88 B(18,4,21)      =    120.574192     0.000000     0.001591   120.575784
	   89 B(18,20,19)     =    119.441370    -0.000003    -0.014144   119.427226
	   90 B(18,20,34)     =    120.277044     0.000001     0.005288   120.282332
	   91 B(19,6,22)      =    120.035637    -0.000002    -0.011837   120.023801
	   92 B(19,20,34)     =    120.280062     0.000002     0.008550   120.288612
	   93 B(20,18,30)     =    120.200883     0.000000    -0.001792   120.199091
	   94 B(20,19,31)     =    120.088370    -0.000002    -0.012117   120.076253
	   95 *D(1,2,3,4)     =   -150.491356     0.000000    -0.000000  -150.491356
	   96 D(1,2,3,6)      =     32.246826     0.000000     0.053262    32.300088
	   97 D(1,7,9,11)     =    178.959475    -0.000002    -0.024793   178.934682
	   98 D(1,7,9,32)     =     -0.401224     0.000000    -0.001394    -0.402618
	   99 D(1,7,10,8)     =   -179.570785     0.000002     0.193095  -179.377690
	  100 D(1,7,10,24)    =     -0.537720    -0.000003    -0.183908    -0.721628
	  101 D(1,12,13,15)   =    179.476690    -0.000000    -0.046960   179.429729
	  102 D(1,12,13,25)   =     -0.567312    -0.000000    -0.080223    -0.647535
	  103 D(1,12,14,16)   =   -179.850932     0.000000     0.055360  -179.795572
	  104 D(1,12,14,26)   =      1.045763     0.000000     0.058108     1.103872
	  105 D(2,1,7,9)      =   -174.493719    -0.000002    -0.264933  -174.758651
	  106 D(2,1,7,10)     =      2.506123     0.000001     0.038387     2.544510
	  107 *D(2,1,12,13)   =     49.480264     0.000000    -0.000000    49.480264
	  108 D(2,1,12,14)    =   -130.518148    -0.000000    -0.062945  -130.581093
	  109 D(2,3,4,18)     =   -177.969122     0.000000     0.011720  -177.957402
	  110 D(2,3,4,21)     =      2.316090     0.000000     0.040001     2.356092
	  111 D(2,3,6,19)     =    178.783800    -0.000000    -0.028682   178.755118
	  112 D(2,3,6,22)     =     -0.772781    -0.000000    -0.032861    -0.805642
	  113 *D(3,2,1,7)     =   -165.248762    -0.000000    -0.000000  -165.248762
	  114 D(3,2,1,12)     =     18.514529    -0.000000    -0.091446    18.423084
	  115 D(3,4,18,20)    =     -0.660980     0.000000     0.034284    -0.626695
	  116 D(3,4,18,30)    =    179.725884     0.000000     0.014428   179.740312
	  117 D(3,6,19,20)    =     -1.275422    -0.000000    -0.007294    -1.282717
	  118 D(3,6,19,31)    =    179.648359    -0.000000     0.000627   179.648986
	  119 D(4,3,2,5)      =     41.140356    -0.000000     0.018248    41.158604
	  120 D(4,3,6,19)     =      1.571660     0.000000     0.025866     1.597526
	  121 D(4,3,6,22)     =   -177.984922     0.000000     0.021687  -177.963234
	  122 D(4,18,20,19)   =      0.966302    -0.000000    -0.015363     0.950939
	  123 D(4,18,20,34)   =   -179.481388    -0.000000    -0.058241  -179.539630
	  124 D(5,2,1,7)      =      3.410893     0.000000    -0.016113     3.394780
	  125 D(5,2,1,12)     =   -172.825816    -0.000000    -0.107558  -172.933374
	  126 D(5,2,3,6)      =   -136.121462     0.000000     0.071511  -136.049952
	  127 D(6,3,4,18)     =     -0.612191    -0.000000    -0.039821    -0.652013
	  128 D(6,3,4,21)     =    179.673021    -0.000000    -0.011540   179.661481
	  129 D(6,19,20,18)   =      0.003230    -0.000000     0.001790     0.005020
	  130 D(6,19,20,34)   =   -179.549066     0.000000     0.044687  -179.504379
	  131 D(7,1,12,13)    =   -126.666736    -0.000000    -0.092431  -126.759167
	  132 D(7,1,12,14)    =     53.334853    -0.000001    -0.155376    53.179477
	  133 D(7,9,11,8)     =     -0.641338     0.000002     0.036333    -0.605004
	  134 D(7,9,11,33)    =    179.935399     0.000001    -0.043889   179.891510
	  135 D(7,10,8,11)    =      1.611084    -0.000003    -0.424535     1.186550
	  136 D(7,10,8,23)    =    179.571182    -0.000002    -0.163328   179.407853
	  137 D(8,10,7,9)     =     -1.940920     0.000004     0.433504    -1.507416
	  138 D(8,11,9,32)    =    178.720557    -0.000000     0.012993   178.733549
	  139 D(9,7,1,12)     =      1.682559    -0.000001    -0.174924     1.507635
	  140 D(9,7,10,24)    =    177.092145    -0.000001     0.056501   177.148646
	  141 D(9,11,8,10)    =     -0.638865     0.000001     0.253996    -0.384869
	  142 D(9,11,8,23)    =   -178.512289     0.000000    -0.018275  -178.530565
	  143 D(10,7,1,12)    =    178.682401     0.000001     0.128395   178.810797
	  144 D(10,7,9,11)    =      1.603487    -0.000004    -0.291575     1.311911
	  145 D(10,7,9,32)    =   -177.757213    -0.000002    -0.268176  -178.025389
	  146 D(10,8,11,33)   =    178.847818     0.000001     0.325253   179.173072
	  147 D(11,8,10,24)   =   -177.461511     0.000001    -0.062994  -177.524504
	  148 D(12,13,15,17)  =      0.560117    -0.000000    -0.018054     0.542063
	  149 D(12,13,15,27)  =   -179.595307    -0.000000    -0.007284  -179.602590
	  150 D(12,14,16,17)  =      0.189098     0.000000     0.001824     0.190922
	  151 D(12,14,16,28)  =   -179.606416     0.000000     0.012016  -179.594400
	  152 D(13,12,14,16)  =      0.150646    -0.000000    -0.007157     0.143489
	  153 D(13,12,14,26)  =   -178.952659    -0.000000    -0.004409  -178.957068
	  154 D(13,15,17,16)  =     -0.217178     0.000000     0.012632    -0.204546
	  155 D(13,15,17,29)  =    179.677833     0.000000     0.005801   179.683635
	  156 D(14,12,13,15)  =     -0.524881     0.000000     0.015285    -0.509597
	  157 D(14,12,13,25)  =    179.431117    -0.000000    -0.017978   179.413139
	  158 D(14,16,17,15)  =     -0.157158    -0.000000    -0.004523    -0.161680
	  159 D(14,16,17,29)  =    179.947892    -0.000000     0.002302   179.950193
	  160 D(15,17,16,28)  =    179.637536    -0.000000    -0.014740   179.622796
	  161 D(16,17,15,27)  =    179.938810    -0.000000     0.001836   179.940646
	  162 D(17,15,13,25)  =   -179.395562     0.000000     0.015429  -179.380132
	  163 D(17,16,14,26)  =    179.283964     0.000000    -0.000968   179.282996
	  164 D(18,20,19,31)  =    179.071778    -0.000000    -0.006166   179.065612
	  165 D(19,20,18,30)  =   -179.423178     0.000000     0.004645  -179.418532
	  166 D(20,18,4,21)   =    179.049743    -0.000000     0.005576   179.055320
	  167 D(20,19,6,22)   =    178.281462    -0.000000    -0.002945   178.278516
	  168 D(21,4,18,30)   =     -0.563393    -0.000000    -0.014280    -0.577673
	  169 D(22,6,19,31)   =     -0.794757     0.000000     0.004976    -0.789781
	  170 D(23,8,10,24)   =      0.498587     0.000002     0.198212     0.696799
	  171 D(23,8,11,33)   =      0.974394     0.000000     0.052982     1.027376
	  172 D(25,13,15,27)  =      0.449015     0.000000     0.026199     0.475214
	  173 D(26,14,16,28)  =     -0.511550     0.000000     0.009224    -0.502326
	  174 D(27,15,17,29)  =     -0.166179    -0.000000    -0.004995    -0.171173
	  175 D(28,16,17,29)  =     -0.257415    -0.000000    -0.007915    -0.265331
	  176 D(30,18,20,34)  =      0.129131    -0.000000    -0.038233     0.090898
	  177 D(31,19,20,34)  =     -0.480517     0.000000     0.036730    -0.443787
	  178 D(32,9,11,33)   =     -0.702707    -0.000001    -0.067230    -0.769937
	  179 R(2,24)         =      2.711128     0.000318     0.000003     2.711131
	  180 R(3,13)         =      3.192145    -0.000151    -0.001588     3.190557
	  181 R(6,12)         =      3.082146    -0.000232    -0.000733     3.081413
	  182 R(6,13)         =      3.269035    -0.000658    -0.002155     3.266880
	  183 R(6,14)         =      3.773848     0.000275     0.000881     3.774729
	  184 R(9,14)         =      3.233787     0.000454    -0.000767     3.233020
	 ---------------------------------------------------------------------------
	Successfully symmetrized geometry.

  ==> Convergence Check <==

  Measures of convergence in internal coordinates in au.
  Criteria marked as inactive (o), active & met (*), and active & unmet ( ).
  ---------------------------------------------------------------------------------------------
   Step     Total Energy     Delta E     MAX Force     RMS Force      MAX Disp      RMS Disp   
  ---------------------------------------------------------------------------------------------
    Convergence Criteria             o    2.50e-03 *    1.70e-03 *    1.00e-02 *    6.70e-03 *
  ---------------------------------------------------------------------------------------------
      2    -840.65613914   -7.01e-06 o    4.93e-04 *    7.74e-05 *    7.57e-03 *    1.41e-03 *  ~
  ---------------------------------------------------------------------------------------------


  **** Optimization is complete! (in 2 steps) ****

  ==> Optimization Summary <==

  Measures of convergence in internal coordinates in au.
  --------------------------------------------------------------------------------------------------------------- ~
   Step         Total Energy             Delta E       MAX Force       RMS Force        MAX Disp        RMS Disp  ~
  --------------------------------------------------------------------------------------------------------------- ~
      1    -840.656132135346   -840.656132135346      0.00091036      0.00014464      0.00925714      0.00204367  ~
      2    -840.656139144494     -0.000007009148      0.00049339      0.00007742      0.00756607      0.00141440  ~
  --------------------------------------------------------------------------------------------------------------- ~

	Writing optimization data to binary file.
	Final energy is   -840.6561391444944
	Final (previous) structure:
	Cartesian Geometry (in Angstrom)
	    C    -0.3849380652  -0.1600762065   0.5850949118
	    N     0.8710634638  -0.6585152544   0.4048892485
	    C     1.7934350284  -0.3870237114  -0.6345093196
	    C     2.6955308709  -1.3981556441  -0.9809606928
	    H     1.2312775817  -1.1656966000   1.2177266885
	    C     1.8696912110   0.8532744073  -1.2760241075
	    C    -0.9932409364  -0.3140028323   1.8111525781
	    N    -1.2362083932  -0.9261284384   3.9750571598
	    C    -2.3424324946   0.0137521684   2.2527789741
	    C    -0.3221010438  -0.9452654075   2.9444858603
	    C    -2.4497871454  -0.3561614933   3.5485331059
	    C    -1.1017857736   0.4597724659  -0.5583165492
	    C    -1.1792706316  -0.2107723140  -1.7841815217
	    C    -1.7041387881   1.7143409801  -0.4226574955
	    C    -1.8588628475   0.3616700637  -2.8535538622
	    C    -2.3777009604   2.2889424809  -1.4980599611
	    C    -2.4577003170   1.6135724723  -2.7140374028
	    C     3.6530555864  -1.1762805633  -1.9650518030
	    C     2.8176077030   1.0602400334  -2.2734087203
	    C     3.7125352554   0.0507666055  -2.6235433284
	    H     2.6350820410  -2.3539130617  -0.4774216585
	    H     1.1995362396   1.6511552684  -0.9934782257
	    H    -1.0433048375  -1.3043996067   4.8819323184
	    O     0.8420070039  -1.4357056315   3.0020694122
	    H    -0.7061350083  -1.1770512258  -1.8938902149
	    H    -1.6297228508   2.2402189169   0.5195598849
	    H    -1.9193316504  -0.1664074422  -3.7951037528
	    H    -2.8353027194   3.2625454243  -1.3863588557
	    H    -2.9814010265   2.0593799415  -3.5487111341
	    H     4.3475528636  -1.9649506211  -2.2204322914
	    H     2.8642157382   2.0214300619  -2.7670980135
	    H    -3.1171161703   0.4589015563   1.6543563503
	    H    -3.2839374361  -0.2783419470   4.2221852345
	    H     4.4513092265   0.2204654531  -3.3942604085
	Saving final (previous) structure.
	Cleaning optimization helper files.
			--------------------------
			 OPTKING Finished Execution 
			--------------------------

    Final optimized geometry and variables:
    Molecular point group: c1
    Full point group: C1

    Geometry (in Angstrom), charge = 0, multiplicity = 1:

    C           -0.384938066668    -0.160076207149     0.585094914087
    N            0.871063467182    -0.658515257035     0.404889250055
    C            1.793435035447    -0.387023712953    -0.634509322073
    C            2.695530881470    -1.398155649591    -0.980960696640
    H            1.231277586560    -1.165696604600     1.217726693265
    C            1.869691218364     0.853274410635    -1.276024112480
    C           -0.993240940285    -0.314002833522     1.811152585176
    N           -1.236208398091    -0.926128442077     3.975057175469
    C           -2.342432503846     0.013752168453     2.252778982971
    C           -0.322101045017    -0.945265411233     2.944485871902
    C           -2.449787155058    -0.356161494655     3.548533119887
    C           -1.101785777891     0.459772467663    -0.558316551417
    C           -1.179270636246    -0.210772314868    -1.784181528735
    C           -1.704138794810     1.714340986837    -0.422657497179
    C           -1.858862854792     0.361670065130    -2.853553873441
    C           -2.377700969731     2.288942489912    -1.498059967035
    C           -2.457700326659     1.613572478595    -2.714037413476
    C            3.653055600720    -1.176280567890    -1.965051810725
    C            2.817607714065     1.060240037608    -2.273408729189
    C            3.712535269995     0.050766605710    -2.623543338718
    H            2.635082051366    -2.353913070946    -0.477421660421
    H            1.199536244277     1.651155274848    -0.993478229637
    H           -1.043304841589    -1.304399611803     4.881932337562
    O            0.842007007169    -1.435705637121     3.002069424019
    H           -0.706135011110    -1.177051230417    -1.893890222356
    H           -1.629722857250     2.240218925738     0.519559886947
    H           -1.919331657971    -0.166407442810    -3.795103767715
    H           -2.835302730519     3.262545437091    -1.386358861169
    H           -2.981401038226     2.059379949566    -3.548711148066
    H            4.347552880728    -1.964950628850    -2.220432300121
    H            2.864215749412     2.021430069805    -2.767098024408
    H           -3.117116182506     0.458901558154     1.654356356805
    H           -3.283937448969    -0.278341948139     4.222185251099
    H            4.451309244034     0.220465453941    -3.394260421891

	Removing binary optimization data file.
	Cleaning optimization helper files.

    Psi4 stopped on: Wednesday, 08 June 2022 08:23PM
    Psi4 wall time for execution: 0:53:40.18

*** Psi4 exiting successfully. Buy a developer a beer!
