
    -----------------------------------------------------------------------
          Psi4: An Open-Source Ab Initio Electronic Structure Package
                               Psi4 1.5 release

                         Git: Rev {HEAD} e9f4d6d 


    D. G. A. Smith, L. A. Burns, A. C. Simmonett, R. M. Parrish,
    M. C. Schieber, R. Galvelis, P. Kraus, H. Kruse, R. Di Remigio,
    A. Alenaizan, A. M. James, S. Lehtola, J. P. Misiewicz, M. Scheurer,
    R. A. Shaw, J. B. Schriber, Y. Xie, Z. L. Glick, D. A. Sirianni,
    J. S. O'Brien, J. M. Waldrop, A. Kumar, E. G. Hohenstein,
    B. P. Pritchard, B. R. Brooks, H. F. Schaefer III, A. Yu. Sokolov,
    K. Patkowski, A. E. DePrince III, U. Bozkaya, R. A. King,
    F. A. Evangelista, J. M. Turney, T. D. Crawford, C. D. Sherrill,
    J. Chem. Phys. 152(18) 184108 (2020). https://doi.org/10.1063/5.0006002

                            Additional Code Authors
    E. T. Seidl, C. L. Janssen, E. F. Valeev, M. L. Leininger,
    J. F. Gonthier, R. M. Richard, H. R. McAlexander, M. Saitow, X. Wang,
    P. Verma, M. H. Lechner, and A. Jiang

             Previous Authors, Complete List of Code Contributors,
                       and Citations for Specific Modules
    https://github.com/psi4/psi4/blob/master/codemeta.json
    https://github.com/psi4/psi4/graphs/contributors
    http://psicode.org/psi4manual/master/introduction.html#citing-psifour

    -----------------------------------------------------------------------


    Psi4 started on: Wednesday, 08 June 2022 10:32PM

    Process ID: 1222941
    Host:       node74.bme.utexas.edu
    PSIDATADIR: /home/bdw2292/miniconda3/envs/newamoebamdpoltype/share/psi4
    Memory:     500.0 MiB
    Threads:    1
    
  ==> Input File <==

--------------------------------------------------------------------------
molecule { 
0 1
 C   -0.617258   -0.243913    0.205351
 N    0.526152   -1.020703    0.209542
 C    1.759167   -0.981749   -0.496156
 C    2.416150   -2.224369   -0.717533
 H    0.512218   -1.701569    0.983723
 C    2.389398    0.202805   -0.951433
 C   -1.491283   -0.424304    1.266477
 N   -2.387171   -0.100908    3.313978
 C   -2.602741   -1.326654    1.429967
 C   -1.374033    0.362951    2.506597
 C   -3.119511   -1.103211    2.668815
 C   -0.801912    0.948647   -0.655282
 C   -1.690757    0.895085   -1.755620
 C   -0.232003    2.194595   -0.291431
 C   -1.929193    2.040029   -2.528114
 C   -0.471384    3.336840   -1.066433
 C   -1.313302    3.264612   -2.195335
 C    3.645561   -2.273339   -1.388386
 C    3.618902    0.143263   -1.623988
 C    4.256449   -1.092015   -1.849918
 H    1.961307   -3.155197   -0.369450
 H    1.940271    1.177417   -0.787640
 H   -2.539417    0.267310    4.241617
 O   -0.547536    1.251140    2.811287
 H   -2.181730   -0.048117   -2.002555
 H    0.385519    2.255575    0.607699
 H   -2.594342    1.980838   -3.391336
 H   -0.004461    4.284348   -0.792161
 H   -1.494129    4.153448   -2.802532
 H    4.127300   -3.239071   -1.550816
 H    4.082008    1.068433   -1.971467
 H   -2.959071   -2.053292    0.713431
 H   -3.948957   -1.580627    3.172001
 H    5.212947   -1.132954   -2.374006
}
set optking { 
  frozen_dihedral = ("
    2 1 12 13
    7 1 2 3
    1 2 3 4
  ")
}
set {
  geom_maxiter 400
  g_convergence GAU_LOOSE
  dynamic_level 1
}
memory 8.166666666666666GB
set_num_threads(2)
psi4_io.set_default_path("/scratch/bdw2292/Psi4-1_16_Index_0-farH_in17")
for _ in range(1):
  try:
    set opt_coordinates both
    optimize('wb97x-d/6-311G')
    break
  except OptimizationConvergenceError:
    break
  else:
    try:
      set opt_coordinates cartesian
      optimize('wb97x-d/6-311G')
      break
    except OptimizationConvergenceError:
      pass
clean()
--------------------------------------------------------------------------

  Memory set to   7.606 GiB by Python driver.
  Threads set to 2 by Python driver.

Scratch directory: /scratch/bdw2292/Psi4-1_16_Index_0-farH_in17/

Scratch directory: /scratch/bdw2292/Psi4-1_16_Index_0-farH_in17/
gradient() will perform analytic gradient computation.

*** tstart() called on node74.bme.utexas.edu
*** at Wed Jun  8 22:32:17 2022

   => Loading Basis Set <=

    Name: 6-311G
    Role: ORBITAL
    Keyword: BASIS
    atoms 1, 3-4, 6-7, 9-20 entry C          line    92 file /home/bdw2292/miniconda3/envs/newamoebamdpoltype/share/psi4/basis/6-311g.gbs 
    atoms 2, 8              entry N          line   109 file /home/bdw2292/miniconda3/envs/newamoebamdpoltype/share/psi4/basis/6-311g.gbs 
    atoms 5, 21-23, 25-34   entry H          line    21 file /home/bdw2292/miniconda3/envs/newamoebamdpoltype/share/psi4/basis/6-311g.gbs 
    atoms 24                entry O          line   126 file /home/bdw2292/miniconda3/envs/newamoebamdpoltype/share/psi4/basis/6-311g.gbs 

   => WB97X-D: Empirical Dispersion <=

    Chai and Head-Gordon Dispersion Correction
    Chai, J.-D.; Head-Gordon, M. (2010), J. Chem. Phys., 132: 6615-6620

        s6 =       1.000000


         ---------------------------------------------------------
                                   SCF
               by Justin Turney, Rob Parrish, Andy Simmonett
                          and Daniel G. A. Smith
                              RKS Reference
                        2 Threads,   7788 MiB Core
         ---------------------------------------------------------

  ==> Geometry <==

    Molecular point group: c1
    Full point group: C1

    Geometry (in Angstrom), charge = 0, multiplicity = 1:

       Center              X                  Y                   Z               Mass       
    ------------   -----------------  -----------------  -----------------  -----------------
         C           -0.605843899143    -0.439370585836     0.210599283007    12.000000000000
         N            0.537566100857    -1.216160585836     0.214790283007    14.003074004430
         C            1.770581100857    -1.177206585836    -0.490907716993    12.000000000000
         C            2.427564100857    -2.419826585836    -0.712284716993    12.000000000000
         H            0.523632100857    -1.897026585836     0.988971283007     1.007825032230
         C            2.400812100857     0.007347414164    -0.946184716993    12.000000000000
         C           -1.479868899143    -0.619761585836     1.271725283007    12.000000000000
         N           -2.375756899143    -0.296365585836     3.319226283007    14.003074004430
         C           -2.591326899143    -1.522111585836     1.435215283007    12.000000000000
         C           -1.362618899143     0.167493414164     2.511845283007    12.000000000000
         C           -3.108096899143    -1.298668585836     2.674063283007    12.000000000000
         C           -0.790497899143     0.753189414164    -0.650033716993    12.000000000000
         C           -1.679342899143     0.699627414164    -1.750371716993    12.000000000000
         C           -0.220588899143     1.999137414164    -0.286182716993    12.000000000000
         C           -1.917778899143     1.844571414164    -2.522865716993    12.000000000000
         C           -0.459969899143     3.141382414164    -1.061184716993    12.000000000000
         C           -1.301887899143     3.069154414164    -2.190086716993    12.000000000000
         C            3.656975100857    -2.468796585836    -1.383137716993    12.000000000000
         C            3.630316100857    -0.052194585836    -1.618739716993    12.000000000000
         C            4.267863100857    -1.287472585836    -1.844669716993    12.000000000000
         H            1.972721100857    -3.350654585836    -0.364201716993     1.007825032230
         H            1.951685100857     0.981959414164    -0.782391716993     1.007825032230
         H           -2.528002899143     0.071852414164     4.246865283007     1.007825032230
         O           -0.536121899143     1.055682414164     2.816535283007    15.994914619570
         H           -2.170315899143    -0.243574585836    -1.997306716993     1.007825032230
         H            0.396933100857     2.060117414164     0.612947283007     1.007825032230
         H           -2.582927899143     1.785380414164    -3.386087716993     1.007825032230
         H            0.006953100857     4.088890414164    -0.786912716993     1.007825032230
         H           -1.482714899143     3.957990414164    -2.797283716993     1.007825032230
         H            4.138714100857    -3.434528585836    -1.545567716993     1.007825032230
         H            4.093422100857     0.872975414164    -1.966218716993     1.007825032230
         H           -2.947656899143    -2.248749585836     0.718679283007     1.007825032230
         H           -3.937542899143    -1.776084585836     3.177249283007     1.007825032230
         H            5.224361100857    -1.328411585836    -2.368757716993     1.007825032230

  Running in c1 symmetry.

  Rotational constants: A =      0.01456  B =      0.00880  C =      0.00656 [cm^-1]
  Rotational constants: A =    436.64263  B =    263.73097  C =    196.59504 [MHz]
  Nuclear repulsion = 1407.277787406978860

  Charge       = 0
  Multiplicity = 1
  Electrons    = 138
  Nalpha       = 69
  Nbeta        = 69

  ==> Algorithm <==

  SCF Algorithm Type is DF.
  DIIS enabled.
  MOM disabled.
  Fractional occupation disabled.
  Guess Type is SAD.
  Energy threshold   = 1.00e-08
  Density threshold  = 1.00e-08
  Integral threshold = 1.00e-12

  ==> Primary Basis <==

  Basis Set: 6-311G
    Blend: 6-311G
    Number of shells: 182
    Number of basis functions: 302
    Number of Cartesian functions: 302
    Spherical Harmonics?: true
    Max angular momentum: 1

  ==> DFT Potential <==

   => LibXC <=

    Version 5.1.5
    S. Lehtola, C. Steigemann, M. J. Oliveira, and M. A. Marques, SoftwareX 7, 1 (2018) (10.1016/j.softx.2017.11.002)

   => Composite Functional: WB97X-D <= 

    wB97X-D Hyb-GGA Exchange-Correlation Functional

    J.-D. Chai and M. Head-Gordon, Phys. Chem. Chem. Phys. 10, 6615 (2008) (10.1039/B810189B)

    Deriv               =              1
    GGA                 =           TRUE
    Meta                =          FALSE

    Exchange Hybrid     =           TRUE
    MP2 Hybrid          =          FALSE

   => Exchange-Correlation Functionals <=

    1.0000   wB97X-D range-separated functional

   => Exact (HF) Exchange <=

    0.7780            HF,LR [omega = 0.2000]
    0.2220               HF 

   => LibXC Density Thresholds  <==

    XC_HYB_GGA_XC_WB97X_D:  1.00E-14 

   => Molecular Quadrature <=

    Radial Scheme          =       TREUTLER
    Pruning Scheme         =           NONE
    Nuclear Scheme         =       TREUTLER

    BS radius alpha        =              1
    Pruning alpha          =              1
    Radial Points          =             75
    Spherical Points       =            302
    Total Points           =         701266
    Total Blocks           =           5035
    Max Points             =            256
    Max Functions          =            216
    Weights Tolerance      =       1.00E-15

   => Loading Basis Set <=

    Name: (6-311G AUX)
    Role: JKFIT
    Keyword: DF_BASIS_SCF
    atoms 1, 3-4, 6-7, 9-20 entry C          line   125 file /home/bdw2292/miniconda3/envs/newamoebamdpoltype/share/psi4/basis/cc-pvtz-jkfit.gbs 
    atoms 2, 8              entry N          line   177 file /home/bdw2292/miniconda3/envs/newamoebamdpoltype/share/psi4/basis/cc-pvtz-jkfit.gbs 
    atoms 5, 21-23, 25-34   entry H          line    51 file /home/bdw2292/miniconda3/envs/newamoebamdpoltype/share/psi4/basis/cc-pvtz-jkfit.gbs 
    atoms 24                entry O          line   229 file /home/bdw2292/miniconda3/envs/newamoebamdpoltype/share/psi4/basis/cc-pvtz-jkfit.gbs 

  ==> Integral Setup <==

  DFHelper Memory: AOs need 3.140 GiB; user supplied 3.140 GiB. Using in-core AOs.

  ==> MemDFJK: Density-Fitted J/K Matrices <==

    J tasked:                   Yes
    K tasked:                   Yes
    wK tasked:                  Yes
    Omega:                2.000E-01
    OpenMP threads:               2
    Memory [MiB]:              3215
    Algorithm:                 Core
    Schwarz Cutoff:           1E-12
    Mask sparsity (%):      24.1941
    Fitting Condition:        1E-10

   => Auxiliary Basis Set <=

  Basis Set: (6-311G AUX)
    Blend: CC-PVTZ-JKFIT
    Number of shells: 640
    Number of basis functions: 2000
    Number of Cartesian functions: 2410
    Spherical Harmonics?: true
    Max angular momentum: 4

  Cached 50.0% of DFT collocation blocks in 1.475 [GiB].

  Minimum eigenvalue in the overlap matrix is 2.7623926756E-04.
  Reciprocal condition number of the overlap matrix is 4.1650258634E-05.
    Using symmetric orthogonalization.

  ==> Pre-Iterations <==

  SCF Guess: Superposition of Atomic Densities via on-the-fly atomic UHF (no occupation information).

   -------------------------
    Irrep   Nso     Nmo    
   -------------------------
     A        302     302 
   -------------------------
    Total     302     302
   -------------------------

  ==> Iterations <==

                           Total Energy        Delta E     RMS |[F,P]|

   @DF-RKS iter SAD:  -839.82436196153799   -8.39824e+02   0.00000e+00 
   @DF-RKS iter   1:  -839.96368174630732   -1.39320e-01   3.64372e-03 DIIS
   @DF-RKS iter   2:  -840.09002447374360   -1.26343e-01   3.50115e-03 DIIS
   @DF-RKS iter   3:  -840.51819588834132   -4.28171e-01   1.04096e-03 DIIS
   @DF-RKS iter   4:  -840.55830979653433   -4.01139e-02   1.87620e-04 DIIS
   @DF-RKS iter   5:  -840.55972021909622   -1.41042e-03   8.58278e-05 DIIS
   @DF-RKS iter   6:  -840.56012446315208   -4.04244e-04   2.64629e-05 DIIS
   @DF-RKS iter   7:  -840.56021822253490   -9.37594e-05   1.37788e-05 DIIS
   @DF-RKS iter   8:  -840.56028442956119   -6.62070e-05   8.16375e-06 DIIS
   @DF-RKS iter   9:  -840.56036778210182   -8.33525e-05   7.14156e-06 DIIS
   @DF-RKS iter  10:  -840.56041903439154   -5.12523e-05   5.97626e-06 DIIS
   @DF-RKS iter  11:  -840.56045904254859   -4.00082e-05   4.23906e-06 DIIS
   @DF-RKS iter  12:  -840.56048568306426   -2.66405e-05   2.99168e-06 DIIS
   @DF-RKS iter  13:  -840.56049211905179   -6.43599e-06   7.78578e-07 DIIS
   @DF-RKS iter  14:  -840.56049222134061   -1.02289e-07   3.13646e-07 DIIS
   @DF-RKS iter  15:  -840.56049223105629   -9.71568e-09   1.42407e-07 DIIS
   @DF-RKS iter  16:  -840.56049223514015   -4.08386e-09   7.35424e-08 DIIS
   @DF-RKS iter  17:  -840.56049223789262   -2.75247e-09   2.43704e-08 DIIS
   @DF-RKS iter  18:  -840.56049223795128   -5.86624e-11   1.11901e-08 DIIS
   @DF-RKS iter  19:  -840.56049223796504   -1.37561e-11   4.46818e-09 DIIS
  Energy and wave function converged.


  ==> Post-Iterations <==

   Electrons on quadrature grid:
      Ntotal   =  138.0001992489 ; deviation = 1.992e-04 

    Orbital Energies [Eh]
    ---------------------

    Doubly Occupied:                                                      

       1A    -19.152230     2A    -14.537694     3A    -14.438025  
       4A    -10.414037     5A    -10.377818     6A    -10.349088  
       7A    -10.329885     8A    -10.328790     9A    -10.324751  
      10A    -10.323946    11A    -10.322356    12A    -10.321802  
      13A    -10.313609    14A    -10.307635    15A    -10.306938  
      16A    -10.306839    17A    -10.305379    18A    -10.280779  
      19A    -10.264575    20A    -10.250453    21A     -1.110439  
      22A     -1.094799    23A     -1.020994    24A     -0.989227  
      25A     -0.974394    26A     -0.919378    27A     -0.879454  
      28A     -0.870547    29A     -0.860979    30A     -0.857462  
      31A     -0.808287    32A     -0.762323    33A     -0.743703  
      34A     -0.734345    35A     -0.715056    36A     -0.697583  
      37A     -0.677836    38A     -0.661679    39A     -0.659300  
      40A     -0.624784    41A     -0.609394    42A     -0.583658  
      43A     -0.576650    44A     -0.563303    45A     -0.559446  
      46A     -0.554309    47A     -0.539624    48A     -0.538346  
      49A     -0.522357    50A     -0.520633    51A     -0.506398  
      52A     -0.491357    53A     -0.488201    54A     -0.479494  
      55A     -0.476277    56A     -0.464092    57A     -0.459117  
      58A     -0.450834    59A     -0.444084    60A     -0.440764  
      61A     -0.431119    62A     -0.368638    63A     -0.359157  
      64A     -0.347073    65A     -0.344468    66A     -0.339188  
      67A     -0.304594    68A     -0.290117    69A     -0.209543  

    Virtual:                                                              

      70A     -0.034674    71A      0.032053    72A      0.045292  
      73A      0.049980    74A      0.052338    75A      0.103777  
      76A      0.119402    77A      0.124374    78A      0.144370  
      79A      0.148392    80A      0.151962    81A      0.157175  
      82A      0.161384    83A      0.172934    84A      0.177950  
      85A      0.183042    86A      0.190617    87A      0.195239  
      88A      0.206866    89A      0.210994    90A      0.216076  
      91A      0.218941    92A      0.238458    93A      0.262975  
      94A      0.271736    95A      0.297187    96A      0.305948  
      97A      0.321789    98A      0.328355    99A      0.337988  
     100A      0.341243   101A      0.344209   102A      0.345513  
     103A      0.356199   104A      0.361448   105A      0.370669  
     106A      0.387241   107A      0.400706   108A      0.402957  
     109A      0.411478   110A      0.417674   111A      0.424171  
     112A      0.441202   113A      0.445902   114A      0.448486  
     115A      0.453527   116A      0.462809   117A      0.469155  
     118A      0.474055   119A      0.483731   120A      0.485965  
     121A      0.489809   122A      0.494572   123A      0.502276  
     124A      0.503706   125A      0.509360   126A      0.512384  
     127A      0.516093   128A      0.522087   129A      0.526063  
     130A      0.527243   131A      0.538267   132A      0.544569  
     133A      0.548658   134A      0.555388   135A      0.560992  
     136A      0.569486   137A      0.582106   138A      0.590883  
     139A      0.595418   140A      0.600003   141A      0.606914  
     142A      0.627421   143A      0.638602   144A      0.658627  
     145A      0.659750   146A      0.663152   147A      0.671104  
     148A      0.674324   149A      0.675617   150A      0.681461  
     151A      0.685741   152A      0.687781   153A      0.701390  
     154A      0.706104   155A      0.720109   156A      0.723353  
     157A      0.726810   158A      0.737200   159A      0.744739  
     160A      0.748209   161A      0.751122   162A      0.764653  
     163A      0.772916   164A      0.779243   165A      0.782295  
     166A      0.801566   167A      0.813750   168A      0.820934  
     169A      0.830812   170A      0.838163   171A      0.840658  
     172A      0.843064   173A      0.850415   174A      0.864775  
     175A      0.867437   176A      0.871811   177A      0.879007  
     178A      0.909669   179A      0.910226   180A      0.920811  
     181A      0.927285   182A      0.932029   183A      0.948568  
     184A      0.955691   185A      0.969044   186A      0.990444  
     187A      0.996822   188A      1.004954   189A      1.037312  
     190A      1.049695   191A      1.074348   192A      1.082685  
     193A      1.095304   194A      1.101668   195A      1.116866  
     196A      1.130043   197A      1.146509   198A      1.164754  
     199A      1.188143   200A      1.203621   201A      1.283026  
     202A      1.294843   203A      1.323713   204A      1.386695  
     205A      1.429248   206A      1.447584   207A      1.511873  
     208A      1.882390   209A      2.282257   210A      2.299561  
     211A      2.327031   212A      2.332598   213A      2.351256  
     214A      2.366599   215A      2.395980   216A      2.408201  
     217A      2.414443   218A      2.438278   219A      2.482342  
     220A      2.486624   221A      2.584716   222A      2.597014  
     223A      2.607139   224A      2.626604   225A      2.637505  
     226A      2.645837   227A      2.668223   228A      2.688422  
     229A      2.711406   230A      2.731429   231A      2.747786  
     232A      2.757368   233A      2.775392   234A      2.798840  
     235A      2.802296   236A      2.806802   237A      2.818124  
     238A      2.822846   239A      2.854729   240A      2.860139  
     241A      2.870417   242A      2.890354   243A      2.908835  
     244A      2.916758   245A      2.949343   246A      2.969278  
     247A      2.973752   248A      2.982294   249A      3.003186  
     250A      3.016582   251A      3.079905   252A      3.091290  
     253A      3.095566   254A      3.108888   255A      3.150484  
     256A      3.172208   257A      3.200550   258A      3.223059  
     259A      3.228279   260A      3.250398   261A      3.254275  
     262A      3.272560   263A      3.295021   264A      3.300902  
     265A      3.319318   266A      3.319406   267A      3.337212  
     268A      3.344624   269A      3.370966   270A      3.383908  
     271A      3.469389   272A      3.489409   273A      3.543387  
     274A      3.840337   275A      3.868978   276A      4.139297  
     277A      4.158007   278A      4.247420   279A      4.275935  
     280A      5.060880   281A      5.160914   282A      5.170575  
     283A     23.216232   284A     23.252499   285A     23.377087  
     286A     23.449568   287A     23.466199   288A     23.478804  
     289A     23.501469   290A     23.551253   291A     23.618273  
     292A     23.693352   293A     23.721323   294A     23.724654  
     295A     23.751481   296A     23.762767   297A     23.910877  
     298A     23.958107   299A     23.987598   300A     35.492899  
     301A     35.551942   302A     50.136965  

    Final Occupation by Irrep:
              A 
    DOCC [    69 ]

  @DF-RKS Final Energy:  -840.56049223796504

   => Energetics <=

    Nuclear Repulsion Energy =           1407.2777874069788595
    One-Electron Energy =               -3932.6244712485026866
    Two-Electron Energy =                1767.3385292482685145
    DFT Exchange-Correlation Energy =     -82.5286094764830978
    Empirical Dispersion Energy =          -0.0237281682267463
    VV10 Nonlocal Energy =                  0.0000000000000000
    Total Energy =                       -840.5604922379651498

Computation Completed


Properties will be evaluated at   0.000000,   0.000000,   0.000000 [a0]

Properties computed using the SCF density matrix

  Nuclear Dipole Moment: [e a0]
     X:     2.4957      Y:    -0.4216      Z:    -5.8559

  Electronic Dipole Moment: [e a0]
     X:    -1.4703      Y:    -0.6652      Z:     3.9715

  Dipole Moment: [e a0]
     X:     1.0255      Y:    -1.0868      Z:    -1.8844     Total:     2.4050

  Dipole Moment: [D]
     X:     2.6065      Y:    -2.7625      Z:    -4.7897     Total:     6.1128


*** tstop() called on node74.bme.utexas.edu at Wed Jun  8 22:35:07 2022
Module time:
	user time   =     325.29 seconds =       5.42 minutes
	system time =       8.48 seconds =       0.14 minutes
	total time  =        170 seconds =       2.83 minutes
Total time:
	user time   =     325.29 seconds =       5.42 minutes
	system time =       8.48 seconds =       0.14 minutes
	total time  =        170 seconds =       2.83 minutes

*** tstart() called on node74.bme.utexas.edu
*** at Wed Jun  8 22:35:07 2022


         ------------------------------------------------------------
                                   SCF GRAD                          
                          Rob Parrish, Justin Turney,                
                       Andy Simmonett, and Alex Sokolov              
         ------------------------------------------------------------

  ==> Geometry <==

    Molecular point group: c1
    Full point group: C1

    Geometry (in Angstrom), charge = 0, multiplicity = 1:

       Center              X                  Y                   Z               Mass       
    ------------   -----------------  -----------------  -----------------  -----------------
         C           -0.605843899143    -0.439370585836     0.210599283007    12.000000000000
         N            0.537566100857    -1.216160585836     0.214790283007    14.003074004430
         C            1.770581100857    -1.177206585836    -0.490907716993    12.000000000000
         C            2.427564100857    -2.419826585836    -0.712284716993    12.000000000000
         H            0.523632100857    -1.897026585836     0.988971283007     1.007825032230
         C            2.400812100857     0.007347414164    -0.946184716993    12.000000000000
         C           -1.479868899143    -0.619761585836     1.271725283007    12.000000000000
         N           -2.375756899143    -0.296365585836     3.319226283007    14.003074004430
         C           -2.591326899143    -1.522111585836     1.435215283007    12.000000000000
         C           -1.362618899143     0.167493414164     2.511845283007    12.000000000000
         C           -3.108096899143    -1.298668585836     2.674063283007    12.000000000000
         C           -0.790497899143     0.753189414164    -0.650033716993    12.000000000000
         C           -1.679342899143     0.699627414164    -1.750371716993    12.000000000000
         C           -0.220588899143     1.999137414164    -0.286182716993    12.000000000000
         C           -1.917778899143     1.844571414164    -2.522865716993    12.000000000000
         C           -0.459969899143     3.141382414164    -1.061184716993    12.000000000000
         C           -1.301887899143     3.069154414164    -2.190086716993    12.000000000000
         C            3.656975100857    -2.468796585836    -1.383137716993    12.000000000000
         C            3.630316100857    -0.052194585836    -1.618739716993    12.000000000000
         C            4.267863100857    -1.287472585836    -1.844669716993    12.000000000000
         H            1.972721100857    -3.350654585836    -0.364201716993     1.007825032230
         H            1.951685100857     0.981959414164    -0.782391716993     1.007825032230
         H           -2.528002899143     0.071852414164     4.246865283007     1.007825032230
         O           -0.536121899143     1.055682414164     2.816535283007    15.994914619570
         H           -2.170315899143    -0.243574585836    -1.997306716993     1.007825032230
         H            0.396933100857     2.060117414164     0.612947283007     1.007825032230
         H           -2.582927899143     1.785380414164    -3.386087716993     1.007825032230
         H            0.006953100857     4.088890414164    -0.786912716993     1.007825032230
         H           -1.482714899143     3.957990414164    -2.797283716993     1.007825032230
         H            4.138714100857    -3.434528585836    -1.545567716993     1.007825032230
         H            4.093422100857     0.872975414164    -1.966218716993     1.007825032230
         H           -2.947656899143    -2.248749585836     0.718679283007     1.007825032230
         H           -3.937542899143    -1.776084585836     3.177249283007     1.007825032230
         H            5.224361100857    -1.328411585836    -2.368757716993     1.007825032230

  Nuclear repulsion = 1407.277787406978860

  ==> Basis Set <==

  Basis Set: 6-311G
    Blend: 6-311G
    Number of shells: 182
    Number of basis functions: 302
    Number of Cartesian functions: 302
    Spherical Harmonics?: true
    Max angular momentum: 1

  ==> DFJKGrad: Density-Fitted SCF Gradients <==

    Gradient:                    1
    J tasked:                  Yes
    K tasked:                  Yes
    wK tasked:                 Yes
    Omega:               2.000E-01
    OpenMP threads:              2
    Integrals threads:           2
    Memory [MiB]:             5841
    Schwarz Cutoff:          1E-12
    Fitting Condition:       1E-10

   => Auxiliary Basis Set <=

  Basis Set: (6-311G AUX)
    Blend: CC-PVTZ-JKFIT
    Number of shells: 640
    Number of basis functions: 2000
    Number of Cartesian functions: 2410
    Spherical Harmonics?: true
    Max angular momentum: 4

  ==> DFT Potential <==

   => LibXC <=

    Version 5.1.5
    S. Lehtola, C. Steigemann, M. J. Oliveira, and M. A. Marques, SoftwareX 7, 1 (2018) (10.1016/j.softx.2017.11.002)

   => Composite Functional: WB97X-D <= 

    wB97X-D Hyb-GGA Exchange-Correlation Functional

    J.-D. Chai and M. Head-Gordon, Phys. Chem. Chem. Phys. 10, 6615 (2008) (10.1039/B810189B)

    Deriv               =              1
    GGA                 =           TRUE
    Meta                =          FALSE

    Exchange Hybrid     =           TRUE
    MP2 Hybrid          =          FALSE

   => Exchange-Correlation Functionals <=

    1.0000   wB97X-D range-separated functional

   => Exact (HF) Exchange <=

    0.7780            HF,LR [omega = 0.2000]
    0.2220               HF 

   => LibXC Density Thresholds  <==

    XC_HYB_GGA_XC_WB97X_D:  1.00E-14 

   => Molecular Quadrature <=

    Radial Scheme          =       TREUTLER
    Pruning Scheme         =           NONE
    Nuclear Scheme         =       TREUTLER

    BS radius alpha        =              1
    Pruning alpha          =              1
    Radial Points          =             75
    Spherical Points       =            302
    Total Points           =         701266
    Total Blocks           =           5035
    Max Points             =            256
    Max Functions          =            216
    Weights Tolerance      =       1.00E-15


  -Total Gradient:
     Atom            X                  Y                   Z
    ------   -----------------  -----------------  -----------------
       1       -0.064297802582     0.004413709935     0.003377512647
       2        0.033848657748    -0.015302003439    -0.007438436262
       3       -0.020813433776     0.005760411261     0.022675323673
       4        0.001805911236    -0.008698203239    -0.000095010590
       5        0.004050428768    -0.009521251099     0.011085551153
       6        0.004685363542     0.004538920671    -0.001718997250
       7        0.029999353397     0.007092531231    -0.033932663162
       8        0.005119314632     0.008079977724    -0.002480815591
       9       -0.007615450763     0.006578768932    -0.007316456536
      10        0.010577261975     0.002594005848     0.032070047904
      11        0.013060021350     0.006120847278    -0.011430700032
      12       -0.001281835392    -0.016951237744     0.011287765990
      13       -0.006564137981     0.000401879456    -0.003292944600
      14       -0.003775305424     0.005205397417     0.001586229153
      15       -0.004826524458    -0.004534833973    -0.003733013403
      16        0.006991560535     0.003786946739     0.006034136988
      17       -0.001755059244     0.007228164214    -0.004966235223
      18        0.000218926703    -0.005081797150    -0.001004019191
      19       -0.000736350022     0.009746646869    -0.000188940397
      20        0.007712951861    -0.001786263333    -0.003563656870
      21       -0.001189812970    -0.006561414527     0.002220876163
      22        0.000027691213     0.006402722567    -0.000236914633
      23       -0.000145614090     0.003128624055     0.007495031627
      24       -0.017353109390    -0.013912761769    -0.006308497246
      25       -0.002675673143    -0.005922580696    -0.000914065436
      26        0.005971383919     0.000958935398     0.004709745595
      27       -0.003889124175    -0.000215417841    -0.005737843632
      28        0.003504970704     0.006139794901     0.000844480411
      29       -0.000861287903     0.005823288178    -0.003907259500
      30        0.002992836123    -0.006287034513    -0.001114259637
      31        0.003397569605     0.005873125568    -0.002875413923
      32       -0.000845969376    -0.002453645316    -0.001266555098
      33       -0.001776257573    -0.002527982045     0.003818428870
      34        0.006467724416    -0.000191614538    -0.003584945629


*** tstop() called on node74.bme.utexas.edu at Wed Jun  8 22:36:09 2022
Module time:
	user time   =     117.41 seconds =       1.96 minutes
	system time =       1.80 seconds =       0.03 minutes
	total time  =         62 seconds =       1.03 minutes
Total time:
	user time   =     442.70 seconds =       7.38 minutes
	system time =      10.28 seconds =       0.17 minutes
	total time  =        232 seconds =       3.87 minutes

			-----------------------------------------
			 OPTKING 2.0: for geometry optimizations 
			  - R.A. King,  Bethel University        
			-----------------------------------------
	At level 1: Red. Int., RFO, no backsteps, dynamic trust

	Internal coordinates to be generated automatically.
	Detected frag 1 with atoms:  1 2 3 4 5 6 7 8 9 10 11 12 13 14 15 16 17 18 19 20
	 21 22 23 24 25 26 27 28 29 30 31 32 33 34
	---Fragment 1 Bond Connectivity---
	 1 : 2 7 12
	 2 : 1 3 5
	 3 : 2 4 6
	 4 : 3 18 21
	 5 : 2
	 6 : 3 19 22
	 7 : 1 9 10
	 8 : 10 11 23
	 9 : 7 11 32
	 10 : 7 8 24
	 11 : 8 9 33
	 12 : 1 13 14
	 13 : 12 15 25
	 14 : 12 16 26
	 15 : 13 17 27
	 16 : 14 17 28
	 17 : 15 16 29
	 18 : 4 20 30
	 19 : 6 20 31
	 20 : 18 19 34
	 21 : 4
	 22 : 6
	 23 : 8
	 24 : 10
	 25 : 13
	 26 : 14
	 27 : 15
	 28 : 16
	 29 : 17
	 30 : 18
	 31 : 19
	 32 : 9
	 33 : 11
	 34 : 20

	Assuming in current code that numbering for constraints corresponds to unified fragment.
	Frozen dihedral atom list: 
	     2     1    12    13
	     7     1     2     3
	     1     2     3     4
	---Fragment 1 Geometry and Gradient---
	 C          -1.1448790442       -0.8302900748        0.3979749671
	 N           1.0158527049       -2.2982104318        0.4058948093
	 C           3.3459133635       -2.2245980403       -0.9276811380
	 C           4.5874313026       -4.5728095183       -1.3460230385
	 H           0.9895212611       -3.5848606999        1.8688848708
	 C           4.5368773493        0.0138846005       -1.7880299792
	 C          -2.7965469210       -1.1711796603        2.4032124917
	 N          -4.4895298800       -0.5600497902        6.2724286233
	 C          -4.8968981409       -2.8763740296        2.7121638160
	 C          -2.5749765328        0.3165166806        4.7466996544
	 C          -5.8734519108       -2.4541279550        5.0532472470
	 C          -1.4938245321        1.4233217134       -1.2283856974
	 C          -3.1734981501        1.3221042026       -3.3077231629
	 C          -0.4168526057        3.7778221999       -0.5408069570
	 C          -3.6240768886        3.4857347916       -4.7675252564
	 C          -0.8692171353        5.9363524181       -2.0053484836
	 C          -2.4602115754        5.7998612795       -4.1386640861
	 C           6.9106813882       -4.6653494067       -2.6137514789
	 C           6.8603031795       -0.0986334725       -3.0589747335
	 C           8.0650924016       -2.4329705813       -3.4859205570
	 H           3.7279026025       -6.3318195082       -0.6882414995
	 H           3.6881503238        1.8556343591       -1.4785060679
	 H          -4.7772331237        0.1357813842        8.0254122766
	 O          -1.0131235592        1.9949506382        5.3224803076
	 H          -4.1013026551       -0.4602892584       -3.7743626837
	 H           0.7500948507        3.8930576991        1.1583024942
	 H          -4.8810263312        3.3738800125       -6.3987784219
	 H           0.0131394563        7.7268830398       -1.4870495198
	 H          -2.8019250815        7.4795178900       -5.2861001203
	 H           7.8210361622       -6.4903183973       -2.9206996935
	 H           7.7354466865        1.6496844470       -3.7156148779
	 H          -5.5702642512       -4.2495208420        1.3581070169
	 H          -7.4408776866       -3.3563134429        6.0041309772
	 H           9.8726116611       -2.5103340791       -4.4763033427
	            -0.0642978026        0.0044137099        0.0033775126
	             0.0338486577       -0.0153020034       -0.0074384363
	            -0.0208134338        0.0057604113        0.0226753237
	             0.0018059112       -0.0086982032       -0.0000950106
	             0.0040504288       -0.0095212511        0.0110855512
	             0.0046853635        0.0045389207       -0.0017189973
	             0.0299993534        0.0070925312       -0.0339326632
	             0.0051193146        0.0080799777       -0.0024808156
	            -0.0076154508        0.0065787689       -0.0073164565
	             0.0105772620        0.0025940058        0.0320700479
	             0.0130600214        0.0061208473       -0.0114307000
	            -0.0012818354       -0.0169512377        0.0112877660
	            -0.0065641380        0.0004018795       -0.0032929446
	            -0.0037753054        0.0052053974        0.0015862292
	            -0.0048265245       -0.0045348340       -0.0037330134
	             0.0069915605        0.0037869467        0.0060341370
	            -0.0017550592        0.0072281642       -0.0049662352
	             0.0002189267       -0.0050817972       -0.0010040192
	            -0.0007363500        0.0097466469       -0.0001889404
	             0.0077129519       -0.0017862633       -0.0035636569
	            -0.0011898130       -0.0065614145        0.0022208762
	             0.0000276912        0.0064027226       -0.0002369146
	            -0.0001456141        0.0031286241        0.0074950316
	            -0.0173531094       -0.0139127618       -0.0063084972
	            -0.0026756731       -0.0059225807       -0.0009140654
	             0.0059713839        0.0009589354        0.0047097456
	            -0.0038891242       -0.0002154178       -0.0057378436
	             0.0035049707        0.0061397949        0.0008444804
	            -0.0008612879        0.0058232882       -0.0039072595
	             0.0029928361       -0.0062870345       -0.0011142596
	             0.0033975696        0.0058731256       -0.0028754139
	            -0.0008459694       -0.0024536453       -0.0012665551
	            -0.0017762576       -0.0025279820        0.0038184289
	             0.0064677244       -0.0001916145       -0.0035849456

	Previous optimization step data not found.  Starting new optimization.

	---Fragment 1 Intrafragment Coordinates---
	 - Coordinate -           - BOHR/RAD -       - ANG/DEG -
	 R(1,2)           =         2.612205	       1.382319
	 R(1,7)           =         2.620151	       1.386524
	 R(1,12)          =         2.800996	       1.482223
	 R(2,3)           =         2.685708	       1.421215
	 R(2,5)           =         1.948461	       1.031081
	 R(3,4)           =         2.688954	       1.422933
	 R(3,6)           =         2.677574	       1.416911
	 R(4,18)          =         2.648243	       1.401390
	 R(4,21)          =         2.065329	       1.092925
	 R(6,19)          =         2.650711	       1.402696
	 R(6,22)          =         2.051386	       1.085547
	 R(7,9)           =         2.722979	       1.440938
	 R(7,10)          =         2.784648	       1.473572
	 R(8,10)          =         2.600333	       1.376037
	 R(8,11)          =         2.643705	       1.398988
	 R(8,23)          =         1.907854	       1.009593
	 R(9,11)          =         2.571502	       1.360780
	 R(9,32)          =         2.042651	       1.080924
	 R(10,24)         =         2.363905	       1.250925
	 R(11,33)         =         2.043268	       1.081251
	 R(12,13)         =         2.674919	       1.415506
	 R(12,14)         =         2.678863	       1.417593
	 R(13,15)         =         2.648649	       1.401605
	 R(13,25)         =         2.062886	       1.091632
	 R(14,16)         =         2.647408	       1.400948
	 R(14,26)         =         2.064466	       1.092468
	 R(15,17)         =         2.665564	       1.410556
	 R(15,27)         =         2.062382	       1.091366
	 R(16,17)         =         2.664757	       1.410129
	 R(16,28)         =         2.062326	       1.091336
	 R(17,29)         =         2.062674	       1.091520
	 R(18,20)         =         2.660237	       1.407737
	 R(18,30)         =         2.062395	       1.091373
	 R(19,20)         =         2.661377	       1.408340
	 R(19,31)         =         2.062442	       1.091397
	 R(20,34)         =         2.062515	       1.091436
	 B(1,2,3)         =         2.347209	     134.485171
	 B(1,2,5)         =         1.941397	     111.233834
	 B(1,7,9)         =         2.284369	     130.884731
	 B(1,7,10)        =         2.122810	     121.628055
	 B(1,12,13)       =         2.093400	     119.943003
	 B(1,12,14)       =         2.103705	     120.533405
	 B(2,1,7)         =         2.033078	     116.486793
	 B(2,1,12)        =         2.161489	     123.844214
	 B(2,3,4)         =         2.041917	     116.993249
	 B(2,3,6)         =         2.175301	     124.635554
	 B(3,2,5)         =         1.985208	     113.744054
	 B(3,4,18)        =         2.106029	     120.666563
	 B(3,4,21)        =         2.096776	     120.136410
	 B(3,6,19)        =         2.104179	     120.560567
	 B(3,6,22)        =         2.115389	     121.202889
	 B(4,3,6)         =         2.065440	     118.340978
	 B(4,18,20)       =         2.104027	     120.551846
	 B(4,18,30)       =         2.082203	     119.301437
	 B(6,19,20)       =         2.107086	     120.727127
	 B(6,19,31)       =         2.081285	     119.248857
	 B(7,1,12)        =         2.060672	     118.067782
	 B(7,9,11)        =         1.868570	     107.061156
	 B(7,9,32)        =         2.214341	     126.872373
	 B(7,10,8)        =         1.828758	     104.780090
	 B(7,10,24)       =         2.261249	     129.560013
	 B(8,10,24)       =         2.193084	     125.654456
	 B(8,11,9)        =         1.916318	     109.796946
	 B(8,11,33)       =         2.098206	     120.218335
	 B(9,7,10)        =         1.875959	     107.484553
	 B(9,11,33)       =         2.268544	     129.977975
	 B(10,8,11)       =         1.935156	     110.876248
	 B(10,8,23)       =         2.126096	     121.816336
	 B(11,8,23)       =         2.221934	     127.307414
	 B(11,9,32)       =         2.200231	     126.063924
	 B(12,13,15)      =         2.099420	     120.287922
	 B(12,13,25)      =         2.083983	     119.403404
	 B(12,14,16)      =         2.101258	     120.393220
	 B(12,14,26)      =         2.080079	     119.179759
	 B(13,12,14)      =         2.077415	     119.027118
	 B(13,15,17)      =         2.100033	     120.323052
	 B(13,15,27)      =         2.088989	     119.690257
	 B(14,16,17)      =         2.098011	     120.207186
	 B(14,16,28)      =         2.089493	     119.719134
	 B(15,13,25)      =         2.099742	     120.306335
	 B(15,17,16)      =         2.087513	     119.605680
	 B(15,17,29)      =         2.098297	     120.223547
	 B(16,14,26)      =         2.101768	     120.422414
	 B(16,17,29)      =         2.097336	     120.168500
	 B(17,15,27)      =         2.094162	     119.986668
	 B(17,16,28)      =         2.095680	     120.073622
	 B(18,4,21)       =         2.080362	     119.195987
	 B(18,20,19)      =         2.079452	     119.143828
	 B(18,20,34)      =         2.101630	     120.414548
	 B(19,6,22)       =         2.063608	     118.236057
	 B(19,20,34)      =         2.102100	     120.441472
	 B(20,18,30)      =         2.096956	     120.146717
	 B(20,19,31)      =         2.094812	     120.023888
	*D(1,2,3,4)       =        -2.629393	    -150.653095
	 D(1,2,3,6)       =         0.547785	      31.385768
	 D(1,7,9,11)      =         3.132689	     179.489849
	 D(1,7,9,32)      =         0.000789	       0.045223
	 D(1,7,10,8)      =        -3.130379	    -179.357491
	 D(1,7,10,24)     =        -0.003174	      -0.181874
	 D(1,12,13,15)    =         3.077650	     176.336330
	 D(1,12,13,25)    =        -0.073622	      -4.218216
	 D(1,12,14,16)    =        -3.077978	    -176.355158
	 D(1,12,14,26)    =         0.050044	       2.867337
	 D(2,1,7,9)       =        -1.561726	     -89.480331
	 D(2,1,7,10)      =         1.568136	      89.847561
	*D(2,1,12,13)     =         1.885122	     108.009532
	 D(2,1,12,14)     =        -1.398907	     -80.151471
	 D(2,3,4,18)      =        -3.125790	    -179.094566
	 D(2,3,4,21)      =         0.022331	       1.279479
	 D(2,3,6,19)      =         3.124984	     179.048418
	 D(2,3,6,22)      =        -0.012101	      -0.693348
	*D(3,2,1,7)       =        -2.886956	    -165.410416
	 D(3,2,1,12)      =        -0.002670	      -0.152972
	 D(3,4,18,20)     =         0.005548	       0.317874
	 D(3,4,18,30)     =        -3.135863	    -179.671709
	 D(3,6,19,20)     =        -0.009558	      -0.547623
	 D(3,6,19,31)     =         3.134302	     179.582264
	 D(4,3,2,5)       =         0.675793	      38.720109
	 D(4,3,6,19)      =         0.019418	       1.112592
	 D(4,3,6,22)      =        -3.117667	    -178.629173
	 D(4,18,20,19)    =         0.004736	       0.271375
	 D(4,18,20,34)    =        -3.139315	    -179.869486
	 D(5,2,1,7)       =         0.094010	       5.386364
	 D(5,2,1,12)      =         2.978296	     170.643807
	 D(5,2,3,6)       =        -2.430214	    -139.241028
	 D(6,3,4,18)      =        -0.017462	      -1.000516
	 D(6,3,4,21)      =         3.130659	     179.373530
	 D(6,19,20,18)    =        -0.002758	      -0.158002
	 D(6,19,20,34)    =         3.141294	     179.982898
	 D(7,1,12,13)     =        -1.517550	     -86.949198
	 D(7,1,12,14)     =         1.481606	      84.889799
	 D(7,9,11,8)      =        -0.004486	      -0.257026
	 D(7,9,11,33)     =        -3.129282	    -179.294654
	 D(7,10,8,11)     =        -0.004706	      -0.269629
	 D(7,10,8,23)     =         3.137079	     179.741388
	 D(8,10,7,9)      =         0.001916	       0.109767
	 D(8,11,9,32)     =         3.127514	     179.193362
	 D(9,7,1,12)      =         1.821745	     104.378291
	 D(9,7,10,24)     =         3.129120	     179.285385
	 D(9,11,8,10)     =         0.006008	       0.344213
	 D(9,11,8,23)     =        -3.135790	    -179.667556
	 D(10,7,1,12)     =        -1.331578	     -76.293817
	 D(10,7,9,11)     =         0.001568	       0.089847
	 D(10,7,9,32)     =        -3.130331	    -179.354779
	 D(10,8,11,33)    =         3.132705	     179.490796
	 D(11,8,10,24)    =        -3.132647	    -179.487443
	 D(12,13,15,17)   =        -0.029278	      -1.677528
	 D(12,13,15,27)   =         3.111342	     178.266791
	 D(12,14,16,17)   =         0.031464	       1.802729
	 D(12,14,16,28)   =        -3.111651	    -178.284465
	 D(13,12,14,16)   =        -0.077532	      -4.442234
	 D(13,12,14,26)   =         3.050491	     174.780261
	 D(13,15,17,16)   =        -0.017728	      -1.015737
	 D(13,15,17,29)   =         3.133423	     179.531903
	 D(14,12,13,15)   =         0.076352	       4.374655
	 D(14,12,13,25)   =        -3.074919	    -176.179891
	 D(14,16,17,15)   =         0.016612	       0.951770
	 D(14,16,17,29)   =        -3.134534	    -179.595565
	 D(15,17,16,28)   =        -3.123454	    -178.960725
	 D(16,17,15,27)   =         3.124839	     179.040109
	 D(17,15,13,25)   =         3.122081	     178.882057
	 D(17,16,14,26)   =        -3.096389	    -177.410046
	 D(18,20,19,31)   =         3.136551	     179.711107
	 D(19,20,18,30)   =        -3.137040	    -179.739130
	 D(20,18,4,21)    =         3.140673	     179.947309
	 D(20,19,6,22)    =         3.127659	     179.201666
	 D(21,4,18,30)    =        -0.000738	      -0.042274
	 D(22,6,19,31)    =        -0.011667	      -0.668447
	 D(23,8,10,24)    =         0.009138	       0.523573
	 D(23,8,11,33)    =        -0.009093	      -0.520973
	 D(25,13,15,27)   =        -0.020484	      -1.173623
	 D(26,14,16,28)   =         0.043681	       2.502759
	 D(27,15,17,29)   =        -0.007195	      -0.412251
	 D(28,16,17,29)   =         0.008586	       0.491940
	 D(30,18,20,34)   =         0.002095	       0.120009
	 D(31,19,20,34)   =        -0.002583	      -0.147992
	 D(32,9,11,33)    =         0.002718	       0.155734
	 R(3,14)          =         7.094866	       3.754442
	 R(6,12)          =         6.218447	       3.290660
	 R(6,14)          =         6.345253	       3.357763
	 R(10,14)         =         6.678013	       3.533852
	 R(12,24)         =         6.593306	       3.489027
	 R(14,24)         =         6.157297	       3.258301

	Current energy   :      -840.5604922380

	Generating empirical Hessian (Schlegel '84) for each fragment.
	Taking RFO optimization step.
	Going to follow RFO solution 1.
	Using RFO vector 1.
	Norm of target step-size    0.48348
	Projected energy change by RFO approximation:        -0.0152332099

	Back-transformation to cartesian coordinates...
	Could not converge backtransformation.
	Using first guess instead.

	Back-transformation to cartesian coordinates to adjust frozen coordinates...
	Successfully converged to displaced geometry.

	--- Internal Coordinate Step in ANG or DEG, aJ/ANG or AJ/DEG ---
	 ---------------------------------------------------------------------------
	   Coordinate                Previous        Force       Change         New 
	   ----------                --------       ------       ------       ------
	    1 R(1,2)          =      1.382319    -0.309478    -0.039074     1.343245
	    2 R(1,7)          =      1.386524     0.298429     0.041561     1.428085
	    3 R(1,12)         =      1.482223     0.032316     0.008986     1.491209
	    4 R(2,3)          =      1.421215     0.061620     0.006155     1.427370
	    5 R(2,5)          =      1.031081    -0.119889    -0.013567     1.017515
	    6 R(3,4)          =      1.422933    -0.162814    -0.017518     1.405415
	    7 R(3,6)          =      1.416911    -0.152537    -0.018861     1.398050
	    8 R(4,18)         =      1.401390    -0.101695    -0.012854     1.388536
	    9 R(4,21)         =      1.092925    -0.055912    -0.005255     1.087670
	   10 R(6,19)         =      1.402696    -0.091072    -0.011468     1.391228
	   11 R(6,22)         =      1.085547    -0.046997    -0.003928     1.081619
	   12 R(7,9)          =      1.440938     0.037981     0.016801     1.457739
	   13 R(7,10)         =      1.473572    -0.137966    -0.003791     1.469781
	   14 R(8,10)         =      1.376037     0.110534     0.015979     1.392016
	   15 R(8,11)         =      1.398988    -0.021519     0.012415     1.411404
	   16 R(8,23)         =      1.009593    -0.066283    -0.002434     1.007159
	   17 R(9,11)         =      1.360780    -0.001384     0.006016     1.366796
	   18 R(9,32)         =      1.080924    -0.022840     0.009411     1.090336
	   19 R(10,24)        =      1.250925     0.185922     0.023149     1.274074
	   20 R(11,33)        =      1.081251    -0.035058    -0.004325     1.076926
	   21 R(12,13)        =      1.415506    -0.124889    -0.011510     1.403996
	   22 R(12,14)        =      1.417593    -0.104940    -0.011636     1.405957
	   23 R(13,15)        =      1.401605    -0.092186    -0.008379     1.393226
	   24 R(13,25)        =      1.091632    -0.053761    -0.005893     1.085740
	   25 R(14,16)        =      1.400948    -0.083856    -0.006326     1.394622
	   26 R(14,26)        =      1.092468    -0.060174    -0.007254     1.085214
	   27 R(15,17)        =      1.410556    -0.128393    -0.013987     1.396569
	   28 R(15,27)        =      1.091366    -0.057026    -0.005336     1.086030
	   29 R(16,17)        =      1.410129    -0.125271    -0.012431     1.397698
	   30 R(16,28)        =      1.091336    -0.058038    -0.006842     1.084494
	   31 R(17,29)        =      1.091520    -0.058179    -0.006373     1.085147
	   32 R(18,20)        =      1.407737    -0.111395    -0.010893     1.396844
	   33 R(18,30)        =      1.091373    -0.058058    -0.005915     1.085457
	   34 R(19,20)        =      1.408340    -0.120492    -0.011481     1.396859
	   35 R(19,31)        =      1.091397    -0.060472    -0.006632     1.084766
	   36 R(20,34)        =      1.091436    -0.060949    -0.009995     1.081441
	   37 B(1,2,3)        =    134.485171     0.000711     0.959224   135.444396
	   38 B(1,2,5)        =    111.233834    -0.000625    -1.380862   109.852972
	   39 B(1,7,9)        =    130.884731     0.000149    -0.715435   130.169296
	   40 B(1,7,10)       =    121.628055    -0.000390    -0.273140   121.354916
	   41 B(1,12,13)      =    119.943003    -0.000349    -1.206483   118.736520
	   42 B(1,12,14)      =    120.533405     0.000198     0.351287   120.884692
	   43 B(2,1,7)        =    116.486793     0.000260     0.921763   117.408556
	   44 B(2,1,12)       =    123.844214     0.000010    -1.286790   122.557424
	   45 B(2,3,4)        =    116.993249    -0.000147    -0.895860   116.097389
	   46 B(2,3,6)        =    124.635554    -0.000271    -0.386236   124.249318
	   47 B(3,2,5)        =    113.744054    -0.000075     0.446338   114.190392
	   48 B(3,4,18)       =    120.666563    -0.000081    -0.357472   120.309091
	   49 B(3,4,21)       =    120.136410    -0.000089    -0.143855   119.992556
	   50 B(3,6,19)       =    120.560567    -0.000276    -0.844636   119.715931
	   51 B(3,6,22)       =    121.202889    -0.000089    -0.297674   120.905215
	   52 B(4,3,6)        =    118.340978     0.000416     1.276405   119.617383
	   53 B(4,18,20)      =    120.551846    -0.000134    -0.498038   120.053808
	   54 B(4,18,30)      =    119.301437     0.000073     0.062703   119.364139
	   55 B(6,19,20)      =    120.727127     0.000016    -0.031070   120.696057
	   56 B(6,19,31)      =    119.248857    -0.000055    -0.371692   118.877165
	   57 B(7,1,12)       =    118.067782    -0.000223     1.203446   119.271228
	   58 B(7,9,11)       =    107.061156     0.000377     0.401795   107.462951
	   59 B(7,9,32)       =    126.872373    -0.000225    -0.221641   126.650733
	   60 B(7,10,8)       =    104.780090    -0.000402    -1.642092   103.137998
	   61 B(7,10,24)      =    129.560013     0.000375     1.621189   131.181201
	   62 B(8,10,24)      =    125.654456     0.000025    -0.175807   125.478649
	   63 B(8,11,9)       =    109.796946    -0.000759    -1.758702   108.038244
	   64 B(8,11,33)      =    120.218335     0.000482     1.590349   121.808685
	   65 B(9,7,10)       =    107.484553     0.000242     0.991156   108.475710
	   66 B(9,11,33)      =    129.977975     0.000277     0.167761   130.145736
	   67 B(10,8,11)      =    110.876248     0.000542     1.963113   112.839362
	   68 B(10,8,23)      =    121.816336    -0.000204    -1.221878   120.594458
	   69 B(11,8,23)      =    127.307414    -0.000339    -0.746709   126.560706
	   70 B(11,9,32)      =    126.063924    -0.000151    -0.193402   125.870522
	   71 B(12,13,15)     =    120.287922    -0.000053    -0.109933   120.177989
	   72 B(12,13,25)     =    119.403404     0.000079     0.321309   119.724714
	   73 B(12,14,16)     =    120.393220    -0.000191    -0.534750   119.858469
	   74 B(12,14,26)     =    119.179759     0.000016    -0.084210   119.095548
	   75 B(13,12,14)     =    119.027118     0.000127     0.349877   119.376995
	   76 B(13,15,17)     =    120.323052     0.000002    -0.084176   120.238876
	   77 B(13,15,27)     =    119.690257    -0.000021    -0.031100   119.659157
	   78 B(14,16,17)     =    120.207186     0.000062     0.235712   120.442899
	   79 B(14,16,28)     =    119.719134    -0.000071    -0.268456   119.450678
	   80 B(15,13,25)     =    120.306335    -0.000026    -0.211053   120.095283
	   81 B(15,17,16)     =    119.605680     0.000050     0.089935   119.695614
	   82 B(15,17,29)     =    120.223547    -0.000044    -0.171523   120.052024
	   83 B(16,14,26)     =    120.422414     0.000173     0.534633   120.957047
	   84 B(16,17,29)     =    120.168500    -0.000006     0.067801   120.236300
	   85 B(17,15,27)     =    119.986668     0.000019     0.108971   120.095639
	   86 B(17,16,28)     =    120.073622     0.000010     0.029367   120.102989
	   87 B(18,4,21)      =    119.195987     0.000170     0.502164   119.698150
	   88 B(18,20,19)     =    119.143828     0.000059     0.459049   119.602877
	   89 B(18,20,34)     =    120.414548    -0.000037    -0.237798   120.176750
	   90 B(19,6,22)      =    118.236057     0.000365     1.141379   119.377436
	   91 B(19,20,34)     =    120.441472    -0.000022    -0.221480   120.219993
	   92 B(20,18,30)     =    120.146717     0.000061     0.434510   120.581227
	   93 B(20,19,31)     =    120.023888     0.000039     0.401354   120.425242
	   94 *D(1,2,3,4)     =   -150.653095    -0.000000     0.000000  -150.653095
	   95 D(1,2,3,6)      =     31.385768     0.000009     0.156306    31.542074
	   96 D(1,7,9,11)     =    179.489849     0.000022     1.587651   181.077500
	   97 D(1,7,9,32)     =      0.045223    -0.000001    -0.352011    -0.306788
	   98 D(1,7,10,8)     =   -179.357491    -0.000008    -0.406078  -179.763569
	   99 D(1,7,10,24)    =     -0.181874    -0.000053    -4.653376    -4.835250
	  100 D(1,12,13,15)   =    176.336330    -0.000027    -2.303684   174.032646
	  101 D(1,12,13,25)   =     -4.218216    -0.000027    -2.264984    -6.483200
	  102 D(1,12,14,16)   =   -176.355158     0.000050     3.421529  -172.933629
	  103 D(1,12,14,26)   =      2.867337     0.000014     0.803385     3.670722
	  104 D(2,1,7,9)      =    -89.480331     0.000170    11.267189   -78.213142
	  105 D(2,1,7,10)     =     89.847561     0.000186    11.824675   101.672236
	  106 *D(2,1,12,13)   =    108.009532    -0.000000    -0.000000   108.009532
	  107 D(2,1,12,14)    =    -80.151471    -0.000043    -3.359495   -83.510966
	  108 D(2,3,4,18)     =   -179.094566     0.000016     0.930538  -178.164028
	  109 D(2,3,4,21)     =      1.279479     0.000014     0.720963     2.000442
	  110 D(2,3,6,19)     =    179.048418    -0.000012    -0.602830   178.445588
	  111 D(2,3,6,22)     =     -0.693348    -0.000011    -0.425286    -1.118634
	  112 *D(3,2,1,7)     =   -165.410416    -0.000000     0.000000  -165.410416
	  113 D(3,2,1,12)     =     -0.152972     0.000042     4.653776     4.500804
	  114 D(3,4,18,20)    =      0.317874    -0.000007    -0.685501    -0.367626
	  115 D(3,4,18,30)    =   -179.671709    -0.000004    -0.367219  -180.038928
	  116 D(3,6,19,20)    =     -0.547623    -0.000002    -0.016552    -0.564175
	  117 D(3,6,19,31)    =    179.582264     0.000003     0.302558   179.884822
	  118 D(4,3,2,5)      =     38.720109    -0.000005    -0.082619    38.637490
	  119 D(4,3,6,19)     =      1.112592    -0.000001    -0.399322     0.713270
	  120 D(4,3,6,22)     =   -178.629173     0.000001    -0.221779  -178.850952
	  121 D(4,18,20,19)   =      0.271375     0.000004     0.248803     0.520178
	  122 D(4,18,20,34)   =   -179.869486     0.000002     0.165868  -179.703619
	  123 D(5,2,1,7)      =      5.386364     0.000012     0.195317     5.581681
	  124 D(5,2,1,12)     =    170.643807     0.000055     4.849093   175.492900
	  125 D(5,2,3,6)      =   -139.241028     0.000004     0.073687  -139.167341
	  126 D(6,3,4,18)     =     -1.000516     0.000005     0.749311    -0.251204
	  127 D(6,3,4,21)     =    179.373530     0.000002     0.539736   179.913266
	  128 D(6,19,20,18)   =     -0.158002     0.000001     0.104294    -0.053708
	  129 D(6,19,20,34)   =    179.982898     0.000003     0.187289   180.170187
	  130 D(7,1,12,13)    =    -86.949198     0.000058     4.689555   -82.259644
	  131 D(7,1,12,14)    =     84.889799     0.000015     1.330059    86.219859
	  132 D(7,9,11,8)     =     -0.257026    -0.000019    -1.757168    -2.014194
	  133 D(7,9,11,33)    =   -179.294654    -0.000022    -1.728192  -181.022846
	  134 D(7,10,8,11)    =     -0.269629    -0.000018    -1.155908    -1.425537
	  135 D(7,10,8,23)    =    179.741388    -0.000003    -0.369956   179.371432
	  136 D(8,10,7,9)     =      0.109767     0.000005     0.034316     0.144084
	  137 D(8,11,9,32)    =    179.193362     0.000004     0.162970   179.356332
	  138 D(9,7,1,12)     =    104.378291     0.000123     7.153215   111.531507
	  139 D(9,7,10,24)    =    179.285385    -0.000040    -4.212982   175.072403
	  140 D(9,11,8,10)    =      0.344213     0.000024     1.911039     2.255252
	  141 D(9,11,8,23)    =   -179.667556     0.000008     1.068718  -178.598838
	  142 D(10,7,1,12)    =    -76.293817     0.000139     7.710702   -68.583115
	  143 D(10,7,9,11)    =      0.089847     0.000008     1.090854     1.180701
	  144 D(10,7,9,32)    =   -179.354779    -0.000015    -0.848807  -180.203586
	  145 D(10,8,11,33)   =    179.490796     0.000027     1.872747   181.363543
	  146 D(11,8,10,24)   =   -179.487443     0.000024     2.748418  -176.739025
	  147 D(12,13,15,17)  =     -1.677528    -0.000012    -0.969783    -2.647311
	  148 D(12,13,15,27)  =    178.266791     0.000000     0.000049   178.266841
	  149 D(12,14,16,17)  =      1.802729    -0.000011    -0.839909     0.962821
	  150 D(12,14,16,28)  =   -178.284465    -0.000020    -1.426210  -179.710675
	  151 D(13,12,14,16)  =     -4.442234    -0.000001    -0.084660    -4.526894
	  152 D(13,12,14,26)  =    174.780261    -0.000037    -2.702804   172.077457
	  153 D(13,15,17,16)  =     -1.015737     0.000000     0.058520    -0.957218
	  154 D(13,15,17,29)  =    179.531903     0.000012     0.965110   180.497013
	  155 D(14,12,13,15)  =      4.374655     0.000013     1.001526     5.376181
	  156 D(14,12,13,25)  =   -176.179891     0.000013     1.040226  -175.139666
	  157 D(14,16,17,15)  =      0.951770     0.000010     0.846838     1.798607
	  158 D(14,16,17,29)  =   -179.595565    -0.000001    -0.062777  -179.658342
	  159 D(15,17,16,28)  =   -178.960725     0.000019     1.437230  -177.523495
	  160 D(16,17,15,27)  =    179.040109    -0.000012    -0.915488   178.124621
	  161 D(17,15,13,25)  =    178.882057    -0.000012    -1.011599   177.870458
	  162 D(17,16,14,26)  =   -177.410046     0.000025     1.832966  -175.577080
	  163 D(18,20,19,31)  =    179.711107    -0.000004    -0.220772   179.490335
	  164 D(19,20,18,30)  =   -179.739130     0.000000    -0.073442  -179.812572
	  165 D(20,18,4,21)   =    179.947309    -0.000005    -0.478922   179.468387
	  166 D(20,19,6,22)   =    179.201666    -0.000003    -0.194924   179.006742
	  167 D(21,4,18,30)   =     -0.042274    -0.000002    -0.160640    -0.202914
	  168 D(22,6,19,31)   =     -0.668447     0.000002     0.124186    -0.544261
	  169 D(23,8,10,24)   =      0.523573     0.000039     3.534371     4.057944
	  170 D(23,8,11,33)   =     -0.520973     0.000011     1.030426     0.509453
	  171 D(25,13,15,27)  =     -1.173623     0.000000    -0.041767    -1.215390
	  172 D(26,14,16,28)  =      2.502759     0.000017     1.246664     3.749424
	  173 D(27,15,17,29)  =     -0.412251     0.000000    -0.008899    -0.421149
	  174 D(28,16,17,29)  =      0.491940     0.000007     0.527615     1.019555
	  175 D(30,18,20,34)  =      0.120009    -0.000002    -0.156378    -0.036369
	  176 D(31,19,20,34)  =     -0.147992    -0.000002    -0.137778    -0.285770
	  177 D(32,9,11,33)   =      0.155734     0.000000     0.191946     0.347680
	  178 R(3,14)         =      3.754442    -0.066541    -0.019880     3.734562
	  179 R(6,12)         =      3.290660    -0.051580    -0.020333     3.270328
	  180 R(6,14)         =      3.357763     0.031657    -0.015039     3.342724
	  181 R(10,14)        =      3.533852     0.023880     0.010039     3.543891
	  182 R(12,24)        =      3.489027     0.004384    -0.009342     3.479685
	  183 R(14,24)        =      3.258301    -0.028298    -0.009328     3.248973
	 ---------------------------------------------------------------------------
	Successfully symmetrized geometry.

  ==> Convergence Check <==

  Measures of convergence in internal coordinates in au.
  Criteria marked as inactive (o), active & met (*), and active & unmet ( ).
  --------------------------------------------------------------------------------------------- ~
   Step     Total Energy     Delta E     MAX Force     RMS Force      MAX Disp      RMS Disp    ~
  --------------------------------------------------------------------------------------------- ~
    Convergence Criteria             o    2.50e-03 *    1.70e-03 *    1.00e-02 *    6.70e-03 *  ~
  --------------------------------------------------------------------------------------------- ~
      1    -840.56049224   -8.41e+02 o    3.76e-02      6.74e-03      2.06e-01      3.47e-02    ~
  ---------------------------------------------------------------------------------------------

	Writing optimization data to binary file.
	Structure for next step:
	Cartesian Geometry (in Angstrom)
	    C    -0.5188425424  -0.4085588721   0.2549108129
	    N     0.6142060493  -1.1300194241   0.2568586321
	    C     1.8504557243  -1.0841019834  -0.4551557528
	    C     2.5046856353  -2.3144502972  -0.6379608140
	    H     0.6058235168  -1.7844508757   1.0359512430
	    C     2.4449812879   0.0909954016  -0.9244406555
	    C    -1.4149137183  -0.5889062418   1.3521616649
	    N    -2.4510210754  -0.1570117594   3.2932941712
	    C    -2.3694245153  -1.6574150228   1.6208636713
	    C    -1.4823049047   0.3834021714   2.4523120826
	    C    -3.0051900828  -1.3544752888   2.7922565806
	    C    -0.7600751522   0.7040888902  -0.7081704800
	    C    -1.6912116106   0.5125729996  -1.7413754993
	    C    -0.2625771562   1.9951886658  -0.4586282565
	    C    -2.0320799436   1.5701147589  -2.5819065746
	    C    -0.6229736853   3.0517245651  -1.2945804509
	    C    -1.4922922621   2.8403365232  -2.3684329929
	    C     3.7320506691  -2.3660916952  -1.2852168239
	    C     3.6702904388   0.0295565384  -1.5804572544
	    C     4.3195894646  -1.1933183939  -1.7653979522
	    H     2.0483576414  -3.2322484078  -0.2740419482
	    H     1.9687083529   1.0511101409  -0.7786895931
	    H    -2.7010101158   0.3066185101   4.1517354367
	    O    -0.7883413442   1.4236949578   2.6961764274
	    H    -2.1387184242  -0.4656825125  -1.8882914213
	    H     0.3541425420   2.1626742471   0.4184667949
	    H    -2.7318885925   1.4055554532  -3.3959392138
	    H    -0.2316079708   4.0440024975  -1.0987635349
	    H    -1.7661232382   3.6636977164  -3.0200742730
	    H     4.2241124182  -3.3245224662  -1.4175174942
	    H     4.1183882531   0.9494472739  -1.9406321344
	    H    -2.5641292443  -2.5288027822   0.9950800918
	    H    -3.7830050861  -1.8831059268   3.3169683659
	    H     5.2731760892  -1.2318332775  -2.2740282044
			--------------------------
			 OPTKING Finished Execution 
			--------------------------

    Structure for next step:
    Molecular point group: c1
    Full point group: C1

    Geometry (in Angstrom), charge = 0, multiplicity = 1:

    C           -0.514297403097    -0.432987911573     0.259986971318
    N            0.618751193082    -1.154448466453     0.261934790541
    C            1.855000872905    -1.108531025558    -0.450079597195
    C            2.509230786456    -2.338879344225    -0.632884659054
    H            0.610368660505    -1.808879920631     1.041027404527
    C            2.449526438833     0.066566364074    -0.919364501720
    C           -1.410368582478    -0.613335282015     1.357237827658
    N           -2.446475943707    -0.181440797888     3.298370341591
    C           -2.364879383261    -1.681844067210     1.625939835153
    C           -1.477759769143     0.358973135007     2.457388249634
    C           -3.000644953305    -1.378904331974     2.797332749013
    C           -0.755530013868     0.679659855129    -0.703094325369
    C           -1.686666475883     0.488143963777    -1.736299348715
    C           -0.258032015863     1.970759635730    -0.453552100900
    C           -2.027534810263     1.545685727151    -2.576830427313
    C           -0.618428546419     3.027295539203    -1.289504298604
    C           -1.487747126654     2.815907496492    -2.363356844811
    C            3.736595825076    -2.390520742366    -1.280140671506
    C            3.674835594610     0.005127500591    -1.575381103164
    C            4.324134622930    -1.217747436426    -1.760321801718
    H            2.052902790800    -3.256677458398    -0.268965791861
    H            1.973253502035     1.026681107110    -0.773613438754
    H           -2.696464985069     0.282189473422     4.156811610495
    O           -0.783796205960     1.399265925462     2.701252595390
    H           -2.134173291241    -0.490111552228    -1.883215271317
    H            0.358687684714     2.138245217726     0.423542953972
    H           -2.727343461867     1.381126420878    -3.390863069748
    H           -0.227062830364     4.019573475500    -1.093687381773
    H           -1.761578103765     3.639268692909    -3.014998127450
    H            4.228657576125    -3.348951517129    -1.412441342299
    H            4.122933410665     0.925018239786    -1.935555984589
    H           -2.559584113048    -2.553231830042     1.000156253097
    H           -3.778459959607    -1.907534972129     3.322044536382
    H            5.277721251250    -1.256262320203    -2.268952055903


Scratch directory: /scratch/bdw2292/Psi4-1_16_Index_0-farH_in17/

Scratch directory: /scratch/bdw2292/Psi4-1_16_Index_0-farH_in17/
gradient() will perform analytic gradient computation.

*** tstart() called on node74.bme.utexas.edu
*** at Wed Jun  8 22:36:10 2022

   => Loading Basis Set <=

    Name: 6-311G
    Role: ORBITAL
    Keyword: BASIS
    atoms 1, 3-4, 6-7, 9-20 entry C          line    92 file /home/bdw2292/miniconda3/envs/newamoebamdpoltype/share/psi4/basis/6-311g.gbs 
    atoms 2, 8              entry N          line   109 file /home/bdw2292/miniconda3/envs/newamoebamdpoltype/share/psi4/basis/6-311g.gbs 
    atoms 5, 21-23, 25-34   entry H          line    21 file /home/bdw2292/miniconda3/envs/newamoebamdpoltype/share/psi4/basis/6-311g.gbs 
    atoms 24                entry O          line   126 file /home/bdw2292/miniconda3/envs/newamoebamdpoltype/share/psi4/basis/6-311g.gbs 

   => WB97X-D: Empirical Dispersion <=

    Chai and Head-Gordon Dispersion Correction
    Chai, J.-D.; Head-Gordon, M. (2010), J. Chem. Phys., 132: 6615-6620

        s6 =       1.000000


         ---------------------------------------------------------
                                   SCF
               by Justin Turney, Rob Parrish, Andy Simmonett
                          and Daniel G. A. Smith
                              RKS Reference
                        2 Threads,   7788 MiB Core
         ---------------------------------------------------------

  ==> Geometry <==

    Molecular point group: c1
    Full point group: C1

    Geometry (in Angstrom), charge = 0, multiplicity = 1:

       Center              X                  Y                   Z               Mass       
    ------------   -----------------  -----------------  -----------------  -----------------
         C           -0.514297403097    -0.432987911573     0.259986971318    12.000000000000
         N            0.618751193082    -1.154448466453     0.261934790541    14.003074004430
         C            1.855000872905    -1.108531025558    -0.450079597195    12.000000000000
         C            2.509230786456    -2.338879344225    -0.632884659054    12.000000000000
         H            0.610368660505    -1.808879920631     1.041027404527     1.007825032230
         C            2.449526438833     0.066566364074    -0.919364501720    12.000000000000
         C           -1.410368582478    -0.613335282015     1.357237827658    12.000000000000
         N           -2.446475943707    -0.181440797888     3.298370341591    14.003074004430
         C           -2.364879383261    -1.681844067210     1.625939835153    12.000000000000
         C           -1.477759769143     0.358973135007     2.457388249634    12.000000000000
         C           -3.000644953305    -1.378904331974     2.797332749013    12.000000000000
         C           -0.755530013868     0.679659855129    -0.703094325369    12.000000000000
         C           -1.686666475883     0.488143963777    -1.736299348715    12.000000000000
         C           -0.258032015863     1.970759635730    -0.453552100900    12.000000000000
         C           -2.027534810263     1.545685727151    -2.576830427313    12.000000000000
         C           -0.618428546419     3.027295539203    -1.289504298604    12.000000000000
         C           -1.487747126654     2.815907496492    -2.363356844811    12.000000000000
         C            3.736595825076    -2.390520742366    -1.280140671506    12.000000000000
         C            3.674835594610     0.005127500591    -1.575381103164    12.000000000000
         C            4.324134622930    -1.217747436426    -1.760321801718    12.000000000000
         H            2.052902790800    -3.256677458398    -0.268965791861     1.007825032230
         H            1.973253502035     1.026681107110    -0.773613438754     1.007825032230
         H           -2.696464985069     0.282189473422     4.156811610495     1.007825032230
         O           -0.783796205960     1.399265925462     2.701252595390    15.994914619570
         H           -2.134173291241    -0.490111552228    -1.883215271317     1.007825032230
         H            0.358687684714     2.138245217726     0.423542953972     1.007825032230
         H           -2.727343461867     1.381126420878    -3.390863069748     1.007825032230
         H           -0.227062830364     4.019573475500    -1.093687381773     1.007825032230
         H           -1.761578103765     3.639268692909    -3.014998127450     1.007825032230
         H            4.228657576125    -3.348951517129    -1.412441342299     1.007825032230
         H            4.122933410665     0.925018239786    -1.935555984589     1.007825032230
         H           -2.559584113048    -2.553231830042     1.000156253097     1.007825032230
         H           -3.778459959607    -1.907534972129     3.322044536382     1.007825032230
         H            5.277721251250    -1.256262320203    -2.268952055903     1.007825032230

  Running in c1 symmetry.

  Rotational constants: A =      0.01470  B =      0.00872  C =      0.00654 [cm^-1]
  Rotational constants: A =    440.75823  B =    261.39795  C =    196.04740 [MHz]
  Nuclear repulsion = 1407.897115066971992

  Charge       = 0
  Multiplicity = 1
  Electrons    = 138
  Nalpha       = 69
  Nbeta        = 69

  ==> Algorithm <==

  SCF Algorithm Type is DF.
  DIIS enabled.
  MOM disabled.
  Fractional occupation disabled.
  Guess Type is READ.
  Energy threshold   = 1.00e-08
  Density threshold  = 1.00e-08
  Integral threshold = 1.00e-12

  ==> Primary Basis <==

  Basis Set: 6-311G
    Blend: 6-311G
    Number of shells: 182
    Number of basis functions: 302
    Number of Cartesian functions: 302
    Spherical Harmonics?: true
    Max angular momentum: 1

  ==> DFT Potential <==

   => LibXC <=

    Version 5.1.5
    S. Lehtola, C. Steigemann, M. J. Oliveira, and M. A. Marques, SoftwareX 7, 1 (2018) (10.1016/j.softx.2017.11.002)

   => Composite Functional: WB97X-D <= 

    wB97X-D Hyb-GGA Exchange-Correlation Functional

    J.-D. Chai and M. Head-Gordon, Phys. Chem. Chem. Phys. 10, 6615 (2008) (10.1039/B810189B)

    Deriv               =              1
    GGA                 =           TRUE
    Meta                =          FALSE

    Exchange Hybrid     =           TRUE
    MP2 Hybrid          =          FALSE

   => Exchange-Correlation Functionals <=

    1.0000   wB97X-D range-separated functional

   => Exact (HF) Exchange <=

    0.7780            HF,LR [omega = 0.2000]
    0.2220               HF 

   => LibXC Density Thresholds  <==

    XC_HYB_GGA_XC_WB97X_D:  1.00E-14 

   => Molecular Quadrature <=

    Radial Scheme          =       TREUTLER
    Pruning Scheme         =           NONE
    Nuclear Scheme         =       TREUTLER

    BS radius alpha        =              1
    Pruning alpha          =              1
    Radial Points          =             75
    Spherical Points       =            302
    Total Points           =         701278
    Total Blocks           =           5021
    Max Points             =            256
    Max Functions          =            216
    Weights Tolerance      =       1.00E-15

   => Loading Basis Set <=

    Name: (6-311G AUX)
    Role: JKFIT
    Keyword: DF_BASIS_SCF
    atoms 1, 3-4, 6-7, 9-20 entry C          line   125 file /home/bdw2292/miniconda3/envs/newamoebamdpoltype/share/psi4/basis/cc-pvtz-jkfit.gbs 
    atoms 2, 8              entry N          line   177 file /home/bdw2292/miniconda3/envs/newamoebamdpoltype/share/psi4/basis/cc-pvtz-jkfit.gbs 
    atoms 5, 21-23, 25-34   entry H          line    51 file /home/bdw2292/miniconda3/envs/newamoebamdpoltype/share/psi4/basis/cc-pvtz-jkfit.gbs 
    atoms 24                entry O          line   229 file /home/bdw2292/miniconda3/envs/newamoebamdpoltype/share/psi4/basis/cc-pvtz-jkfit.gbs 

   => Loading Basis Set <=

    Name: 6-311G
    Role: ORBITAL
    Keyword: BASIS
    atoms 1, 3-4, 6-7, 9-20 entry C          line    92 file /home/bdw2292/miniconda3/envs/newamoebamdpoltype/share/psi4/basis/6-311g.gbs 
    atoms 2, 8              entry N          line   109 file /home/bdw2292/miniconda3/envs/newamoebamdpoltype/share/psi4/basis/6-311g.gbs 
    atoms 5, 21-23, 25-34   entry H          line    21 file /home/bdw2292/miniconda3/envs/newamoebamdpoltype/share/psi4/basis/6-311g.gbs 
    atoms 24                entry O          line   126 file /home/bdw2292/miniconda3/envs/newamoebamdpoltype/share/psi4/basis/6-311g.gbs 

  Reading orbitals from file /scratch/bdw2292/Psi4-1_16_Index_0-farH_in17/1_16_Index_0-opt-1_1-12-109.default.1222941.180.npy, no projection.

  ==> Integral Setup <==

  DFHelper Memory: AOs need 3.137 GiB; user supplied 3.137 GiB. Using in-core AOs.

  ==> MemDFJK: Density-Fitted J/K Matrices <==

    J tasked:                   Yes
    K tasked:                   Yes
    wK tasked:                  Yes
    Omega:                2.000E-01
    OpenMP threads:               2
    Memory [MiB]:              3212
    Algorithm:                 Core
    Schwarz Cutoff:           1E-12
    Mask sparsity (%):      24.2621
    Fitting Condition:        1E-10

   => Auxiliary Basis Set <=

  Basis Set: (6-311G AUX)
    Blend: CC-PVTZ-JKFIT
    Number of shells: 640
    Number of basis functions: 2000
    Number of Cartesian functions: 2410
    Spherical Harmonics?: true
    Max angular momentum: 4

  Cached 50.0% of DFT collocation blocks in 1.465 [GiB].

  Minimum eigenvalue in the overlap matrix is 2.5154380548E-04.
  Reciprocal condition number of the overlap matrix is 3.7634577155E-05.
    Using symmetric orthogonalization.

  ==> Pre-Iterations <==

  SCF Guess: Orbitals guess was supplied from a previous computation.

   -------------------------------------------------------
    Irrep   Nso     Nmo     Nalpha   Nbeta   Ndocc  Nsocc
   -------------------------------------------------------
     A        302     302      69      69      69       0
   -------------------------------------------------------
    Total     302     302      69      69      69       0
   -------------------------------------------------------

  ==> Iterations <==

                           Total Energy        Delta E     RMS |[F,P]|

   @DF-RKS iter   0:  -840.58462557188602   -8.40585e+02   2.44004e-03 
   @DF-RKS iter   1:  -840.56850217200042    1.61234e-02   2.57205e-04 DIIS
   @DF-RKS iter   2:  -840.57505404417202   -6.55187e-03   1.75312e-04 DIIS
   @DF-RKS iter   3:  -840.57643289300449   -1.37885e-03   8.12559e-05 DIIS
   @DF-RKS iter   4:  -840.57695638234827   -5.23489e-04   3.63639e-05 DIIS
   @DF-RKS iter   5:  -840.57707602070332   -1.19638e-04   1.38971e-05 DIIS
   @DF-RKS iter   6:  -840.57713586332875   -5.98426e-05   1.09229e-05 DIIS
   @DF-RKS iter   7:  -840.57717704444326   -4.11811e-05   5.84734e-06 DIIS
   @DF-RKS iter   8:  -840.57719546507087   -1.84206e-05   2.73164e-06 DIIS
[...]
	   36 R(20,34)        =      1.080827    -0.000078    -0.000015     1.080812
	   37 B(1,2,3)        =    133.438962     0.000001    -0.018189   133.420773
	   38 B(1,2,5)        =    113.891339    -0.000003     0.001180   113.892519
	   39 B(1,7,9)        =    127.856365    -0.000000    -0.008048   127.848317
	   40 B(1,7,10)       =    125.704103    -0.000004     0.007799   125.711902
	   41 B(1,12,13)      =    119.528390    -0.000001    -0.042991   119.485399
	   42 B(1,12,14)      =    120.263910     0.000002     0.053826   120.317737
	   43 B(2,1,7)        =    118.943908    -0.000008    -0.008647   118.935262
	   44 B(2,1,12)       =    120.363680     0.000004    -0.038088   120.325592
	   45 B(2,3,4)        =    116.159670    -0.000000     0.006229   116.165899
	   46 B(2,3,6)        =    125.032925     0.000000    -0.007441   125.025483
	   47 B(3,2,5)        =    112.669136     0.000002     0.017054   112.686190
	   48 B(3,4,18)       =    120.879972    -0.000001    -0.001090   120.878882
	   49 B(3,4,21)       =    119.282120     0.000000     0.000070   119.282189
	   50 B(3,6,19)       =    119.969947     0.000001    -0.000869   119.969078
	   51 B(3,6,22)       =    120.871969    -0.000001     0.002487   120.874455
	   52 B(4,3,6)        =    118.765991    -0.000000     0.001780   118.767771
	   53 B(4,18,20)      =    120.180642     0.000000     0.000764   120.181405
	   54 B(4,18,30)      =    119.516669     0.000000    -0.000487   119.516182
	   55 B(6,19,20)      =    121.100147    -0.000001    -0.000005   121.100142
	   56 B(6,19,31)      =    118.813490     0.000000    -0.002172   118.811318
	   57 B(7,1,12)       =    120.461811     0.000004     0.048512   120.510323
	   58 B(7,9,11)       =    107.982400    -0.000002    -0.000016   107.982384
	   59 B(7,9,32)       =    127.527641     0.000001    -0.009953   127.517688
	   60 B(7,10,8)       =    104.504072    -0.000003     0.000039   104.504111
	   61 B(7,10,24)      =    131.771898     0.000003    -0.004482   131.767416
	   62 B(8,10,24)      =    123.723879    -0.000000     0.004391   123.728270
	   63 B(8,11,9)       =    109.717667     0.000002     0.000274   109.717941
	   64 B(8,11,33)      =    120.819644     0.000003     0.005841   120.825485
	   65 B(9,7,10)       =    106.439525     0.000004     0.000233   106.439758
	   66 B(9,11,33)      =    129.456332    -0.000004    -0.005668   129.450663
	   67 B(10,8,11)      =    111.355597    -0.000001    -0.000661   111.354936
	   68 B(10,8,23)      =    122.120880    -0.000001    -0.005668   122.115212
	   69 B(11,8,23)      =    126.522324     0.000002     0.005743   126.528067
	   70 B(11,9,32)      =    124.438296     0.000002     0.008644   124.446940
	   71 B(12,13,15)     =    120.470554    -0.000001    -0.000997   120.469557
	   72 B(12,13,25)     =    119.432721    -0.000000    -0.004281   119.428440
	   73 B(12,14,16)     =    120.488705     0.000002     0.001602   120.490307
	   74 B(12,14,26)     =    119.631345     0.000001     0.009570   119.640915
	   75 B(13,12,14)     =    118.941490    -0.000000    -0.006896   118.934595
	   76 B(13,15,17)     =    120.097759     0.000002     0.001819   120.099578
	   77 B(13,15,27)     =    119.728370    -0.000000     0.001582   119.729951
	   78 B(14,16,17)     =    120.018796    -0.000003    -0.002881   120.015915
	   79 B(14,16,28)     =    119.758195     0.000002     0.002148   119.760343
	   80 B(15,13,25)     =    120.096541     0.000002     0.005073   120.101614
	   81 B(15,17,16)     =    119.751040     0.000001     0.001104   119.752144
	   82 B(15,17,29)     =    120.144819     0.000000    -0.000443   120.144376
	   83 B(16,14,26)     =    119.834975    -0.000003    -0.003618   119.831357
	   84 B(16,17,29)     =    120.079978    -0.000001    -0.000006   120.079972
	   85 B(17,15,27)     =    120.151704    -0.000002    -0.003252   120.148452
	   86 B(17,16,28)     =    120.204128     0.000001     0.000377   120.204505
	   87 B(18,4,21)      =    119.830462     0.000001     0.000992   119.831454
	   88 B(18,20,19)     =    119.088582     0.000000    -0.000164   119.088417
	   89 B(18,20,34)     =    120.441618    -0.000001    -0.001962   120.439656
	   90 B(19,6,22)      =    119.158081    -0.000000    -0.001644   119.156436
	   91 B(19,20,34)     =    120.469753     0.000001     0.002112   120.471865
	   92 B(20,18,30)     =    120.297667    -0.000001    -0.000238   120.297429
	   93 B(20,19,31)     =    120.081882     0.000001     0.002372   120.084253
	   94 *D(1,2,3,4)     =   -150.653095     0.000000     0.000000  -150.653095
	   95 D(1,2,3,6)      =     31.726013     0.000000    -0.016436    31.709577
	   96 D(1,7,9,11)     =    179.790894    -0.000000    -0.073548   179.717346
	   97 D(1,7,9,32)     =      2.334912    -0.000000    -0.041463     2.293449
	   98 D(1,7,10,8)     =   -179.925032    -0.000000     0.042180  -179.882852
	   99 D(1,7,10,24)    =     -0.066255    -0.000000     0.019938    -0.046317
	  100 D(1,12,13,15)   =    172.730844     0.000001     0.074918   172.805761
	  101 D(1,12,13,25)   =     -7.113492     0.000001     0.145819    -6.967673
	  102 D(1,12,14,16)   =   -172.276645    -0.000001    -0.136473  -172.413118
	  103 D(1,12,14,26)   =      5.280372    -0.000000     0.077932     5.358304
	  104 D(2,1,7,9)      =      0.880188    -0.000000    -0.008627     0.871561
	  105 D(2,1,7,10)     =   -179.083281    -0.000001    -0.108452  -179.191733
	  106 *D(2,1,12,13)   =    108.009532    -0.000000    -0.000000   108.009532
	  107 D(2,1,12,14)    =    -84.976324     0.000001     0.018926   -84.957398
	  108 D(2,3,4,18)     =   -177.710467     0.000000    -0.012731  -177.723198
	  109 D(2,3,4,21)     =      3.283985     0.000000    -0.010872     3.273113
	  110 D(2,3,6,19)     =    178.557020    -0.000000    -0.001376   178.555644
	  111 D(2,3,6,22)     =     -1.420466    -0.000000     0.039657    -1.380808
	  112 *D(3,2,1,7)     =   -165.410416    -0.000000     0.000000  -165.410416
	  113 D(3,2,1,12)     =      9.098351    -0.000000     0.023860     9.122211
	  114 D(3,4,18,20)    =     -0.914561     0.000000     0.002282    -0.912278
	  115 D(3,4,18,30)    =    179.898216     0.000000    -0.000861   179.897355
	  116 D(3,6,19,20)    =     -1.232589     0.000000     0.030102    -1.202487
	  117 D(3,6,19,31)    =    179.536962     0.000000     0.013186   179.550148
	  118 D(4,3,2,5)      =     29.643521    -0.000000    -0.012174    29.631347
	  119 D(4,3,6,19)     =      0.993092     0.000000    -0.018293     0.974799
	  120 D(4,3,6,22)     =   -178.984393     0.000000     0.022740  -178.961653
	  121 D(4,18,20,19)   =      0.686403     0.000000     0.008912     0.695315
	  122 D(4,18,20,34)   =   -179.392464    -0.000000    -0.002274  -179.394738
	  123 D(5,2,1,7)      =     14.290233     0.000000     0.012320    14.302553
	  124 D(5,2,1,12)     =   -171.201000     0.000000     0.036180  -171.164820
	  125 D(5,2,3,6)      =   -147.977371    -0.000000    -0.028610  -148.005981
	  126 D(6,3,4,18)     =      0.067297    -0.000000     0.002381     0.069678
	  127 D(6,3,4,21)     =   -178.938251    -0.000000     0.004240  -178.934011
	  128 D(6,19,20,18)   =      0.383315    -0.000000    -0.025160     0.358155
	  129 D(6,19,20,34)   =   -179.537796    -0.000000    -0.013966  -179.551762
	  130 D(7,1,12,13)    =    -77.565589    -0.000000     0.020986   -77.544603
	  131 D(7,1,12,14)    =     89.448555     0.000000     0.039911    89.488467
	  132 D(7,9,11,8)     =      0.282409     0.000000     0.023239     0.305648
	  133 D(7,9,11,33)    =   -178.789841     0.000000    -0.010000  -178.799841
	  134 D(7,10,8,11)    =      0.061768     0.000001     0.055848     0.117616
	  135 D(7,10,8,23)    =    179.687601     0.000000    -0.026497   179.661104
	  136 D(8,10,7,9)     =      0.105041    -0.000000    -0.040002     0.065039
	  137 D(8,11,9,32)    =    177.836161     0.000000    -0.008198   177.827963
	  138 D(9,7,1,12)     =   -173.623038    -0.000000    -0.027637  -173.650675
	  139 D(9,7,10,24)    =    179.963818    -0.000000    -0.062245   179.901574
	  140 D(9,11,8,10)    =     -0.222564    -0.000001    -0.051922    -0.274487
	  141 D(9,11,8,23)    =   -179.828235    -0.000000     0.034926  -179.793310
	  142 D(10,7,1,12)    =      6.413493    -0.000001    -0.127462     6.286031
	  143 D(10,7,9,11)    =     -0.240035     0.000000     0.010964    -0.229071
	  144 D(10,7,9,32)    =   -177.696017     0.000000     0.043049  -177.652968
	  145 D(10,8,11,33)   =    178.943328    -0.000000    -0.022153   178.921175
	  146 D(11,8,10,24)   =   -179.811598     0.000001     0.075811  -179.735788
	  147 D(12,13,15,17)  =     -2.496398     0.000000     0.022702    -2.473696
	  148 D(12,13,15,27)  =    179.213430     0.000000     0.017022   179.230452
	  149 D(12,14,16,17)  =      1.775501     0.000001     0.125280     1.900782
	  150 D(12,14,16,28)  =   -179.801684     0.000001     0.110496  -179.691188
	  151 D(13,12,14,16)  =     -5.186978    -0.000000    -0.122358    -5.309337
	  152 D(13,12,14,26)  =    172.370038     0.000001     0.092047   172.462085
	  153 D(13,15,17,16)  =     -0.991774     0.000000    -0.021165    -1.012939
	  154 D(13,15,17,29)  =   -179.205382    -0.000000    -0.045513  -179.250894
	  155 D(14,12,13,15)  =      5.544619    -0.000000     0.048248     5.592866
	  156 D(14,12,13,25)  =   -174.299717     0.000001     0.119149  -174.180568
	  157 D(14,16,17,15)  =      1.347119    -0.000000    -0.052355     1.294764
	  158 D(14,16,17,29)  =    179.561899    -0.000000    -0.028031   179.533868
	  159 D(15,17,16,28)  =   -177.068596    -0.000000    -0.037533  -177.106128
	  160 D(16,17,15,27)  =    177.291103    -0.000000    -0.015377   177.275727
	  161 D(17,15,13,25)  =    177.346902    -0.000001    -0.048692   177.298210
	  162 D(17,16,14,26)  =   -175.776548    -0.000000    -0.089854  -175.866403
	  163 D(18,20,19,31)  =    179.604085    -0.000000    -0.008065   179.596020
	  164 D(19,20,18,30)  =    179.867227     0.000000     0.012079   179.879307
	  165 D(20,18,4,21)   =    178.085575     0.000000     0.000403   178.085978
	  166 D(20,19,6,22)   =    178.745282    -0.000000    -0.010225   178.735057
	  167 D(21,4,18,30)   =     -1.101648     0.000000    -0.002741    -1.104388
	  168 D(22,6,19,31)   =     -0.485167    -0.000000    -0.027141    -0.512308
	  169 D(23,8,10,24)   =     -0.185765     0.000000    -0.006535    -0.192299
	  170 D(23,8,11,33)   =     -0.662343     0.000000     0.064695    -0.597648
	  171 D(25,13,15,27)  =     -0.943269    -0.000000    -0.054372    -0.997641
	  172 D(26,14,16,28)  =      2.646266    -0.000000    -0.104639     2.541627
	  173 D(27,15,17,29)  =     -0.922504    -0.000000    -0.039725    -0.962229
	  174 D(28,16,17,29)  =      1.146184    -0.000000    -0.013208     1.132976
	  175 D(30,18,20,34)  =     -0.211639     0.000000     0.000893    -0.210746
	  176 D(31,19,20,34)  =     -0.317026    -0.000000     0.003129    -0.313898
	  177 D(32,9,11,33)   =     -1.236088    -0.000000    -0.041437    -1.277526
	  178 R(3,14)         =      3.651231     0.000034    -0.001260     3.649972
	  179 R(6,12)         =      3.222700     0.000016    -0.001816     3.220884
	  180 R(6,14)         =      3.234331     0.000333    -0.002391     3.231940
	  181 R(10,14)        =      3.665891     0.000287     0.001578     3.667469
	  182 R(12,24)        =      2.953062     0.000121     0.001202     2.954265
	  183 R(14,24)        =      3.441628    -0.000060     0.000542     3.442170
	 ---------------------------------------------------------------------------
	Successfully symmetrized geometry.

  ==> Convergence Check <==

  Measures of convergence in internal coordinates in au.
  Criteria marked as inactive (o), active & met (*), and active & unmet ( ).
  ---------------------------------------------------------------------------------------------
   Step     Total Energy     Delta E     MAX Force     RMS Force      MAX Disp      RMS Disp   
  ---------------------------------------------------------------------------------------------
    Convergence Criteria             o    2.50e-03 *    1.70e-03 *    1.00e-02 *    6.70e-03 *
  ---------------------------------------------------------------------------------------------
     17    -840.62816130   -4.24e-07 o    1.25e-04 *    2.88e-05 *    4.52e-03 *    8.33e-04 *  ~
  ---------------------------------------------------------------------------------------------


  **** Optimization is complete! (in 17 steps) ****

  ==> Optimization Summary <==

  Measures of convergence in internal coordinates in au.
  --------------------------------------------------------------------------------------------------------------- ~
   Step         Total Energy             Delta E       MAX Force       RMS Force        MAX Disp        RMS Disp  ~
  --------------------------------------------------------------------------------------------------------------- ~
      1    -840.560492237965   -840.560492237965      0.03756381      0.00674000      0.20637951      0.03474541  ~
      2    -840.577197634971     -0.016705397006      0.01351062      0.00298022      0.34727532      0.05124539  ~
      3    -840.582964063094     -0.005766428123      0.05208967      0.00730060      0.22103620      0.03225542  ~
      4    -840.595981421594     -0.013017358500      0.04665057      0.00619672      0.23396691      0.03835006  ~
      5    -840.611041000653     -0.015059579058      0.01792823      0.00357333      0.32709143      0.05230390  ~
      6    -840.615856238371     -0.004815237719      0.03037062      0.00476167      0.18582243      0.02905870  ~
      7    -840.624234743512     -0.008378505141      0.01876878      0.00226660      0.24011390      0.03230989  ~
      8    -840.626987147821     -0.002752404309      0.00298100      0.00090202      0.06354496      0.01472769  ~
      9    -840.627474696050     -0.000487548228      0.00361453      0.00066544      0.07111647      0.01538124  ~
     10    -840.627669379140     -0.000194683091      0.00458643      0.00073909      0.04690680      0.01054794  ~
     11    -840.627905297379     -0.000235918239      0.00177234      0.00042390      0.06198624      0.00961784  ~
     12    -840.628046031670     -0.000140734291      0.00203368      0.00039166      0.04846159      0.00553495  ~
     13    -840.628124498865     -0.000078467195      0.00091609      0.00017197      0.05719001      0.00615202  ~
     14    -840.628151016476     -0.000026517612      0.00034754      0.00009064      0.04374007      0.00455655  ~
     15    -840.628158129097     -0.000007112621      0.00026229      0.00004977      0.02336509      0.00267737  ~
     16    -840.628160873495     -0.000002744397      0.00026176      0.00004310      0.01144851      0.00163837  ~
     17    -840.628161297551     -0.000000424057      0.00012521      0.00002881      0.00451855      0.00083302  ~
  --------------------------------------------------------------------------------------------------------------- ~

	Writing optimization data to binary file.
	Final energy is   -840.6281612975514
	Final (previous) structure:
	Cartesian Geometry (in Angstrom)
	    C    -0.1008065257  -0.3712233387   0.5790309674
	    N     0.7068187415  -1.2687644364  -0.0868840880
	    C     1.2901971894  -1.2826932163  -1.3785970136
	    C     1.5023842962  -2.5481926486  -1.9483204558
	    H     0.9382335746  -2.0865935396   0.4520756035
	    C     1.7020065013  -0.1501812602  -2.0845678083
	    C    -0.2584655356  -0.4996941970   1.9330870130
	    N    -0.9382099114  -0.1524460544   4.0753878374
	    C     0.3524658243  -1.4937213534   2.8190452294
	    C    -1.1015647668   0.3647040878   2.7911056620
	    C    -0.0733269399  -1.2491819102   4.0758665238
	    C    -0.6925357172   0.7931067528  -0.1449361756
	    C    -2.0584726082   0.8049504041  -0.4275005433
	    C     0.0403013274   1.9735263688  -0.2986501818
	    C    -2.6579884065   1.9397074054  -0.9640512120
	    C    -0.5579851800   3.1112939871  -0.8277847275
	    C    -1.9071247897   3.0919657406  -1.1750898017
	    C     2.1110584644  -2.6779508117  -3.1895344861
	    C     2.2920323056  -0.2884895423  -3.3394420872
	    C     2.5047763828  -1.5442802739  -3.8990062849
	    H     1.1706812856  -3.4312220555  -1.4159427111
	    H     1.5710492851   0.8331311860  -1.6735402094
	    H    -1.3964594047   0.2453855073   4.8717553933
	    O    -1.8208904010   1.3459679347   2.5274666170
	    H    -2.6508571269  -0.0762104107  -0.2235820135
	    H     1.0696268492   2.0114710705   0.0337107076
	    H    -3.7151560033   1.9314003636  -1.1903304018
	    H     0.0209634430   4.0173163274  -0.9444923591
	    H    -2.3753225127   3.9787082238  -1.5802232554
	    H     2.2651390402  -3.6636388234  -3.6069702957
	    H     2.5969907801   0.6014149947  -3.8729590131
	    H     1.0541732469  -2.2662514504   2.5532074357
	    H     0.1737384881  -1.7557927036   4.9920277879
	    H     2.9700546492  -1.6400199463  -4.8698500243
	Saving final (previous) structure.
	Cleaning optimization helper files.
			--------------------------
			 OPTKING Finished Execution 
			--------------------------

    Final optimized geometry and variables:
    Molecular point group: c1
    Full point group: C1

    Geometry (in Angstrom), charge = 0, multiplicity = 1:

    C           -0.100806526050    -0.371223340143     0.579030969673
    N            0.706818744326    -1.268764441365    -0.086884088347
    C            1.290197194450    -1.282693221372    -1.378597019009
    C            1.502384302073    -2.548192658599    -1.948320463412
    H            0.938233578261    -2.086593547834     0.452075605239
    C            1.702006507946    -0.150181260753    -2.084567816488
    C           -0.258465536634    -0.499694198981     1.933087020621
    N           -0.938209915072    -0.152446054987     4.075387853423
    C            0.352465825688    -1.493721359252     2.819045240432
    C           -1.101564771169     0.364704089253     2.791105672961
    C           -0.073326940186    -1.249181915062     4.075866539775
    C           -0.692535719958     0.793106755961    -0.144936176171
    C           -2.058472616259     0.804950407218    -0.427500544971
    C            0.040301327605     1.973526376564    -0.298650182927
    C           -2.657988416987     1.939707413011    -0.964051215813
    C           -0.557985182169     3.111293999366    -0.827784730774
    C           -1.907124797170     3.091965752746    -1.175089806300
    C            2.111058472742    -2.677950822242    -3.189534498599
    C            2.292032314641    -0.288489543426    -3.339442100369
    C            2.504776392682    -1.544280280017    -3.899006300272
    H            1.170681290215    -3.431222068964    -1.415942716626
    H            1.571049291251     0.833131189285    -1.673540215930
    H           -1.396459410224     0.245385508273     4.871755412420
    O           -1.820890408162     1.345967939976     2.527466626960
    H           -2.650857137335    -0.076210410967    -0.223582014363
    H            1.069626853410     2.011471078394     0.033710707711
    H           -3.715156017856     1.931400371150    -1.190330406441
    H            0.020963443092     4.017316343206    -0.944492362806
    H           -2.375322522038     3.978708239437    -1.580223261607
    H            2.265139049084    -3.663638837810    -3.606970309875
    H            2.596990790338     0.601414997062    -3.872959028312
    H            1.054173251038    -2.266251459314     2.553207445745
    H            0.173738488829    -1.755792710499     4.992027807531
    H            2.970054660897    -1.640019952711    -4.869850043415

	Removing binary optimization data file.
	Cleaning optimization helper files.

    Psi4 stopped on: Wednesday, 08 June 2022 11:24PM
    Psi4 wall time for execution: 0:52:35.38

*** Psi4 exiting successfully. Buy a developer a beer!
