      -----------------------------------------------------------      
     |                   =====================                   |     
     |                           x T B                           |     
     |                   =====================                   |     
     |                         S. Grimme                         |     
     |          Mulliken Center for Theoretical Chemistry        |     
     |                    University of Bonn                     |     
      -----------------------------------------------------------      

   * xtb version 6.5.0 (97a52f5) compiled by 'conda@d2599ee0d4f4' on 2022-05-15

   xtb is free software: you can redistribute it and/or modify it under
   the terms of the GNU Lesser General Public License as published by
   the Free Software Foundation, either version 3 of the License, or
   (at your option) any later version.
   
   xtb is distributed in the hope that it will be useful,
   but WITHOUT ANY WARRANTY; without even the implied warranty of
   MERCHANTABILITY or FITNESS FOR A PARTICULAR PURPOSE.  See the
   GNU Lesser General Public License for more details.
   
   Cite this work as:
   * C. Bannwarth, E. Caldeweyher, S. Ehlert, A. Hansen, P. Pracht,
     J. Seibert, S. Spicher, S. Grimme, WIREs Comput. Mol. Sci., 2020, 11,
     e01493. DOI: 10.1002/wcms.1493
   
   for GFN2-xTB:
   * C. Bannwarth, S. Ehlert and S. Grimme., J. Chem. Theory Comput., 2019,
     15, 1652-1671. DOI: 10.1021/acs.jctc.8b01176
   for GFN1-xTB:
   * S. Grimme, C. Bannwarth, P. Shushkov, J. Chem. Theory Comput., 2017,
     13, 1989-2009. DOI: 10.1021/acs.jctc.7b00118
   for GFN0-xTB:
   * P. Pracht, E. Caldeweyher, S. Ehlert, S. Grimme, ChemRxiv, 2019, preprint.
     DOI: 10.26434/chemrxiv.8326202.v1
   for GFN-FF:
   * S. Spicher and S. Grimme, Angew. Chem. Int. Ed., 2020, 59, 15665-15673.
     DOI: 10.1002/anie.202004239
   
   for ALPB and GBSA implicit solvation:
   * S. Ehlert, M. Stahn, S. Spicher, S. Grimme, J. Chem. Theory Comput.,
     2021, 17, 4250-4261. DOI: 10.1021/acs.jctc.1c00471
   
   for DFT-D4:
   * E. Caldeweyher, C. Bannwarth and S. Grimme, J. Chem. Phys., 2017,
     147, 034112. DOI: 10.1063/1.4993215
   * E. Caldeweyher, S. Ehlert, A. Hansen, H. Neugebauer, S. Spicher,
     C. Bannwarth and S. Grimme, J. Chem. Phys., 2019, 150, 154122.
     DOI: 10.1063/1.5090222
   * E. Caldeweyher, J.-M. Mewes, S. Ehlert and S. Grimme, Phys. Chem. Chem. Phys.
     2020, 22, 8499-8512. DOI: 10.1039/D0CP00502A
   
   for sTDA-xTB:
   * S. Grimme and C. Bannwarth, J. Chem. Phys., 2016, 145, 054103.
     DOI: 10.1063/1.4959605
   
   in the mass-spec context:
   * V. Asgeirsson, C. Bauer and S. Grimme, Chem. Sci., 2017, 8, 4879.
     DOI: 10.1039/c7sc00601b
   * J. Koopman and S. Grimme, ACS Omega 2019, 4, 12, 15120-15133.
     DOI: 10.1021/acsomega.9b02011
   
   for metadynamics refer to:
   * S. Grimme, J. Chem. Theory Comput., 2019, 155, 2847-2862
     DOI: 10.1021/acs.jctc.9b00143
   
   for SPH calculations refer to:
   * S. Spicher and S. Grimme, J. Chem. Theory Comput., 2021, 17, 1701-1714
     DOI: 10.1021/acs.jctc.0c01306
   
   with help from (in alphabetical order)
   P. Atkinson, C. Bannwarth, F. Bohle, G. Brandenburg, E. Caldeweyher
   M. Checinski, S. Dohm, S. Ehlert, S. Ehrlich, I. Gerasimov, C. Hölzer
   A. Katbashev, J. Koopman, C. Lavigne, S. Lehtola, F. März, M. Müller,
   F. Musil, H. Neugebauer, J. Pisarek, C. Plett, P. Pracht, F. Pultar,
   J. Seibert, P. Shushkov, S. Spicher, M. Stahn, M. Steiner, T. Strunk,
   J. Stückrath, T. Rose, and J. Unsleber
   
 * started run on 2023/11/18 at 08:33:02.072     

           -------------------------------------------------
          |                Calculation Setup                |
           -------------------------------------------------

          program call               : /home/liuchw/anaconda3/envs/xtbenv/bin/xtb --gfn 2 --chrg 0 --uhf 0 1_16_Index_0-opt-2-3-051_preQMOPTprefit_xyzformat.xyz --opt --input xtb-opt-2-3-051_constr.txt
          hostname                   : node165.bme.utexas.edu
          coordinate file            : 1_16_Index_0-opt-2-3-051_preQMOPTprefit_xyzformat.xyz
          omp threads                :                    64

   ID    Z sym.   atoms
    1    1 H      1, 15-17, 19-24
    2    7 N      2, 8
    3    6 C      3-7, 9-14
    4    8 O      18
constraining angle 1 2 3 4 to   51.0034111°, actual value:   51.0034111°
constraining angle 5 2 3 4 to  232.0312149°, actual value: -127.9687851°
constraining angle 1 2 5 24 to  183.9704047°, actual value: -176.0295953°
constraining angle 3 2 5 24 to    2.9935205°, actual value:    2.9935205°
constraining angle 2 5 7 9 to  181.9983867°, actual value: -178.0016133°

           -------------------------------------------------
          |                 G F N 2 - x T B                 |
           -------------------------------------------------

        Reference                      10.1021/acs.jctc.8b01176
      * Hamiltonian:
        H0-scaling (s, p, d)           1.850000    2.230000    2.230000
        zeta-weighting                 0.500000
      * Dispersion:
        s8                             2.700000
        a1                             0.520000
        a2                             5.000000
        s9                             5.000000
      * Repulsion:
        kExp                           1.500000    1.000000
        rExp                           1.000000
      * Coulomb:
        alpha                          2.000000
        third order                    shell-resolved
        anisotropic                    true
        a3                             3.000000
        a5                             4.000000
        cn-shift                       1.200000
        cn-exp                         4.000000
        max-rad                        5.000000

q/qsh data taken from xtbrestart
CAMM data taken from xtbrestart

          ...................................................
          :                      SETUP                      :
          :.................................................:
          :  # basis functions                  66          :
          :  # atomic orbitals                  66          :
          :  # shells                           38          :
          :  # electrons                        70          :
          :  max. iterations                   250          :
          :  Hamiltonian                  GFN2-xTB          :
          :  restarted?                       true          :
          :  GBSA solvation                  false          :
          :  PC potential                    false          :
          :  electronic temp.          300.0000000     K    :
          :  accuracy                    1.0000000          :
          :  -> integral cutoff          0.2500000E+02      :
          :  -> integral neglect         0.1000000E-07      :
          :  -> SCF convergence          0.1000000E-05 Eh   :
          :  -> wf. convergence          0.1000000E-03 e    :
          :  Broyden damping             0.4000000          :
          ...................................................

 iter      E             dE          RMSdq      gap      omega  full diag
   1    -39.1071549 -0.391072E+02  0.168E+00    2.20       0.0  T
   2    -39.1078300 -0.675088E-03  0.992E-01    2.20       1.0  T
   3    -39.1062007  0.162933E-02  0.302E-01    2.19       1.0  T
   4    -39.1081095 -0.190884E-02  0.387E-02    2.19       1.0  T
   5    -39.1081283 -0.188255E-04  0.171E-02    2.19       1.2  T
   6    -39.1081295 -0.114942E-05  0.953E-03    2.19       2.1  T
   7    -39.1081299 -0.401798E-06  0.485E-03    2.19       4.2  T
   8    -39.1081302 -0.313690E-06  0.179E-03    2.19      11.4  T
   9    -39.1081302 -0.492517E-07  0.747E-04    2.19      27.3  T
  10    -39.1081302 -0.533531E-08  0.338E-04    2.19      60.4  T

   *** convergence criteria satisfied after 10 iterations ***

         #    Occupation            Energy/Eh            Energy/eV
      -------------------------------------------------------------
         1        2.0000           -0.6736290             -18.3304
       ...           ...                  ...                  ...
        29        2.0000           -0.4428121             -12.0495
        30        2.0000           -0.4338403             -11.8054
        31        2.0000           -0.4149169             -11.2905
        32        2.0000           -0.4120700             -11.2130
        33        2.0000           -0.3912495             -10.6464
        34        2.0000           -0.3780826             -10.2882
        35        2.0000           -0.3479271              -9.4676 (HOMO)
        36                         -0.2673310              -7.2744 (LUMO)
        37                         -0.2371900              -6.4543
        38                         -0.2312658              -6.2931
        39                         -0.1739764              -4.7341
        40                         -0.1209330              -3.2908
       ...                                ...                  ...
        66                          0.6784246              18.4609
      -------------------------------------------------------------
                  HL-Gap            0.0805961 Eh            2.1931 eV
             Fermi-level           -0.3076290 Eh           -8.3710 eV

 SCC (total)                   0 d,  0 h,  0 min,  2.020 sec
 SCC setup                      ...        0 min,  0.017 sec (  0.845%)
 Dispersion                     ...        0 min,  0.053 sec (  2.604%)
 classical contributions        ...        0 min,  0.021 sec (  1.025%)
 integral evaluation            ...        0 min,  0.046 sec (  2.269%)
 iterations                     ...        0 min,  1.687 sec ( 83.502%)
 molecular gradient             ...        0 min,  0.176 sec (  8.698%)
 printout                       ...        0 min,  0.021 sec (  1.037%)

         :::::::::::::::::::::::::::::::::::::::::::::::::::::
         ::                     SUMMARY                     ::
         :::::::::::::::::::::::::::::::::::::::::::::::::::::
         :: total energy             -38.548038821825 Eh    ::
         :: gradient norm              0.067848404533 Eh/a0 ::
         :: HOMO-LUMO gap              2.193131935805 eV    ::
         ::.................................................::
         :: SCC energy               -39.108130243924 Eh    ::
         :: -> isotropic ES            0.047183109216 Eh    ::
         :: -> anisotropic ES          0.001288825006 Eh    ::
         :: -> anisotropic XC          0.020443511390 Eh    ::
         :: -> dispersion             -0.021719357614 Eh    ::
         :: repulsion energy           0.560238975903 Eh    ::
         :: add. restraining           0.000000000000 Eh    ::
         :: total charge              -0.000000000000 e     ::
         :::::::::::::::::::::::::::::::::::::::::::::::::::::

      ----------------------------------------------------------- 
     |                   =====================                   |
     |                        A N C O P T                        |
     |                   =====================                   |
     |               Approximate Normal Coordinate               |
     |                Rational Function Optimizer                |
      ----------------------------------------------------------- 

          ...................................................
          :                      SETUP                      :
          :.................................................:
          :   optimization level            normal          :
          :   max. optcycles                   200          :
          :   ANC micro-cycles                  20          :
          :   degrees of freedom                66          :
          :.................................................:
          :   RF solver                   davidson          :
          :   write xtbopt.log                true          :
          :   linear?                        false          :
          :   energy convergence         0.5000000E-05 Eh   :
          :   grad. convergence          0.1000000E-02 Eh/α :
          :   maximium RF displ.         1.0000000          :
          :   Hlow (freq-cutoff)         0.1000000E-01      :
          :   Hmax (freq-cutoff)         5.0000000          :
          :   S6 in model hess.         20.0000000          :
          ...................................................

generating ANC from model Hessian ...
Using Lindh-Hessian (1995)
 Shifting diagonal of input Hessian by    8.7768934254393340E-003
 Lowest  eigenvalues of input Hessian
    0.000000    0.000000    0.000000    0.000000    0.000000    0.000000
    0.010000    0.010714    0.013291    0.016063    0.018922    0.022055
    0.024682    0.029503    0.029527    0.032014    0.036693    0.041513
 Highest eigenvalues
    2.081648    2.282658    2.853421    5.140440   11.077451   20.859326


........................................................................
.............................. CYCLE    1 ..............................
........................................................................
   1    -39.1081302 -0.391081E+02  0.142E-04    2.19       0.0  T
   2    -39.1081302 -0.466045E-10  0.876E-05    2.19     233.0  T
   3    -39.1081302 -0.132658E-10  0.603E-05    2.19     338.4  T
     SCC iter.                  ...        0 min,  0.464 sec
     gradient                   ...        0 min,  0.165 sec
 * total energy  :   -38.5480388 Eh     change       -0.1095707E-08 Eh
   gradient norm :     0.0678491 Eh/α   predicted     0.0000000E+00 (-100.00%)
   displ. norm   :     0.3042325 α      lambda       -0.1141818E-01
   maximum displ.:     0.1272088 α      in ANC's #7, #33, #9, ...

........................................................................
.............................. CYCLE    2 ..............................
........................................................................
   1    -39.1664097 -0.391664E+02  0.213E-01    2.31       0.0  T
   2    -39.1665351 -0.125411E-03  0.128E-01    2.29       1.0  T
   3    -39.1665264  0.868464E-05  0.701E-02    2.30       1.0  T
   4    -39.1665676 -0.411760E-04  0.158E-02    2.30       1.3  T
   5    -39.1665728 -0.519163E-05  0.465E-03    2.30       4.4  T
   6    -39.1665729 -0.135288E-06  0.228E-03    2.30       8.9  T
   7    -39.1665730 -0.257662E-07  0.122E-03    2.30      16.7  T
   8    -39.1665730 -0.208014E-07  0.535E-04    2.30      38.2  T
   9    -39.1665730 -0.204902E-08  0.159E-04    2.30     128.1  T
     SCC iter.                  ...        0 min,  1.309 sec
     gradient                   ...        0 min,  0.166 sec
 * total energy  :   -38.5554159 Eh     change       -0.7377056E-02 Eh
   gradient norm :     0.0166301 Eh/α   predicted    -0.6239535E-02 ( -15.42%)
   displ. norm   :     0.2463853 α      lambda       -0.1904495E-02
   maximum displ.:     0.1333757 α      in ANC's #7, #5, #6, ...

........................................................................
.............................. CYCLE    3 ..............................
........................................................................
   1    -39.1883084 -0.391883E+02  0.110E-01    2.35       0.0  T
   2    -39.1883288 -0.204028E-04  0.700E-02    2.34       1.0  T
   3    -39.1883167  0.120981E-04  0.427E-02    2.35       1.0  T
   4    -39.1883438 -0.270785E-04  0.108E-02    2.34       1.9  T
   5    -39.1883461 -0.232605E-05  0.300E-03    2.34       6.8  T
   6    -39.1883462 -0.991173E-07  0.144E-03    2.34      14.1  T
   7    -39.1883462 -0.147219E-07  0.525E-04    2.34      38.9  T
   8    -39.1883462 -0.222843E-08  0.174E-04    2.34     117.2  T
     SCC iter.                  ...        0 min,  1.313 sec
     gradient                   ...        0 min,  0.191 sec
 * total energy  :   -38.5565338 Eh     change       -0.1117940E-02 Eh
   gradient norm :     0.0105142 Eh/α   predicted    -0.1010364E-02 (  -9.62%)
   displ. norm   :     0.1436569 α      lambda       -0.3451641E-03
   maximum displ.:     0.0729540 α      in ANC's #5, #7, #6, ...

........................................................................
.............................. CYCLE    4 ..............................
........................................................................
   1    -39.1900942 -0.391901E+02  0.591E-02    2.35       0.0  T
   2    -39.1900966 -0.235305E-05  0.375E-02    2.34       1.0  T
   3    -39.1900887  0.785123E-05  0.250E-02    2.35       1.0  T
   4    -39.1901010 -0.123092E-04  0.379E-03    2.34       5.4  T
   5    -39.1901013 -0.258820E-06  0.128E-03    2.35      15.9  T
   6    -39.1901013 -0.219009E-07  0.535E-04    2.35      38.1  T
   7    -39.1901013 -0.357879E-09  0.181E-04    2.35     113.0  T
     SCC iter.                  ...        0 min,  0.950 sec
     gradient                   ...        0 min,  0.182 sec
 * total energy  :   -38.5567383 Eh     change       -0.2044584E-03 Eh
   gradient norm :     0.0337255 Eh/α   predicted    -0.1761463E-03 ( -13.85%)
   displ. norm   :     0.2183668 α      lambda       -0.4207336E-03
   maximum displ.:     0.1149802 α      in ANC's #5, #7, #3, ...

........................................................................
.............................. CYCLE    5 ..............................
........................................................................
   1    -39.1889344 -0.391889E+02  0.901E-02    2.34       0.0  T
   2    -39.1889396 -0.526432E-05  0.552E-02    2.34       1.0  T
   3    -39.1889196  0.199776E-04  0.373E-02    2.34       1.0  T
   4    -39.1889475 -0.278584E-04  0.558E-03    2.34       3.7  T
   5    -39.1889481 -0.568102E-06  0.174E-03    2.34      11.7  T
   6    -39.1889481 -0.372763E-07  0.773E-04    2.34      26.4  T
   7    -39.1889481 -0.888946E-09  0.288E-04    2.34      70.9  T
     SCC iter.                  ...        0 min,  0.959 sec
     gradient                   ...        0 min,  0.169 sec
 * total energy  :   -38.5566539 Eh     change        0.8434843E-04 Eh
   gradient norm :     0.0779129 Eh/α   predicted    -0.2203984E-03 (-361.30%)
   displ. norm   :     0.0762849 α      lambda       -0.4160693E-03
   maximum displ.:     0.0428838 α      in ANC's #7, #5, #6, ...

........................................................................
.............................. CYCLE    6 ..............................
........................................................................
   1    -39.1876308 -0.391876E+02  0.361E-02    2.33       0.0  T
   2    -39.1876317 -0.980986E-06  0.232E-02    2.34       1.0  T
   3    -39.1876285  0.324441E-05  0.148E-02    2.33       1.4  T
   4    -39.1876332 -0.474164E-05  0.246E-03    2.34       8.3  T
   5    -39.1876333 -0.108823E-06  0.861E-04    2.34      23.7  T
   6    -39.1876334 -0.935357E-08  0.359E-04    2.34      56.9  T
     SCC iter.                  ...        0 min,  0.824 sec
     gradient                   ...        0 min,  0.223 sec
 * total energy  :   -38.5568701 Eh     change       -0.2161945E-03 Eh
   gradient norm :     0.0084090 Eh/α   predicted    -0.2092975E-03 (  -3.19%)
   displ. norm   :     0.0336578 α      lambda       -0.3680558E-04
   maximum displ.:     0.0189078 α      in ANC's #1, #7, #2, ...

........................................................................
.............................. CYCLE    7 ..............................
........................................................................
   1    -39.1873307 -0.391873E+02  0.197E-02    2.34       0.0  T
   2    -39.1873308 -0.130733E-06  0.119E-02    2.34       1.7  T
   3    -39.1873304  0.420807E-06  0.404E-03    2.33       5.0  T
   4    -39.1873308 -0.473237E-06  0.878E-04    2.34      23.3  T
   5    -39.1873309 -0.140454E-07  0.318E-04    2.34      64.2  T
     SCC iter.                  ...        0 min,  0.639 sec
     gradient                   ...        0 min,  0.199 sec
 * total energy  :   -38.5568834 Eh     change       -0.1327024E-04 Eh
   gradient norm :     0.0119613 Eh/α   predicted    -0.1843000E-04 (  38.88%)
   displ. norm   :     0.0371798 α      lambda       -0.2179490E-04
   maximum displ.:     0.0267478 α      in ANC's #1, #2, #5, ...

........................................................................
.............................. CYCLE    8 ..............................
........................................................................
   1    -39.1871586 -0.391872E+02  0.195E-02    2.34       0.0  T
   2    -39.1871587 -0.576897E-07  0.113E-02    2.34       1.8  T
   3    -39.1871585  0.230706E-06  0.341E-03    2.34       6.0  T
   4    -39.1871587 -0.253105E-06  0.595E-04    2.34      34.3  T
   5    -39.1871587 -0.781093E-08  0.178E-04    2.34     114.6  T
     SCC iter.                  ...        0 min,  0.771 sec
     gradient                   ...        0 min,  0.245 sec
 * total energy  :   -38.5568992 Eh     change       -0.1580369E-04 Eh
   gradient norm :     0.0031258 Eh/α   predicted    -0.1093502E-04 ( -30.81%)
   displ. norm   :     0.0522753 α      lambda       -0.1333849E-04
   maximum displ.:     0.0375449 α      in ANC's #1, #2, #5, ...

........................................................................
.............................. CYCLE    9 ..............................
........................................................................
   1    -39.1871700 -0.391872E+02  0.258E-02    2.34       0.0  T
   2    -39.1871701 -0.563663E-07  0.151E-02    2.34       1.4  T
   3    -39.1871696  0.477934E-06  0.458E-03    2.34       4.5  T
   4    -39.1871701 -0.526870E-06  0.552E-04    2.34      36.9  T
   5    -39.1871701 -0.558184E-08  0.219E-04    2.34      93.3  T
     SCC iter.                  ...        0 min,  0.604 sec
     gradient                   ...        0 min,  0.176 sec
 * total energy  :   -38.5569086 Eh     change       -0.9426017E-05 Eh
   gradient norm :     0.0019728 Eh/α   predicted    -0.6688772E-05 ( -29.04%)
   displ. norm   :     0.0549988 α      lambda       -0.5852334E-05
   maximum displ.:     0.0416137 α      in ANC's #1, #2, #5, ...

........................................................................
.............................. CYCLE   10 ..............................
........................................................................
   1    -39.1873338 -0.391873E+02  0.263E-02    2.34       0.0  T
   2    -39.1873339 -0.330948E-07  0.154E-02    2.34       1.3  T
   3    -39.1873337  0.139263E-06  0.242E-03    2.34       8.4  T
   4    -39.1873339 -0.159841E-06  0.395E-04    2.34      51.6  T
   5    -39.1873339 -0.220628E-08  0.202E-04    2.34     101.3  T
     SCC iter.                  ...        0 min,  0.638 sec
     gradient                   ...        0 min,  0.186 sec
 * total energy  :   -38.5569150 Eh     change       -0.6403874E-05 Eh
   gradient norm :     0.0024096 Eh/α   predicted    -0.2930807E-05 ( -54.23%)
   displ. norm   :     0.0241941 α      lambda       -0.3722783E-05
   maximum displ.:     0.0184819 α      in ANC's #1, #2, #4, ...

........................................................................
.............................. CYCLE   11 ..............................
........................................................................
   1    -39.1874179 -0.391874E+02  0.104E-02    2.34       0.0  T
   2    -39.1874179 -0.105523E-07  0.609E-03    2.34       3.4  T
   3    -39.1874178  0.302944E-07  0.123E-03    2.34      16.6  T
   4    -39.1874179 -0.332809E-07  0.258E-04    2.34      79.2  T
   5    -39.1874179 -0.143353E-08  0.924E-05    2.34     220.9  T
     SCC iter.                  ...        0 min,  0.637 sec
     gradient                   ...        0 min,  0.183 sec
 * total energy  :   -38.5569182 Eh     change       -0.3195142E-05 Eh
   gradient norm :     0.0011751 Eh/α   predicted    -0.1863729E-05 ( -41.67%)
   displ. norm   :     0.0528152 α      lambda       -0.4562577E-05
   maximum displ.:     0.0390880 α      in ANC's #1, #2, #5, ...

........................................................................
.............................. CYCLE   12 ..............................
........................................................................
   1    -39.1875474 -0.391875E+02  0.211E-02    2.34       0.0  T
   2    -39.1875474 -0.714365E-07  0.123E-02    2.34       1.7  T
   3    -39.1875470  0.410967E-06  0.438E-03    2.34       4.7  T
   4    -39.1875475 -0.449766E-06  0.651E-04    2.34      31.4  T
   5    -39.1875475 -0.970052E-08  0.194E-04    2.34     105.3  T
     SCC iter.                  ...        0 min,  0.731 sec
     gradient                   ...        0 min,  0.187 sec
 * total energy  :   -38.5569226 Eh     change       -0.4396828E-05 Eh
   gradient norm :     0.0010848 Eh/α   predicted    -0.2288769E-05 ( -47.94%)
   displ. norm   :     0.0255021 α      lambda       -0.1110493E-05
   maximum displ.:     0.0198108 α      in ANC's #1, #2, #5, ...

........................................................................
.............................. CYCLE   13 ..............................
........................................................................
   1    -39.1875098 -0.391875E+02  0.109E-02    2.34       0.0  T
   2    -39.1875098 -0.868050E-08  0.639E-03    2.34       3.2  T
   3    -39.1875097  0.646218E-07  0.156E-03    2.34      13.0  T
   4    -39.1875098 -0.712890E-07  0.222E-04    2.34      92.1  T
   5    -39.1875098 -0.834603E-09  0.969E-05    2.34     210.6  T
     SCC iter.                  ...        0 min,  0.663 sec
     gradient                   ...        0 min,  0.199 sec
 * total energy  :   -38.5569238 Eh     change       -0.1133506E-05 Eh
   gradient norm :     0.0004903 Eh/α   predicted    -0.5577627E-06 ( -50.79%)
   displ. norm   :     0.0131313 α      lambda       -0.3717529E-06
   maximum displ.:     0.0107453 α      in ANC's #1, #2, #4, ...

   *** GEOMETRY OPTIMIZATION CONVERGED AFTER 13 ITERATIONS ***

------------------------------------------------------------------------
 total energy gain   :        -0.0088849 Eh       -5.5754 kcal/mol
 total RMSD          :         0.1776898 a0        0.0940 Å
 total power (kW/mol):        -1.7944142 (step)   -1.5133 (real)
------------------------------------------------------------------------

 ANCopt (total)                0 d,  0 h,  0 min, 15.415 sec
 optimizer setup                ...        0 min,  0.000 sec (  0.001%)
 model hessian                  ...        0 min,  0.003 sec (  0.022%)
 ANC generation                 ...        0 min,  0.138 sec (  0.895%)
 coordinate transformation      ...        0 min,  0.000 sec (  0.003%)
 single point calculation       ...        0 min, 14.739 sec ( 95.618%)
 optimization log               ...        0 min,  0.004 sec (  0.024%)
 hessian update                 ...        0 min,  0.482 sec (  3.124%)
 rational function              ...        0 min,  0.046 sec (  0.300%)

================
 final structure:
================
24
 xtb: 6.5.0 (97a52f5)
H            0.09905890389544        0.36468441706402       -1.19986390779136
N            0.20011088629054       -0.11474142720099       -0.29895512529504
C            1.29435681184214       -0.94844960296289       -0.05940556253102
C            2.58458967955420       -0.48410201315556       -0.30546712098385
C           -0.77547747883339        0.15479191886374        0.57635891671186
C            1.11522751535883       -2.20203041168496        0.52001134452485
C           -1.81670367599654        0.97048455163385        0.24074859026274
N           -3.07069718615551        2.34318363115718       -1.02966824445834
C           -2.94209133450274        1.42917692299961        1.00950038874219
C           -1.93257653736140        1.58765681827748       -1.07764599370243
C           -3.66800811020653        2.24176345344193        0.21742228131851
C            2.21121244225131       -2.99488848707893        0.80645261787550
C            3.67363947798336       -1.28571663472014       -0.02187782599291
C            3.49120189709794       -2.54144017987008        0.53528600822915
H            0.11479980289976       -2.55355822240658        0.72550564118385
H            2.71869835310713        0.49662219576550       -0.73699113401551
H           -3.41976080964600        2.89246200661082       -1.79686799156359
O           -1.17746899013545        1.48107817682953       -2.04424650489195
H            2.06450793382515       -3.97133604684521        1.24396227776171
H            4.67098870482609       -0.92331340691997       -0.22197444610759
H           -3.15248425548039        1.15949793290176        2.02518658189147
H           -4.57674598288291        2.77297364262428        0.42552758142988
H            4.34456173755550       -3.16305904916112        0.76009856702644
H           -0.68518778528652       -0.27276119616399        1.56818405037475

 Bond Distances (Angstroems)
 ---------------------------
H1-N2=1.0255         N2-H1=1.0255         N2-C3=1.3964         N2-C5=1.3381         C3-N2=1.3964         C3-C4=1.3931         
C3-C6=1.3926         C4-C3=1.3931         C4-C13=1.3817        C4-H16=1.0798        C5-N2=1.3381         C5-C7=1.3646         
C5-H24=1.0838        C6-C3=1.3926         C6-C12=1.3827        C6-H15=1.0801        C7-C5=1.3646         C7-C9=1.4380         
C7-C10=1.4603        N8-C10=1.3669        N8-C11=1.3865        N8-H17=1.0061        C9-C7=1.4380         C9-C11=1.3471        
C9-H21=1.0717        C10-C7=1.4603        C10-N8=1.3669        C10-O18=1.2312       C11-N8=1.3865        C11-C9=1.3471        
C11-H22=1.0730       C12-C6=1.3827        C12-C14=1.3847       C12-H19=1.0800       C13-C4=1.3817        C13-C14=1.3858       
C13-H20=1.0799       C14-C12=1.3847       C14-C13=1.3858       C14-H23=1.0794       H15-C6=1.0801        H16-C4=1.0798        
H17-N8=1.0061        O18-C10=1.2312       H19-C12=1.0800       H20-C13=1.0799       H21-C9=1.0717        H22-C11=1.0730       
H23-C14=1.0794       H24-C5=1.0838        
 C  H  Rav=1.0785 sigma=0.0038  Rmin=1.0717  Rmax=1.0838     8
 C  C  Rav=1.3931 sigma=0.0313  Rmin=1.3471  Rmax=1.4603    10
 N  H  Rav=1.0158 sigma=0.0097  Rmin=1.0061  Rmax=1.0255     2
 N  C  Rav=1.3720 sigma=0.0222  Rmin=1.3381  Rmax=1.3964     4
 O  C  Rav=1.2312 sigma=0.0000  Rmin=1.2312  Rmax=1.2312     1

 selected bond angles (degree)
 --------------------
C3-N2-H1=120.47                C5-N2-H1=114.12                C5-N2-C3=125.41                C4-C3-N2=119.77                
C6-C3-N2=120.53                C6-C3-C4=119.52                C13-C4-C3=120.02               H16-C4-C3=119.23               
H16-C4-C13=120.73              C7-C5-N2=121.05                H24-C5-N2=117.28               H24-C5-C7=121.63               
C12-C6-C3=120.03               H15-C6-C3=119.42               H15-C6-C12=120.54              C9-C7-C5=131.02                
C10-C7-C5=122.36               C10-C7-C9=106.60               C11-N8-C10=110.48              H17-N8-C10=124.33              
H17-N8-C11=125.20              C11-C9-C7=107.45               H21-C9-C7=125.45               H21-C9-C11=127.10              
N8-C10-C7=105.54               O18-C10-C7=128.58              O18-C10-N8=125.88              

 selected dihedral angles (degree)
 ---------------------------------
C4-C3-N2-H1= 50.94            C4-C3-N2-C5=231.96            C6-C3-N2-H1=225.96            C6-C3-N2-C5= 46.98            
C13-C4-C3-N2=177.51           C13-C4-C3-C6=  2.44           H16-C4-C3-N2=356.26           H16-C4-C3-C6=181.19           
C7-C5-N2-H1=  1.90            C7-C5-N2-C3=180.94            H24-C5-N2-H1=183.95           H24-C5-N2-C3=  2.99           
C12-C6-C3-N2=182.84           C12-C6-C3-C4=357.87           H15-C6-C3-N2=  3.94           H15-C6-C3-C4=178.97           
C9-C7-C5-N2=181.99            C9-C7-C5-H24=359.85           C10-C7-C5-N2=  0.23           C10-C7-C5-H24=178.09          
C11-C9-C7-C5=178.75           C11-C9-C7-C10=  0.30          H21-C9-C7-C5=358.46           H21-C9-C7-C10=180.01          
N8-C10-C7-C5=181.19           N8-C10-C7-C9=359.80           O18-C10-C7-C5=  0.58          O18-C10-C7-C9=179.19          
C7-C10-N8-C11=  0.03          C7-C10-N8-H17=180.09          O18-C10-N8-C11=180.62         O18-C10-N8-H17=  0.68         
           -------------------------------------------------
          |                Final Singlepoint                |
           -------------------------------------------------

          ...................................................
          :                      SETUP                      :
          :.................................................:
          :  # basis functions                  66          :
          :  # atomic orbitals                  66          :
          :  # shells                           38          :
          :  # electrons                        70          :
          :  max. iterations                   250          :
          :  Hamiltonian                  GFN2-xTB          :
          :  restarted?                      false          :
          :  GBSA solvation                  false          :
          :  PC potential                    false          :
          :  electronic temp.          300.0000000     K    :
          :  accuracy                    1.0000000          :
          :  -> integral cutoff          0.2500000E+02      :
          :  -> integral neglect         0.1000000E-07      :
          :  -> SCF convergence          0.1000000E-05 Eh   :
          :  -> wf. convergence          0.1000000E-03 e    :
          :  Broyden damping             0.4000000          :
          ...................................................

 iter      E             dE          RMSdq      gap      omega  full diag
   1    -39.1875098 -0.391875E+02  0.477E-05    2.34       0.0  T
   2    -39.1875098 -0.589750E-11  0.310E-05    2.34     659.0  T
   3    -39.1875098 -0.505196E-11  0.192E-05    2.34    1065.0  T

   *** convergence criteria satisfied after 3 iterations ***

         #    Occupation            Energy/Eh            Energy/eV
      -------------------------------------------------------------
         1        2.0000           -0.6810551             -18.5325
       ...           ...                  ...                  ...
        29        2.0000           -0.4412277             -12.0064
        30        2.0000           -0.4331717             -11.7872
        31        2.0000           -0.4181279             -11.3778
        32        2.0000           -0.4146655             -11.2836
        33        2.0000           -0.3914032             -10.6506
        34        2.0000           -0.3792506             -10.3199
        35        2.0000           -0.3475477              -9.4573 (HOMO)
        36                         -0.2617064              -7.1214 (LUMO)
        37                         -0.2324613              -6.3256
        38                         -0.2226000              -6.0573
        39                         -0.1674860              -4.5575
        40                         -0.1099703              -2.9924
       ...                                ...                  ...
        66                          0.7421952              20.1962
      -------------------------------------------------------------
                  HL-Gap            0.0858413 Eh            2.3359 eV
             Fermi-level           -0.3046271 Eh           -8.2893 eV

 SCC (total)                   0 d,  0 h,  0 min,  0.689 sec
 SCC setup                      ...        0 min,  0.030 sec (  4.288%)
 Dispersion                     ...        0 min,  0.027 sec (  3.958%)
 classical contributions        ...        0 min,  0.014 sec (  2.042%)
 integral evaluation            ...        0 min,  0.032 sec (  4.599%)
 iterations                     ...        0 min,  0.431 sec ( 62.533%)
 molecular gradient             ...        0 min,  0.143 sec ( 20.774%)
 printout                       ...        0 min,  0.012 sec (  1.767%)

         :::::::::::::::::::::::::::::::::::::::::::::::::::::
         ::                     SUMMARY                     ::
         :::::::::::::::::::::::::::::::::::::::::::::::::::::
         :: total energy             -38.556923753693 Eh    ::
         :: gradient norm              0.000490390296 Eh/a0 ::
         :: HOMO-LUMO gap              2.335860581605 eV    ::
         ::.................................................::
         :: SCC energy               -39.187509780276 Eh    ::
         :: -> isotropic ES            0.045941227592 Eh    ::
         :: -> anisotropic ES          0.000606759250 Eh    ::
         :: -> anisotropic XC          0.018287721291 Eh    ::
         :: -> dispersion             -0.022195376361 Eh    ::
         :: repulsion energy           0.630726020179 Eh    ::
         :: add. restraining           0.000006998205 Eh    ::
         :: total charge               0.000000000000 e     ::
         :::::::::::::::::::::::::::::::::::::::::::::::::::::

           -------------------------------------------------
          |                Property Printout                |
           -------------------------------------------------

    * Orbital Energies and Occupations

         #    Occupation            Energy/Eh            Energy/eV
      -------------------------------------------------------------
         1        2.0000           -0.6810551             -18.5325
       ...           ...                  ...                  ...
        23        2.0000           -0.4846337             -13.1876
        24        2.0000           -0.4781009             -13.0098
        25        2.0000           -0.4745463             -12.9131
        26        2.0000           -0.4677727             -12.7287
        27        2.0000           -0.4595498             -12.5050
        28        2.0000           -0.4534719             -12.3396
        29        2.0000           -0.4412277             -12.0064
        30        2.0000           -0.4331717             -11.7872
        31        2.0000           -0.4181279             -11.3778
        32        2.0000           -0.4146655             -11.2836
        33        2.0000           -0.3914032             -10.6506
        34        2.0000           -0.3792506             -10.3199
        35        2.0000           -0.3475477              -9.4573 (HOMO)
        36                         -0.2617064              -7.1214 (LUMO)
        37                         -0.2324613              -6.3256
        38                         -0.2226000              -6.0573
        39                         -0.1674860              -4.5575
        40                         -0.1099703              -2.9924
        41                         -0.0990893              -2.6964
        42                          0.0196063               0.5335
        43                          0.0360208               0.9802
        44                          0.1102179               2.9992
        45                          0.1163887               3.1671
        46                          0.1310863               3.5670
       ...                                ...                  ...
        66                          0.7421952              20.1962
      -------------------------------------------------------------
                  HL-Gap            0.0858413 Eh            2.3359 eV
             Fermi-level           -0.3046271 Eh           -8.2893 eV

     #   Z          covCN         q      C6AA      α(0)
     1   1 H        0.859     0.226     0.982     1.553
     2   7 N        2.700    -0.116    23.532     7.205
     3   6 C        2.913     0.068    26.487     8.439
     4   6 C        2.923    -0.046    29.138     8.852
     5   6 C        2.834     0.044    27.014     8.517
     6   6 C        2.922    -0.044    29.103     8.847
     7   6 C        3.089    -0.071    29.648     8.925
     8   7 N        2.775    -0.147    24.170     7.302
     9   6 C        2.981    -0.071    29.769     8.950
    10   6 C        2.873     0.256    22.705     7.811
    11   6 C        2.991     0.002    27.979     8.677
    12   6 C        2.919    -0.028    28.691     8.784
    13   6 C        2.919    -0.027    28.665     8.780
    14   6 C        2.919    -0.034    28.843     8.807
    15   1 H        0.926     0.039     2.463     2.454
    16   1 H        0.926     0.043     2.411     2.428
    17   1 H        0.860     0.168     1.282     1.774
    18   8 O        0.857    -0.489    23.535     6.504
    19   1 H        0.926     0.037     2.485     2.465
    20   1 H        0.926     0.039     2.468     2.457
    21   1 H        0.926     0.032     2.563     2.503
    22   1 H        0.926     0.034     2.527     2.486
    23   1 H        0.926     0.036     2.500     2.472
    24   1 H        0.925     0.048     2.341     2.392

 Mol. C6AA /au·bohr⁶  :       7632.959526
 Mol. C8AA /au·bohr⁸  :     185827.941861
 Mol. α(0) /au        :        139.384131


Wiberg/Mayer (AO) data.
largest (>0.10) Wiberg bond orders for each atom

 ---------------------------------------------------------------------------
     #   Z sym  total        # sym  WBO       # sym  WBO       # sym  WBO
 ---------------------------------------------------------------------------
     1   1 H    0.949 --     2 N    0.874
     2   7 N    3.544 --     5 C    1.310     3 C    1.060     1 H    0.874
     3   6 C    3.965 --     6 C    1.378     4 C    1.373     2 N    1.060
                            14 C    0.100
     4   6 C    3.986 --    13 C    1.456     3 C    1.373    16 H    0.969
                            12 C    0.109
     5   6 C    3.971 --     7 C    1.491     2 N    1.310    24 H    0.958
     6   6 C    3.987 --    12 C    1.449     3 C    1.378    15 H    0.968
                            13 C    0.107
     7   6 C    3.964 --     5 C    1.491     9 C    1.156    10 C    1.073
     8   7 N    3.512 --    10 C    1.180    11 C    1.126    17 H    0.943
                            18 O    0.143
     9   6 C    3.978 --    11 C    1.697     7 C    1.156    21 H    0.972
    10   6 C    3.950 --    18 O    1.566     8 N    1.180     7 C    1.073
    11   6 C    3.941 --     9 C    1.697     8 N    1.126    22 H    0.970
    12   6 C    3.992 --     6 C    1.449    14 C    1.437    19 H    0.970
                             4 C    0.109
    13   6 C    3.991 --     4 C    1.456    14 C    1.430    20 H    0.970
                             6 C    0.107
    14   6 C    3.979 --    12 C    1.437    13 C    1.430    23 H    0.971
                             3 C    0.100
    15   1 H    0.998 --     6 C    0.968
    16   1 H    0.998 --     4 C    0.969
    17   1 H    0.971 --     8 N    0.943
    18   8 O    1.971 --    10 C    1.566     8 N    0.143
    19   1 H    0.998 --    12 C    0.970
    20   1 H    0.998 --    13 C    0.970
    21   1 H    0.999 --     9 C    0.972
    22   1 H    0.998 --    11 C    0.970
    23   1 H    0.999 --    14 C    0.971
    24   1 H    0.997 --     5 C    0.958
 ---------------------------------------------------------------------------

Topologies differ in total number of bonds
Writing topology from bond orders to xtbtopo.mol

molecular dipole:
                 x           y           z       tot (Debye)
 q only:        0.265      -0.447       0.822
   full:        0.004      -0.267       0.801       2.147
molecular quadrupole (traceless):
                xx          xy          yy          xz          yz          zz
 q only:        6.803      -4.823       1.024      -1.088       1.099      -7.827
  q+dip:        9.200      -8.033       1.961       0.457      -3.281     -11.160
   full:        8.003      -6.828       1.863       0.613      -0.835      -9.866

           -------------------------------------------------
          |                Geometry Summary                 |
           -------------------------------------------------

      molecular mass/u    :      186.2103137
   center of mass at/Å    :       -0.0966184       0.0148732      -0.1029943
  moments of inertia/u·Å² :        0.2157717E+03   0.1621595E+04   0.1761125E+04
rotational constants/cm⁻¹ :        0.7812718E-01   0.1039571E-01   0.9572080E-02

 * 24 selected distances

     #   Z          #   Z                                           value/Å
     1   1 H        2   7 N                                       1.0255230
     2   7 N        3   6 C                                       1.3963624
     3   6 C        4   6 C                                       1.3931497
     2   7 N        5   6 C                                       1.3381315
     3   6 C        6   6 C                                       1.3925791
     5   6 C        7   6 C                                       1.3646029
     7   6 C        9   6 C                                       1.4380111 (max)
     8   7 N       10   6 C                                       1.3669095
     8   7 N       11   6 C                                       1.3864709
     9   6 C       11   6 C                                       1.3470858
     6   6 C       12   6 C                                       1.3826988
     4   6 C       13   6 C                                       1.3816797
    12   6 C       14   6 C                                       1.3847455
    13   6 C       14   6 C                                       1.3858416
     6   6 C       15   1 H                                       1.0801183
     4   6 C       16   1 H                                       1.0798233
     8   7 N       17   1 H                                       1.0060556 (min)
    10   6 C       18   8 O                                       1.2312040
    12   6 C       19   1 H                                       1.0799940
    13   6 C       20   1 H                                       1.0798521
     9   6 C       21   1 H                                       1.0717325
    11   6 C       22   1 H                                       1.0729850
    14   6 C       23   1 H                                       1.0794322
     5   6 C       24   1 H                                       1.0838225

 * 5 distinct bonds (by element types)

   Z      Z             #   av. dist./Å        max./Å        min./Å
   1 H    6 C           8     1.0784700     1.0838225     1.0717325
   6 C    6 C           9     1.3855993     1.4380111     1.3470858
   1 H    7 N           2     1.0157893     1.0255230     1.0060556
   6 C    7 N           4     1.3719686     1.3963624     1.3381315
   6 C    8 O           1     1.2312040     1.2312040     1.2312040


optimized geometry written to: xtbopt.xyz


           -------------------------------------------------
          | TOTAL ENERGY              -38.556923753693 Eh   |
          | GRADIENT NORM               0.000490390296 Eh/α |
          | HOMO-LUMO GAP               2.335860581605 eV   |
           -------------------------------------------------
########################################################################
[WARNING] Runtime exception occurred
-1- restart_readRestart: Number of electron missmatch in restart file.
########################################################################

------------------------------------------------------------------------
 * finished run on 2023/11/18 at 08:33:20.405     
------------------------------------------------------------------------
 total:
 * wall-time:     0 d,  0 h,  0 min, 18.333 sec
 *  cpu-time:     0 d,  0 h, 12 min,  6.965 sec
 * ratio c/w:    39.654 speedup
 SCF:
 * wall-time:     0 d,  0 h,  0 min,  2.020 sec
 *  cpu-time:     0 d,  0 h,  1 min, 15.347 sec
 * ratio c/w:    37.300 speedup
 ANC optimizer:
 * wall-time:     0 d,  0 h,  0 min, 16.116 sec
 *  cpu-time:     0 d,  0 h, 10 min, 43.767 sec
 * ratio c/w:    39.946 speedup

