      -----------------------------------------------------------      
     |                   =====================                   |     
     |                           x T B                           |     
     |                   =====================                   |     
     |                         S. Grimme                         |     
     |          Mulliken Center for Theoretical Chemistry        |     
     |                    University of Bonn                     |     
      -----------------------------------------------------------      

   * xtb version 6.5.0 (97a52f5) compiled by 'conda@d2599ee0d4f4' on 2022-05-15

   xtb is free software: you can redistribute it and/or modify it under
   the terms of the GNU Lesser General Public License as published by
   the Free Software Foundation, either version 3 of the License, or
   (at your option) any later version.
   
   xtb is distributed in the hope that it will be useful,
   but WITHOUT ANY WARRANTY; without even the implied warranty of
   MERCHANTABILITY or FITNESS FOR A PARTICULAR PURPOSE.  See the
   GNU Lesser General Public License for more details.
   
   Cite this work as:
   * C. Bannwarth, E. Caldeweyher, S. Ehlert, A. Hansen, P. Pracht,
     J. Seibert, S. Spicher, S. Grimme, WIREs Comput. Mol. Sci., 2020, 11,
     e01493. DOI: 10.1002/wcms.1493
   
   for GFN2-xTB:
   * C. Bannwarth, S. Ehlert and S. Grimme., J. Chem. Theory Comput., 2019,
     15, 1652-1671. DOI: 10.1021/acs.jctc.8b01176
   for GFN1-xTB:
   * S. Grimme, C. Bannwarth, P. Shushkov, J. Chem. Theory Comput., 2017,
     13, 1989-2009. DOI: 10.1021/acs.jctc.7b00118
   for GFN0-xTB:
   * P. Pracht, E. Caldeweyher, S. Ehlert, S. Grimme, ChemRxiv, 2019, preprint.
     DOI: 10.26434/chemrxiv.8326202.v1
   for GFN-FF:
   * S. Spicher and S. Grimme, Angew. Chem. Int. Ed., 2020, 59, 15665-15673.
     DOI: 10.1002/anie.202004239
   
   for ALPB and GBSA implicit solvation:
   * S. Ehlert, M. Stahn, S. Spicher, S. Grimme, J. Chem. Theory Comput.,
     2021, 17, 4250-4261. DOI: 10.1021/acs.jctc.1c00471
   
   for DFT-D4:
   * E. Caldeweyher, C. Bannwarth and S. Grimme, J. Chem. Phys., 2017,
     147, 034112. DOI: 10.1063/1.4993215
   * E. Caldeweyher, S. Ehlert, A. Hansen, H. Neugebauer, S. Spicher,
     C. Bannwarth and S. Grimme, J. Chem. Phys., 2019, 150, 154122.
     DOI: 10.1063/1.5090222
   * E. Caldeweyher, J.-M. Mewes, S. Ehlert and S. Grimme, Phys. Chem. Chem. Phys.
     2020, 22, 8499-8512. DOI: 10.1039/D0CP00502A
   
   for sTDA-xTB:
   * S. Grimme and C. Bannwarth, J. Chem. Phys., 2016, 145, 054103.
     DOI: 10.1063/1.4959605
   
   in the mass-spec context:
   * V. Asgeirsson, C. Bauer and S. Grimme, Chem. Sci., 2017, 8, 4879.
     DOI: 10.1039/c7sc00601b
   * J. Koopman and S. Grimme, ACS Omega 2019, 4, 12, 15120-15133.
     DOI: 10.1021/acsomega.9b02011
   
   for metadynamics refer to:
   * S. Grimme, J. Chem. Theory Comput., 2019, 155, 2847-2862
     DOI: 10.1021/acs.jctc.9b00143
   
   for SPH calculations refer to:
   * S. Spicher and S. Grimme, J. Chem. Theory Comput., 2021, 17, 1701-1714
     DOI: 10.1021/acs.jctc.0c01306
   
   with help from (in alphabetical order)
   P. Atkinson, C. Bannwarth, F. Bohle, G. Brandenburg, E. Caldeweyher
   M. Checinski, S. Dohm, S. Ehlert, S. Ehrlich, I. Gerasimov, C. Hölzer
   A. Katbashev, J. Koopman, C. Lavigne, S. Lehtola, F. März, M. Müller,
   F. Musil, H. Neugebauer, J. Pisarek, C. Plett, P. Pracht, F. Pultar,
   J. Seibert, P. Shushkov, S. Spicher, M. Stahn, M. Steiner, T. Strunk,
   J. Stückrath, T. Rose, and J. Unsleber
   
 * started run on 2023/11/18 at 08:33:58.547     

           -------------------------------------------------
          |                Calculation Setup                |
           -------------------------------------------------

          program call               : /home/liuchw/anaconda3/envs/xtbenv/bin/xtb --gfn 2 --chrg 0 --uhf 0 1_16_Index_0-opt-2-3-141_preQMOPTprefit_xyzformat.xyz --opt --input xtb-opt-2-3-141_constr.txt
          hostname                   : node165.bme.utexas.edu
          coordinate file            : 1_16_Index_0-opt-2-3-141_preQMOPTprefit_xyzformat.xyz
          omp threads                :                    64

   ID    Z sym.   atoms
    1    1 H      1, 15-17, 19-24
    2    7 N      2, 8
    3    6 C      3-7, 9-14
    4    8 O      18
constraining angle 1 2 3 4 to  140.9699812°, actual value:  140.9699812°
constraining angle 5 2 3 4 to  321.9790592°, actual value:  -38.0209408°
constraining angle 1 2 5 24 to  183.9550700°, actual value: -176.0449300°
constraining angle 3 2 5 24 to    2.9940642°, actual value:    2.9940642°
constraining angle 2 5 7 9 to  182.0035040°, actual value: -177.9964960°

           -------------------------------------------------
          |                 G F N 2 - x T B                 |
           -------------------------------------------------

        Reference                      10.1021/acs.jctc.8b01176
      * Hamiltonian:
        H0-scaling (s, p, d)           1.850000    2.230000    2.230000
        zeta-weighting                 0.500000
      * Dispersion:
        s8                             2.700000
        a1                             0.520000
        a2                             5.000000
        s9                             5.000000
      * Repulsion:
        kExp                           1.500000    1.000000
        rExp                           1.000000
      * Coulomb:
        alpha                          2.000000
        third order                    shell-resolved
        anisotropic                    true
        a3                             3.000000
        a5                             4.000000
        cn-shift                       1.200000
        cn-exp                         4.000000
        max-rad                        5.000000

q/qsh data taken from xtbrestart
CAMM data taken from xtbrestart

          ...................................................
          :                      SETUP                      :
          :.................................................:
          :  # basis functions                  66          :
          :  # atomic orbitals                  66          :
          :  # shells                           38          :
          :  # electrons                        70          :
          :  max. iterations                   250          :
          :  Hamiltonian                  GFN2-xTB          :
          :  restarted?                       true          :
          :  GBSA solvation                  false          :
          :  PC potential                    false          :
          :  electronic temp.          300.0000000     K    :
          :  accuracy                    1.0000000          :
          :  -> integral cutoff          0.2500000E+02      :
          :  -> integral neglect         0.1000000E-07      :
          :  -> SCF convergence          0.1000000E-05 Eh   :
          :  -> wf. convergence          0.1000000E-03 e    :
          :  Broyden damping             0.4000000          :
          ...................................................

 iter      E             dE          RMSdq      gap      omega  full diag
   1    -39.1081280 -0.391081E+02  0.137E+00    2.07       0.0  T
   2    -39.1084730 -0.344904E-03  0.806E-01    2.16       1.0  T
   3    -39.1042915  0.418146E-02  0.435E-01    2.06       1.0  T
   4    -39.1088806 -0.458908E-02  0.627E-02    2.15       1.0  T
   5    -39.1089744 -0.937957E-04  0.200E-02    2.14       1.0  T
   6    -39.1089770 -0.264427E-05  0.109E-02    2.14       1.9  T
   7    -39.1089776 -0.546187E-06  0.371E-03    2.14       5.5  T
   8    -39.1089777 -0.138770E-06  0.118E-03    2.14      17.3  T
   9    -39.1089777 -0.817903E-08  0.678E-04    2.14      30.1  T
  10    -39.1089777 -0.257443E-08  0.283E-04    2.14      72.2  T

   *** convergence criteria satisfied after 10 iterations ***

         #    Occupation            Energy/Eh            Energy/eV
      -------------------------------------------------------------
         1        2.0000           -0.6751349             -18.3714
       ...           ...                  ...                  ...
        29        2.0000           -0.4421023             -12.0302
        30        2.0000           -0.4324719             -11.7682
        31        2.0000           -0.4172460             -11.3538
        32        2.0000           -0.4106693             -11.1749
        33        2.0000           -0.3900566             -10.6140
        34        2.0000           -0.3796159             -10.3299
        35        2.0000           -0.3490691              -9.4987 (HOMO)
        36                         -0.2704890              -7.3604 (LUMO)
        37                         -0.2357051              -6.4139
        38                         -0.2255813              -6.1384
        39                         -0.1753849              -4.7725
        40                         -0.1224714              -3.3326
       ...                                ...                  ...
        66                          0.6760848              18.3972
      -------------------------------------------------------------
                  HL-Gap            0.0785801 Eh            2.1383 eV
             Fermi-level           -0.3097790 Eh           -8.4295 eV

 SCC (total)                   0 d,  0 h,  0 min,  1.807 sec
 SCC setup                      ...        0 min,  0.011 sec (  0.611%)
 Dispersion                     ...        0 min,  0.034 sec (  1.888%)
 classical contributions        ...        0 min,  0.017 sec (  0.937%)
 integral evaluation            ...        0 min,  0.048 sec (  2.649%)
 iterations                     ...        0 min,  1.503 sec ( 83.159%)
 molecular gradient             ...        0 min,  0.179 sec (  9.927%)
 printout                       ...        0 min,  0.015 sec (  0.809%)

         :::::::::::::::::::::::::::::::::::::::::::::::::::::
         ::                     SUMMARY                     ::
         :::::::::::::::::::::::::::::::::::::::::::::::::::::
         :: total energy             -38.549848569000 Eh    ::
         :: gradient norm              0.067213544512 Eh/a0 ::
         :: HOMO-LUMO gap              2.138273252827 eV    ::
         ::.................................................::
         :: SCC energy               -39.108977705943 Eh    ::
         :: -> isotropic ES            0.046832728106 Eh    ::
         :: -> anisotropic ES          0.001328775897 Eh    ::
         :: -> anisotropic XC          0.020288548497 Eh    ::
         :: -> dispersion             -0.021733850365 Eh    ::
         :: repulsion energy           0.559291387917 Eh    ::
         :: add. restraining           0.000000000000 Eh    ::
         :: total charge              -0.000000000000 e     ::
         :::::::::::::::::::::::::::::::::::::::::::::::::::::

      ----------------------------------------------------------- 
     |                   =====================                   |
     |                        A N C O P T                        |
     |                   =====================                   |
     |               Approximate Normal Coordinate               |
     |                Rational Function Optimizer                |
      ----------------------------------------------------------- 

          ...................................................
          :                      SETUP                      :
          :.................................................:
          :   optimization level            normal          :
          :   max. optcycles                   200          :
          :   ANC micro-cycles                  20          :
          :   degrees of freedom                66          :
          :.................................................:
          :   RF solver                   davidson          :
          :   write xtbopt.log                true          :
          :   linear?                        false          :
          :   energy convergence         0.5000000E-05 Eh   :
          :   grad. convergence          0.1000000E-02 Eh/α :
          :   maximium RF displ.         1.0000000          :
          :   Hlow (freq-cutoff)         0.1000000E-01      :
          :   Hmax (freq-cutoff)         5.0000000          :
          :   S6 in model hess.         20.0000000          :
          ...................................................

generating ANC from model Hessian ...
Using Lindh-Hessian (1995)
 Shifting diagonal of input Hessian by    8.6589936975367161E-003
 Lowest  eigenvalues of input Hessian
    0.000000    0.000000    0.000000    0.000000    0.000000    0.000000
    0.010000    0.010524    0.012004    0.015496    0.019332    0.021838
    0.022667    0.029300    0.029613    0.033567    0.035829    0.041433
 Highest eigenvalues
    2.080407    2.282158    2.879911    5.708633    9.356873   23.397439


........................................................................
.............................. CYCLE    1 ..............................
........................................................................
   1    -39.1089777 -0.391090E+02  0.696E-05    2.14       0.0  T
   2    -39.1089777 -0.881784E-11  0.414E-05    2.14     493.4  T
   3    -39.1089777  0.644462E-11  0.292E-05    2.14     699.3  T
     SCC iter.                  ...        0 min,  0.418 sec
     gradient                   ...        0 min,  0.165 sec
 * total energy  :   -38.5498486 Eh     change       -0.9158256E-09 Eh
   gradient norm :     0.0672129 Eh/α   predicted     0.0000000E+00 (-100.00%)
   displ. norm   :     0.3181357 α      lambda       -0.1197996E-01
   maximum displ.:     0.1339184 α      in ANC's #7, #10, #11, ...

........................................................................
.............................. CYCLE    2 ..............................
........................................................................
   1    -39.1680549 -0.391681E+02  0.219E-01    2.26       0.0  T
   2    -39.1681979 -0.142973E-03  0.133E-01    2.24       1.0  T
   3    -39.1681921  0.584721E-05  0.724E-02    2.25       1.0  T
   4    -39.1682356 -0.435389E-04  0.167E-02    2.24       1.2  T
   5    -39.1682413 -0.570684E-05  0.483E-03    2.24       4.2  T
   6    -39.1682415 -0.149926E-06  0.242E-03    2.24       8.4  T
   7    -39.1682415 -0.325551E-07  0.121E-03    2.24      16.9  T
   8    -39.1682415 -0.182071E-07  0.569E-04    2.24      35.9  T
   9    -39.1682415 -0.259911E-08  0.195E-04    2.24     104.6  T
     SCC iter.                  ...        0 min,  1.479 sec
     gradient                   ...        0 min,  0.189 sec
 * total energy  :   -38.5576461 Eh     change       -0.7797505E-02 Eh
   gradient norm :     0.0178068 Eh/α   predicted    -0.6598688E-02 ( -15.37%)
   displ. norm   :     0.2544774 α      lambda       -0.2166079E-02
   maximum displ.:     0.1439409 α      in ANC's #7, #10, #11, ...

........................................................................
.............................. CYCLE    3 ..............................
........................................................................
   1    -39.1912587 -0.391913E+02  0.118E-01    2.30       0.0  T
   2    -39.1912883 -0.295773E-04  0.745E-02    2.29       1.0  T
   3    -39.1912763  0.120211E-04  0.427E-02    2.30       1.0  T
   4    -39.1913025 -0.262160E-04  0.124E-02    2.29       1.6  T
   5    -39.1913056 -0.315535E-05  0.354E-03    2.29       5.8  T
   6    -39.1913058 -0.158800E-06  0.168E-03    2.29      12.2  T
   7    -39.1913058 -0.205832E-07  0.634E-04    2.29      32.2  T
   8    -39.1913058 -0.360632E-08  0.207E-04    2.29      98.5  T
     SCC iter.                  ...        0 min,  1.139 sec
     gradient                   ...        0 min,  0.172 sec
 * total energy  :   -38.5588609 Eh     change       -0.1214867E-02 Eh
   gradient norm :     0.0336309 Eh/α   predicted    -0.1153433E-02 (  -5.06%)
   displ. norm   :     0.1422711 α      lambda       -0.5312231E-03
   maximum displ.:     0.0804389 α      in ANC's #7, #5, #2, ...

........................................................................
.............................. CYCLE    4 ..............................
........................................................................
   1    -39.1947677 -0.391948E+02  0.615E-02    2.30       0.0  T
   2    -39.1947717 -0.398724E-05  0.391E-02    2.29       1.0  T
   3    -39.1947636  0.813676E-05  0.244E-02    2.30       1.0  T
   4    -39.1947759 -0.122771E-04  0.488E-03    2.29       4.2  T
   5    -39.1947763 -0.449015E-06  0.154E-03    2.30      13.2  T
   6    -39.1947764 -0.321681E-07  0.628E-04    2.30      32.5  T
   7    -39.1947764 -0.628823E-09  0.216E-04    2.30      94.5  T
     SCC iter.                  ...        0 min,  1.070 sec
     gradient                   ...        0 min,  0.178 sec
 * total energy  :   -38.5587270 Eh     change        0.1338973E-03 Eh
   gradient norm :     0.1246162 Eh/α   predicted    -0.2710068E-03 (-302.40%)
   displ. norm   :     0.0675099 α      lambda       -0.7994043E-03
   maximum displ.:     0.0314876 α      in ANC's #2, #5, #3, ...

........................................................................
.............................. CYCLE    5 ..............................
........................................................................
   1    -39.1918473 -0.391918E+02  0.336E-02    2.29       0.0  T
   2    -39.1918484 -0.103860E-05  0.201E-02    2.29       1.0  T
   3    -39.1918467  0.163824E-05  0.100E-02    2.29       2.0  T
   4    -39.1918487 -0.192492E-05  0.268E-03    2.29       7.6  T
   5    -39.1918488 -0.163180E-06  0.617E-04    2.29      33.1  T
   6    -39.1918488 -0.244540E-08  0.323E-04    2.29      63.3  T
     SCC iter.                  ...        0 min,  0.826 sec
     gradient                   ...        0 min,  0.187 sec
 * total energy  :   -38.5591133 Eh     change       -0.3862907E-03 Eh
   gradient norm :     0.0132297 Eh/α   predicted    -0.4015306E-03 (   3.95%)
   displ. norm   :     0.0402984 α      lambda       -0.7262106E-04
   maximum displ.:     0.0248865 α      in ANC's #2, #11, #10, ...

........................................................................
.............................. CYCLE    6 ..............................
........................................................................
   1    -39.1901114 -0.391901E+02  0.226E-02    2.28       0.0  T
   2    -39.1901119 -0.515401E-06  0.140E-02    2.28       1.5  T
   3    -39.1901111  0.825071E-06  0.662E-03    2.28       3.1  T
   4    -39.1901121 -0.102507E-05  0.162E-03    2.28      12.6  T
   5    -39.1901122 -0.526238E-07  0.541E-04    2.28      37.7  T
   6    -39.1901122 -0.462994E-08  0.229E-04    2.28      89.1  T
     SCC iter.                  ...        0 min,  0.949 sec
     gradient                   ...        0 min,  0.180 sec
 * total energy  :   -38.5591436 Eh     change       -0.3030666E-04 Eh
   gradient norm :     0.0120421 Eh/α   predicted    -0.3655006E-04 (  20.60%)
   displ. norm   :     0.0392023 α      lambda       -0.3042626E-04
   maximum displ.:     0.0303635 α      in ANC's #2, #1, #3, ...

........................................................................
.............................. CYCLE    7 ..............................
........................................................................
   1    -39.1897181 -0.391897E+02  0.165E-02    2.28       0.0  T
   2    -39.1897182 -0.944728E-07  0.954E-03    2.28       2.1  T
   3    -39.1897180  0.179547E-06  0.332E-03    2.28       6.1  T
   4    -39.1897182 -0.197018E-06  0.780E-04    2.28      26.2  T
   5    -39.1897182 -0.145521E-07  0.245E-04    2.28      83.3  T
     SCC iter.                  ...        0 min,  0.782 sec
     gradient                   ...        0 min,  0.182 sec
 * total energy  :   -38.5591643 Eh     change       -0.2067391E-04 Eh
   gradient norm :     0.0012664 Eh/α   predicted    -0.1525057E-04 ( -26.23%)
   displ. norm   :     0.0759458 α      lambda       -0.1613979E-04
   maximum displ.:     0.0595338 α      in ANC's #2, #1, #5, ...

........................................................................
.............................. CYCLE    8 ..............................
........................................................................
   1    -39.1900163 -0.391900E+02  0.311E-02    2.28       0.0  T
   2    -39.1900165 -0.205772E-06  0.180E-02    2.28       1.1  T
   3    -39.1900148  0.167471E-05  0.880E-03    2.28       2.3  T
   4    -39.1900167 -0.187835E-05  0.110E-03    2.28      18.6  T
   5    -39.1900167 -0.257647E-07  0.354E-04    2.28      57.6  T
   6    -39.1900167 -0.135026E-08  0.188E-04    2.28     108.4  T
     SCC iter.                  ...        0 min,  0.969 sec
     gradient                   ...        0 min,  0.182 sec
 * total energy  :   -38.5591771 Eh     change       -0.1274555E-04 Eh
   gradient norm :     0.0035776 Eh/α   predicted    -0.8133821E-05 ( -36.18%)
   displ. norm   :     0.0201600 α      lambda       -0.5593586E-05
   maximum displ.:     0.0177441 α      in ANC's #2, #1, #15, ...

........................................................................
.............................. CYCLE    9 ..............................
........................................................................
   1    -39.1900845 -0.391901E+02  0.926E-03    2.28       0.0  T
   2    -39.1900845 -0.809168E-08  0.545E-03    2.28       3.7  T
   3    -39.1900845  0.508673E-08  0.508E-04    2.28      40.2  T
   4    -39.1900845 -0.652439E-08  0.184E-04    2.28     111.2  T
     SCC iter.                  ...        0 min,  0.606 sec
     gradient                   ...        0 min,  0.171 sec
 * total energy  :   -38.5591816 Eh     change       -0.4584569E-05 Eh
   gradient norm :     0.0021193 Eh/α   predicted    -0.2802051E-05 ( -38.88%)
   displ. norm   :     0.0280362 α      lambda       -0.6367814E-05
   maximum displ.:     0.0227295 α      in ANC's #2, #1, #3, ...

........................................................................
.............................. CYCLE   10 ..............................
........................................................................
   1    -39.1901571 -0.391902E+02  0.123E-02    2.28       0.0  T
   2    -39.1901571 -0.903242E-08  0.725E-03    2.28       2.8  T
   3    -39.1901571  0.282052E-07  0.116E-03    2.28      17.7  T
   4    -39.1901571 -0.332897E-07  0.200E-04    2.28     102.1  T
   5    -39.1901571 -0.507505E-09  0.104E-04    2.28     197.0  T
     SCC iter.                  ...        0 min,  0.704 sec
     gradient                   ...        0 min,  0.176 sec
 * total energy  :   -38.5591864 Eh     change       -0.4744421E-05 Eh
   gradient norm :     0.0007346 Eh/α   predicted    -0.3188699E-05 ( -32.79%)
   displ. norm   :     0.0359747 α      lambda       -0.3106832E-05
   maximum displ.:     0.0302302 α      in ANC's #2, #1, #3, ...

   *** GEOMETRY OPTIMIZATION CONVERGED AFTER 10 ITERATIONS ***

------------------------------------------------------------------------
 total energy gain   :        -0.0093378 Eh       -5.8596 kcal/mol
 total RMSD          :         0.1598910 a0        0.0846 Å
 total power (kW/mol):        -2.4516446 (step)   -1.9613 (real)
------------------------------------------------------------------------

 ANCopt (total)                0 d,  0 h,  0 min, 12.500 sec
 optimizer setup                ...        0 min,  0.000 sec (  0.002%)
 model hessian                  ...        0 min,  0.003 sec (  0.020%)
 ANC generation                 ...        0 min,  0.068 sec (  0.545%)
 coordinate transformation      ...        0 min,  0.001 sec (  0.005%)
 single point calculation       ...        0 min, 11.981 sec ( 95.851%)
 optimization log               ...        0 min,  0.003 sec (  0.023%)
 hessian update                 ...        0 min,  0.417 sec (  3.337%)
 rational function              ...        0 min,  0.025 sec (  0.200%)

================
 final structure:
================
24
 xtb: 6.5.0 (97a52f5)
H           -0.49532259215444       -0.51581168474590       -1.03839450752762
N            0.03530410659885       -0.34130227248520       -0.17839974472796
C            1.19302509408804       -1.06851532552620        0.07477895478657
C            2.31696863898258       -0.47659595224821        0.64852132080044
C           -0.48642549269486        0.61931027181282        0.59570935244433
C            1.25907559422504       -2.39818216821578       -0.34051101534151
C           -1.63888728029350        1.25867613064667        0.24259706189105
N           -3.44600167785271        1.78450520017150       -0.99461813523227
C           -2.35530259413309        2.32862543467583        0.88286919308140
C           -2.37355257766500        0.93725253956749       -0.97877369369021
C           -3.42616112525070        2.61297586372096        0.11689634975720
C            2.40776465614664       -3.13487411916932       -0.12879437654915
C            3.46003975683574       -1.22389567093949        0.86156750672815
C            3.50913751902570       -2.55426177290950        0.48021717439418
H            0.39954637933073       -2.84274396971250       -0.81978186541386
H            2.29126739360635        0.56611592699085        0.92791111033970
H           -4.14249924852395        1.80627494911651       -1.72026184906614
O           -2.10710554024109        0.09461789665192       -1.83536785874775
H            2.44643558984026       -4.16744370676044       -0.44237106558559
H            4.32383036249702       -0.75882117440287        1.31324004075280
H           -2.07523278759817        2.79955039534195        1.80390506881644
H           -4.19602339709357        3.34714305013686        0.25668590986906
H            4.40529782565876       -3.13258446500640        0.64569511481892
H            0.06057338666524        0.89896262328832        1.48796495340138

 Bond Distances (Angstroems)
 ---------------------------
H1-N2=1.0255         N2-H1=1.0255         N2-C3=1.3904         N2-C5=1.3395         C3-N2=1.3904         C3-C4=1.3938         
C3-C6=1.3946         C4-C3=1.3938         C4-C13=1.3822        C4-H16=1.0798        C5-N2=1.3395         C5-C7=1.3644         
C5-H24=1.0833        C6-C3=1.3946         C6-C12=1.3810        C6-H15=1.0799        C7-C5=1.3644         C7-C9=1.4381         
C7-C10=1.4611        N8-C10=1.3668        N8-C11=1.3864        N8-H17=1.0061        C9-C7=1.4381         C9-C11=1.3470        
C9-H21=1.0717        C10-C7=1.4611        C10-N8=1.3668        C10-O18=1.2308       C11-N8=1.3864        C11-C9=1.3470        
C11-H22=1.0730       C12-C6=1.3810        C12-C14=1.3860       C12-H19=1.0798       C13-C4=1.3822        C13-C14=1.3848       
C13-H20=1.0800       C14-C12=1.3860       C14-C13=1.3848       C14-H23=1.0793       H15-C6=1.0799        H16-C4=1.0798        
H17-N8=1.0061        O18-C10=1.2308       H19-C12=1.0798       H20-C13=1.0800       H21-C9=1.0717        H22-C11=1.0730       
H23-C14=1.0793       H24-C5=1.0833        
 C  H  Rav=1.0783 sigma=0.0037  Rmin=1.0717  Rmax=1.0833     8
 C  C  Rav=1.3933 sigma=0.0316  Rmin=1.3470  Rmax=1.4611    10
 N  H  Rav=1.0158 sigma=0.0097  Rmin=1.0061  Rmax=1.0255     2
 N  C  Rav=1.3708 sigma=0.0202  Rmin=1.3395  Rmax=1.3904     4
 O  C  Rav=1.2308 sigma=0.0000  Rmin=1.2308  Rmax=1.2308     1

 selected bond angles (degree)
 --------------------
C3-N2-H1=119.64                C5-N2-H1=113.90                C5-N2-C3=126.45                C4-C3-N2=121.62                
C6-C3-N2=118.94                C6-C3-C4=119.29                C13-C4-C3=120.05               H16-C4-C3=119.83               
H16-C4-C13=120.13              C7-C5-N2=121.03                H24-C5-N2=117.68               H24-C5-C7=121.24               
C12-C6-C3=120.16               H15-C6-C3=119.14               H15-C6-C12=120.70              C9-C7-C5=130.86                
C10-C7-C5=122.54               C10-C7-C9=106.58               C11-N8-C10=110.48              H17-N8-C10=124.40              
H17-N8-C11=125.12              C11-C9-C7=107.45               H21-C9-C7=125.41               H21-C9-C11=127.14              
N8-C10-C7=105.54               O18-C10-C7=128.58              O18-C10-N8=125.89              

 selected dihedral angles (degree)
 ---------------------------------
C4-C3-N2-H1=141.03            C4-C3-N2-C5=322.01            C6-C3-N2-H1=325.49            C6-C3-N2-C5=146.47            
C13-C4-C3-N2=181.29           C13-C4-C3-C6=356.81           H16-C4-C3-N2=  1.43           H16-C4-C3-C6=176.95           
C7-C5-N2-H1=  1.36            C7-C5-N2-C3=180.42            H24-C5-N2-H1=183.92           H24-C5-N2-C3=  2.98           
C12-C6-C3-N2=178.55           C12-C6-C3-C4=  2.90           H15-C6-C3-N2=358.02           H15-C6-C3-C4=182.37           
C9-C7-C5-N2=181.98            C9-C7-C5-H24=359.33           C10-C7-C5-N2=  0.42           C10-C7-C5-H24=177.77          
C11-C9-C7-C5=179.03           C11-C9-C7-C10=  0.40          H21-C9-C7-C5=358.82           H21-C9-C7-C10=180.19          
N8-C10-C7-C5=180.70           N8-C10-C7-C9=359.46           O18-C10-C7-C5=  0.34          O18-C10-C7-C9=179.11          
C7-C10-N8-C11=  0.49          C7-C10-N8-H17=179.79          O18-C10-N8-C11=180.83         O18-C10-N8-H17=  0.14         
           -------------------------------------------------
          |                Final Singlepoint                |
           -------------------------------------------------

          ...................................................
          :                      SETUP                      :
          :.................................................:
          :  # basis functions                  66          :
          :  # atomic orbitals                  66          :
          :  # shells                           38          :
          :  # electrons                        70          :
          :  max. iterations                   250          :
          :  Hamiltonian                  GFN2-xTB          :
          :  restarted?                      false          :
          :  GBSA solvation                  false          :
          :  PC potential                    false          :
          :  electronic temp.          300.0000000     K    :
          :  accuracy                    1.0000000          :
          :  -> integral cutoff          0.2500000E+02      :
          :  -> integral neglect         0.1000000E-07      :
          :  -> SCF convergence          0.1000000E-05 Eh   :
          :  -> wf. convergence          0.1000000E-03 e    :
          :  Broyden damping             0.4000000          :
          ...................................................

 iter      E             dE          RMSdq      gap      omega  full diag
   1    -39.1901571 -0.391902E+02  0.364E-05    2.28       0.0  T
   2    -39.1901571 -0.370903E-11  0.256E-05    2.28     796.0  T
   3    -39.1901571 -0.833467E-11  0.153E-05    2.28    1335.9  T

   *** convergence criteria satisfied after 3 iterations ***

         #    Occupation            Energy/Eh            Energy/eV
      -------------------------------------------------------------
         1        2.0000           -0.6827504             -18.5786
       ...           ...                  ...                  ...
        29        2.0000           -0.4403252             -11.9819
        30        2.0000           -0.4315003             -11.7417
        31        2.0000           -0.4202993             -11.4369
        32        2.0000           -0.4128068             -11.2330
        33        2.0000           -0.3900733             -10.6144
        34        2.0000           -0.3809764             -10.3669
        35        2.0000           -0.3487858              -9.4909 (HOMO)
        36                         -0.2649978              -7.2110 (LUMO)
        37                         -0.2304585              -6.2711
        38                         -0.2163092              -5.8861
        39                         -0.1689310              -4.5968
        40                         -0.1116235              -3.0374
       ...                                ...                  ...
        66                          0.7409759              20.1630
      -------------------------------------------------------------
                  HL-Gap            0.0837880 Eh            2.2800 eV
             Fermi-level           -0.3068918 Eh           -8.3510 eV

 SCC (total)                   0 d,  0 h,  0 min,  0.671 sec
 SCC setup                      ...        0 min,  0.017 sec (  2.528%)
 Dispersion                     ...        0 min,  0.027 sec (  4.093%)
 classical contributions        ...        0 min,  0.022 sec (  3.264%)
 integral evaluation            ...        0 min,  0.034 sec (  5.025%)
 iterations                     ...        0 min,  0.381 sec ( 56.703%)
 molecular gradient             ...        0 min,  0.178 sec ( 26.564%)
 printout                       ...        0 min,  0.012 sec (  1.774%)

         :::::::::::::::::::::::::::::::::::::::::::::::::::::
         ::                     SUMMARY                     ::
         :::::::::::::::::::::::::::::::::::::::::::::::::::::
         :: total energy             -38.559186390225 Eh    ::
         :: gradient norm              0.000734450996 Eh/a0 ::
         :: HOMO-LUMO gap              2.279986528689 eV    ::
         ::.................................................::
         :: SCC energy               -39.190157106425 Eh    ::
         :: -> isotropic ES            0.045580119287 Eh    ::
         :: -> anisotropic ES          0.000702006401 Eh    ::
         :: -> anisotropic XC          0.018097368307 Eh    ::
         :: -> dispersion             -0.022191882333 Eh    ::
         :: repulsion energy           0.631128917812 Eh    ::
         :: add. restraining           0.000005497407 Eh    ::
         :: total charge              -0.000000000000 e     ::
         :::::::::::::::::::::::::::::::::::::::::::::::::::::

           -------------------------------------------------
          |                Property Printout                |
           -------------------------------------------------

    * Orbital Energies and Occupations

         #    Occupation            Energy/Eh            Energy/eV
      -------------------------------------------------------------
         1        2.0000           -0.6827504             -18.5786
       ...           ...                  ...                  ...
        23        2.0000           -0.4844647             -13.1830
        24        2.0000           -0.4787229             -13.0267
        25        2.0000           -0.4741832             -12.9032
        26        2.0000           -0.4691886             -12.7673
        27        2.0000           -0.4603530             -12.5268
        28        2.0000           -0.4551090             -12.3841
        29        2.0000           -0.4403252             -11.9819
        30        2.0000           -0.4315003             -11.7417
        31        2.0000           -0.4202993             -11.4369
        32        2.0000           -0.4128068             -11.2330
        33        2.0000           -0.3900733             -10.6144
        34        2.0000           -0.3809764             -10.3669
        35        2.0000           -0.3487858              -9.4909 (HOMO)
        36                         -0.2649978              -7.2110 (LUMO)
        37                         -0.2304585              -6.2711
        38                         -0.2163092              -5.8861
        39                         -0.1689310              -4.5968
        40                         -0.1116235              -3.0374
        41                         -0.0949935              -2.5849
        42                          0.0217704               0.5924
        43                          0.0350892               0.9548
        44                          0.1044085               2.8411
        45                          0.1184733               3.2238
        46                          0.1275223               3.4701
       ...                                ...                  ...
        66                          0.7409759              20.1630
      -------------------------------------------------------------
                  HL-Gap            0.0837880 Eh            2.2800 eV
             Fermi-level           -0.3068918 Eh           -8.3510 eV

     #   Z          covCN         q      C6AA      α(0)
     1   1 H        0.859     0.227     0.979     1.550
     2   7 N        2.701    -0.111    23.428     7.189
     3   6 C        2.911     0.067    26.497     8.441
     4   6 C        2.922    -0.046    29.151     8.854
     5   6 C        2.833     0.041    27.064     8.525
     6   6 C        2.924    -0.048    29.198     8.861
     7   6 C        3.089    -0.069    29.608     8.919
     8   7 N        2.775    -0.146    24.163     7.301
     9   6 C        2.981    -0.071    29.772     8.950
    10   6 C        2.872     0.256    22.697     7.810
    11   6 C        2.991     0.002    27.961     8.674
    12   6 C        2.919    -0.026    28.663     8.779
    13   6 C        2.919    -0.028    28.700     8.785
    14   6 C        2.919    -0.035    28.880     8.813
    15   1 H        0.926     0.043     2.411     2.428
    16   1 H        0.926     0.037     2.496     2.470
    17   1 H        0.860     0.169     1.279     1.771
    18   8 O        0.857    -0.487    23.498     6.499
    19   1 H        0.926     0.038     2.478     2.462
    20   1 H        0.926     0.036     2.502     2.474
    21   1 H        0.926     0.032     2.552     2.498
    22   1 H        0.926     0.035     2.516     2.480
    23   1 H        0.926     0.035     2.515     2.480
    24   1 H        0.925     0.050     2.319     2.381

 Mol. C6AA /au·bohr⁶  :       7633.902261
 Mol. C8AA /au·bohr⁸  :     185851.309138
 Mol. α(0) /au        :        139.395110


Wiberg/Mayer (AO) data.
largest (>0.10) Wiberg bond orders for each atom

 ---------------------------------------------------------------------------
     #   Z sym  total        # sym  WBO       # sym  WBO       # sym  WBO
 ---------------------------------------------------------------------------
     1   1 H    0.948 --     2 N    0.876
     2   7 N    3.556 --     5 C    1.303     3 C    1.081     1 H    0.876
     3   6 C    3.965 --     4 C    1.368     6 C    1.362     2 N    1.081
     4   6 C    3.985 --    13 C    1.452     3 C    1.368    16 H    0.967
                            12 C    0.105
     5   6 C    3.971 --     7 C    1.495     2 N    1.303    24 H    0.956
     6   6 C    3.985 --    12 C    1.460     3 C    1.362    15 H    0.968
                            13 C    0.107
     7   6 C    3.963 --     5 C    1.495     9 C    1.156    10 C    1.070
     8   7 N    3.513 --    10 C    1.180    11 C    1.126    17 H    0.943
                            18 O    0.143
     9   6 C    3.978 --    11 C    1.696     7 C    1.156    21 H    0.972
    10   6 C    3.949 --    18 O    1.569     8 N    1.180     7 C    1.070
    11   6 C    3.938 --     9 C    1.696     8 N    1.126    22 H    0.970
    12   6 C    3.991 --     6 C    1.460    14 C    1.427    19 H    0.970
                             4 C    0.105
    13   6 C    3.992 --     4 C    1.452    14 C    1.434    20 H    0.971
                             6 C    0.107
    14   6 C    3.973 --    13 C    1.434    12 C    1.427    23 H    0.971
    15   1 H    0.998 --     6 C    0.968
    16   1 H    0.999 --     4 C    0.967
    17   1 H    0.971 --     8 N    0.943
    18   8 O    1.972 --    10 C    1.569     8 N    0.143
    19   1 H    0.998 --    12 C    0.970
    20   1 H    0.998 --    13 C    0.971
    21   1 H    0.999 --     9 C    0.972
    22   1 H    0.998 --    11 C    0.970
    23   1 H    0.999 --    14 C    0.971
    24   1 H    0.997 --     5 C    0.956
 ---------------------------------------------------------------------------

Topologies differ in total number of bonds
Writing topology from bond orders to xtbtopo.mol

molecular dipole:
                 x           y           z       tot (Debye)
 q only:        0.525       0.130       0.708
   full:        0.275       0.332       0.673       2.030
molecular quadrupole (traceless):
                xx          xy          yy          xz          yz          zz
 q only:        3.573      -6.427       2.894      -1.661      -0.420      -6.466
  q+dip:        7.384      -9.064       2.477       3.081       0.454      -9.862
   full:        6.187      -7.904       2.140       0.688      -1.143      -8.327

           -------------------------------------------------
          |                Geometry Summary                 |
           -------------------------------------------------

      molecular mass/u    :      186.2103137
   center of mass at/Å    :       -0.1719214      -0.0940549      -0.0745063
  moments of inertia/u·Å² :        0.2142747E+03   0.1608739E+04   0.1786580E+04
rotational constants/cm⁻¹ :        0.7867300E-01   0.1047879E-01   0.9435702E-02

 * 24 selected distances

     #   Z          #   Z                                           value/Å
     1   1 H        2   7 N                                       1.0254801
     2   7 N        3   6 C                                       1.3904160
     3   6 C        4   6 C                                       1.3938430
     2   7 N        5   6 C                                       1.3394863
     3   6 C        6   6 C                                       1.3945762
     5   6 C        7   6 C                                       1.3644213
     7   6 C        9   6 C                                       1.4380512 (max)
     8   7 N       10   6 C                                       1.3668341
     8   7 N       11   6 C                                       1.3864422
     9   6 C       11   6 C                                       1.3469625
     6   6 C       12   6 C                                       1.3809511
     4   6 C       13   6 C                                       1.3821930
    12   6 C       14   6 C                                       1.3860117
    13   6 C       14   6 C                                       1.3848151
     6   6 C       15   1 H                                       1.0798733
     4   6 C       16   1 H                                       1.0797997
     8   7 N       17   1 H                                       1.0060526 (min)
    10   6 C       18   8 O                                       1.2307644
    12   6 C       19   1 H                                       1.0798268
    13   6 C       20   1 H                                       1.0800170
     9   6 C       21   1 H                                       1.0716887
    11   6 C       22   1 H                                       1.0729542
    14   6 C       23   1 H                                       1.0793255
     5   6 C       24   1 H                                       1.0832975

 * 5 distinct bonds (by element types)

   Z      Z             #   av. dist./Å        max./Å        min./Å
   1 H    6 C           8     1.0783479     1.0832975     1.0716887
   6 C    6 C           9     1.3857583     1.4380512     1.3469625
   1 H    7 N           2     1.0157663     1.0254801     1.0060526
   6 C    7 N           4     1.3707946     1.3904160     1.3394863
   6 C    8 O           1     1.2307644     1.2307644     1.2307644


optimized geometry written to: xtbopt.xyz


           -------------------------------------------------
          | TOTAL ENERGY              -38.559186390225 Eh   |
          | GRADIENT NORM               0.000734450996 Eh/α |
          | HOMO-LUMO GAP               2.279986528689 eV   |
           -------------------------------------------------
########################################################################
[WARNING] Runtime exception occurred
-1- restart_readRestart: Number of electron missmatch in restart file.
########################################################################

------------------------------------------------------------------------
 * finished run on 2023/11/18 at 08:34:13.739     
------------------------------------------------------------------------
 total:
 * wall-time:     0 d,  0 h,  0 min, 15.193 sec
 *  cpu-time:     0 d,  0 h,  9 min, 58.691 sec
 * ratio c/w:    39.407 speedup
 SCF:
 * wall-time:     0 d,  0 h,  0 min,  1.808 sec
 *  cpu-time:     0 d,  0 h,  1 min, 12.050 sec
 * ratio c/w:    39.858 speedup
 ANC optimizer:
 * wall-time:     0 d,  0 h,  0 min, 13.176 sec
 *  cpu-time:     0 d,  0 h,  8 min, 38.694 sec
 * ratio c/w:    39.366 speedup

