24
 energy: -38.551673999164 gnorm: 0.000433483630 xtb: 6.5.0 (97a52f5)
H           -0.10670287990968        0.07707160395728       -1.26775743725304
N            0.14416001231370       -0.18301092302537       -0.30654622505171
C            1.27610646968155       -0.98245931112743       -0.04121054457675
C            2.54202773735689       -0.40949024206277       -0.00509248440097
C           -0.67497347827971        0.31609453258329        0.62229810075014
C            1.12288986131310       -2.33740949457685        0.22776830984145
C           -1.75912404011978        1.06892162935419        0.27158510017871
N           -3.19642879832180        2.14686088700832       -1.08348870840403
C           -2.75019711003936        1.73697669925379        1.07102295747642
C           -2.07854001618618        1.36177462633411       -1.12007296310650
C           -3.59148517312352        2.36611282069080        0.22773551245095
C            2.23198533200831       -3.11605754283253        0.50640323900665
C            3.64701460818354       -1.19435236698391        0.27157902573809
C            3.49423515978593       -2.54702665811726        0.52671763688444
H            0.13390222661219       -2.77083233322016        0.21133223735915
H            2.65091000719074        0.64627962291107       -0.20393005916891
H           -3.66079120415487        2.51296214185712       -1.89738979691508
O           -1.48123223062378        1.00225755466299       -2.13698524644339
H            2.10981154593122       -4.16963986762575        0.70910940492000
H            4.62963634297459       -0.74719643198174        0.29490903987216
H           -2.79856823815862        1.72265753349805        2.14167149884218
H           -4.45571952855602        2.96628607405371        0.43771606862467
H            4.35824525386542       -3.15667604644524        0.74424782398543
H           -0.42140984974382        0.12887446183429        1.65965950939003
