
    -----------------------------------------------------------------------
          Psi4: An Open-Source Ab Initio Electronic Structure Package
                               Psi4 1.6 release

                         Git: Rev {HEAD} 77475b5 


    D. G. A. Smith, L. A. Burns, A. C. Simmonett, R. M. Parrish,
    M. C. Schieber, R. Galvelis, P. Kraus, H. Kruse, R. Di Remigio,
    A. Alenaizan, A. M. James, S. Lehtola, J. P. Misiewicz, M. Scheurer,
    R. A. Shaw, J. B. Schriber, Y. Xie, Z. L. Glick, D. A. Sirianni,
    J. S. O'Brien, J. M. Waldrop, A. Kumar, E. G. Hohenstein,
    B. P. Pritchard, B. R. Brooks, H. F. Schaefer III, A. Yu. Sokolov,
    K. Patkowski, A. E. DePrince III, U. Bozkaya, R. A. King,
    F. A. Evangelista, J. M. Turney, T. D. Crawford, C. D. Sherrill,
    J. Chem. Phys. 152(18) 184108 (2020). https://doi.org/10.1063/5.0006002

                            Additional Code Authors
    E. T. Seidl, C. L. Janssen, E. F. Valeev, M. L. Leininger,
    J. F. Gonthier, R. M. Richard, H. R. McAlexander, M. Saitow, X. Wang,
    P. Verma, M. H. Lechner, and A. Jiang

             Previous Authors, Complete List of Code Contributors,
                       and Citations for Specific Modules
    https://github.com/psi4/psi4/blob/master/codemeta.json
    https://github.com/psi4/psi4/graphs/contributors
    http://psicode.org/psi4manual/master/introduction.html#citing-psifour

    -----------------------------------------------------------------------


    Psi4 started on: Saturday, 18 November 2023 08:40AM

    Process ID: 1132098
    Host:       node165.bme.utexas.edu
    PSIDATADIR: /home/liuchw/anaconda3/envs/poltype2022/share/psi4
    Memory:     500.0 MiB
    Threads:    1
    
  ==> Input File <==

--------------------------------------------------------------------------
molecule { 
0 1
 H    0.482860    1.117518    0.243083
 N    0.306745    0.112066    0.133500
 C    1.358638   -0.823660    0.229926
 C    1.946340   -1.332047   -0.922355
 C   -0.974667   -0.196810   -0.080801
 C    1.838821   -1.205228    1.477328
 C   -1.927418    0.777124   -0.174349
 N   -2.790268    2.855279   -0.166168
 C   -3.350975    0.697252   -0.360220
 C   -1.601083    2.192016   -0.048249
 C   -3.829821    1.956399   -0.352684
 C    2.885708   -2.104968    1.567956
 C    2.991289   -2.233508   -0.824381
 C    3.461446   -2.621260    0.419039
 H    1.385101   -0.794754    2.367071
 H    1.573328   -1.021462   -1.887023
 H   -2.890050    3.855302   -0.120328
 O   -0.498692    2.711901    0.137129
 H    3.253268   -2.403456    2.538448
 H    3.443431   -2.629267   -1.721608
 H   -3.911959   -0.207495   -0.484959
 H   -4.836556    2.310668   -0.463362
 H    4.278336   -3.323284    0.492788
 H   -1.228064   -1.249347   -0.138502
}
memory 20GB
set_num_threads(5)
psi4_io.set_default_path("/scratch/liuchw/Psi4-1_16_Index_0-farH_in17")
set freeze_core True
E, wfn = energy('wb97x-d/6-311+G*',return_wfn=True)
oeprop(wfn,"WIBERG_LOWDIN_INDICES")
clean()
--------------------------------------------------------------------------

  Memory set to  18.626 GiB by Python driver.
  Threads set to 5 by Python driver.

Scratch directory: /scratch/liuchw/Psi4-1_16_Index_0-farH_in17/

*** tstart() called on node165.bme.utexas.edu
*** at Sat Nov 18 08:40:52 2023

   => Loading Basis Set <=

    Name: 6-311+G*
    Role: ORBITAL
    Keyword: BASIS
    atoms 1, 15-17, 19-24 entry H          line    47 file /home/liuchw/anaconda3/envs/poltype2022/share/psi4/basis/6-311pgs.gbs 
    atoms 2, 8            entry N          line   151 file /home/liuchw/anaconda3/envs/poltype2022/share/psi4/basis/6-311pgs.gbs 
    atoms 3-7, 9-14       entry C          line   130 file /home/liuchw/anaconda3/envs/poltype2022/share/psi4/basis/6-311pgs.gbs 
    atoms 18              entry O          line   172 file /home/liuchw/anaconda3/envs/poltype2022/share/psi4/basis/6-311pgs.gbs 

   => WB97X-D: Empirical Dispersion <=

    Chai and Head-Gordon Dispersion Correction
    Chai, J.-D.; Head-Gordon, M. (2010), J. Chem. Phys., 132: 6615-6620

        s6 =       1.000000


         ---------------------------------------------------------
                                   SCF
               by Justin Turney, Rob Parrish, Andy Simmonett
                          and Daniel G. A. Smith
                              RKS Reference
                        5 Threads,  19073 MiB Core
         ---------------------------------------------------------

  ==> Geometry <==

    Molecular point group: c1
    Full point group: C1

    Geometry (in Angstrom), charge = 0, multiplicity = 1:

       Center              X                  Y                   Z               Mass       
    ------------   -----------------  -----------------  -----------------  -----------------
         H            0.523769087572     1.000295322436     0.169230069136     1.007825032230
         N            0.347654087572    -0.005156677564     0.059647069136    14.003074004430
         C            1.399547087572    -0.940882677564     0.156073069136    12.000000000000
         C            1.987249087572    -1.449269677564    -0.996207930864    12.000000000000
         C           -0.933757912428    -0.314032677564    -0.154653930864    12.000000000000
         C            1.879730087572    -1.322450677564     1.403475069136    12.000000000000
         C           -1.886508912428     0.659901322436    -0.248201930864    12.000000000000
         N           -2.749358912428     2.738056322436    -0.240020930864    14.003074004430
         C           -3.310065912428     0.580029322436    -0.434072930864    12.000000000000
         C           -1.560173912428     2.074793322436    -0.122101930864    12.000000000000
         C           -3.788911912428     1.839176322436    -0.426536930864    12.000000000000
         C            2.926617087572    -2.222190677564     1.494103069136    12.000000000000
         C            3.032198087572    -2.350730677564    -0.898233930864    12.000000000000
         C            3.502355087572    -2.738482677564     0.345186069136    12.000000000000
         H            1.426010087572    -0.911976677564     2.293218069136     1.007825032230
         H            1.614237087572    -1.138684677564    -1.960875930864     1.007825032230
         H           -2.849140912428     3.738079322436    -0.194180930864     1.007825032230
         O           -0.457782912428     2.594678322436     0.063276069136    15.994914619570
         H            3.294177087572    -2.520678677564     2.464595069136     1.007825032230
         H            3.484340087572    -2.746489677564    -1.795460930864     1.007825032230
         H           -3.871049912428    -0.324717677564    -0.558811930864     1.007825032230
         H           -4.795646912428     2.193445322436    -0.537214930864     1.007825032230
         H            4.319245087572    -3.440506677564     0.418935069136     1.007825032230
         H           -1.187154912428    -1.366569677564    -0.212354930864     1.007825032230

  Running in c1 symmetry.

  Rotational constants: A =      0.07856  B =      0.01009  C =      0.00980 [cm^-1]
  Rotational constants: A =   2355.27000  B =    302.42846  C =    293.78972 [MHz]
  Nuclear repulsion =  795.192243364710293

  Charge       = 0
  Multiplicity = 1
  Electrons    = 98
  Nalpha       = 49
  Nbeta        = 49

  ==> Algorithm <==

  SCF Algorithm Type is DF.
  DIIS enabled.
  MOM disabled.
  Fractional occupation disabled.
  Guess Type is SAD.
  Energy threshold   = 1.00e-06
  Density threshold  = 1.00e-06
  Integral threshold = 1.00e-12

  ==> Primary Basis <==

  Basis Set: 6-311+G*
    Blend: 6-311+G*
    Number of shells: 170
    Number of basis functions: 338
    Number of Cartesian functions: 352
    Spherical Harmonics?: true
    Max angular momentum: 2

  ==> DFT Potential <==

   => LibXC <=

    Version 5.1.5
    S. Lehtola, C. Steigemann, M. J. Oliveira, and M. A. Marques, SoftwareX 7, 1 (2018) (10.1016/j.softx.2017.11.002)

   => Composite Functional: WB97X-D <= 

    wB97X-D Hyb-GGA Exchange-Correlation Functional

    J.-D. Chai and M. Head-Gordon, Phys. Chem. Chem. Phys. 10, 6615 (2008) (10.1039/B810189B)

    Deriv               =              1
    GGA                 =           TRUE
    Meta                =          FALSE

    Exchange Hybrid     =           TRUE
    MP2 Hybrid          =          FALSE

   => Exchange-Correlation Functionals <=

    1.0000   wB97X-D range-separated functional

   => Exact (HF) Exchange <=

    0.7780            HF,LR [omega = 0.2000]
    0.2220               HF 

   => LibXC Density Thresholds  <==

    XC_HYB_GGA_XC_WB97X_D:  1.00E-14 

   => Molecular Quadrature <=

    Radial Scheme          =       TREUTLER
    Pruning Scheme         =           NONE
    Nuclear Scheme         =       TREUTLER

    Blocking Scheme        =         OCTREE
    BS radius alpha        =              1
    Pruning alpha          =              1
    Radial Points          =             75
    Spherical Points       =            302
    Total Points           =         504586
    Total Blocks           =           3662
    Max Points             =            256
    Max Functions          =            266
    Weights Tolerance      =       1.00E-15

   => Loading Basis Set <=

    Name: (6-311+G* AUX)
    Role: JKFIT
    Keyword: DF_BASIS_SCF
    atoms 1, 15-17, 19-24 entry H          line   116 file /home/liuchw/anaconda3/envs/poltype2022/share/psi4/basis/heavy-aug-cc-pvtz-jkfit.gbs 
    atoms 2, 8            entry N          line   262 file /home/liuchw/anaconda3/envs/poltype2022/share/psi4/basis/heavy-aug-cc-pvtz-jkfit.gbs 
    atoms 3-7, 9-14       entry C          line   200 file /home/liuchw/anaconda3/envs/poltype2022/share/psi4/basis/heavy-aug-cc-pvtz-jkfit.gbs 
    atoms 18              entry O          line   324 file /home/liuchw/anaconda3/envs/poltype2022/share/psi4/basis/heavy-aug-cc-pvtz-jkfit.gbs 

  ==> Integral Setup <==

  DFHelper Memory: AOs need 3.823 GiB; user supplied 11.015 GiB. Using in-core AOs.

  ==> MemDFJK: Density-Fitted J/K Matrices <==

    J tasked:                   Yes
    K tasked:                   Yes
    wK tasked:                  Yes
    Omega:                2.000E-01
    OpenMP threads:               5
    Memory [MiB]:             11279
    Algorithm:                 Core
    Schwarz Cutoff:           1E-12
    Mask sparsity (%):      15.8520
    Fitting Condition:        1E-10

   => Auxiliary Basis Set <=

  Basis Set: (6-311+G* AUX)
    Blend: HEAVY-AUG-CC-PVTZ-JKFIT
    Number of shells: 520
    Number of basis functions: 1756
    Number of Cartesian functions: 2184
    Spherical Harmonics?: true
    Max angular momentum: 4

  Cached 100.0% of DFT collocation blocks in 2.955 [GiB].

  Minimum eigenvalue in the overlap matrix is 1.3455910231E-06.
  Reciprocal condition number of the overlap matrix is 9.8193258305E-08.
    Using symmetric orthogonalization.

  ==> Pre-Iterations <==

  SCF Guess: Superposition of Atomic Densities via on-the-fly atomic UHF (no occupation information).

   -------------------------
    Irrep   Nso     Nmo    
   -------------------------
     A        338     338 
   -------------------------
    Total     338     338
   -------------------------

  ==> Iterations <==

                           Total Energy        Delta E     RMS |[F,P]|

   @DF-RKS iter SAD:  -609.51360872990097   -6.09514e+02   0.00000e+00 
   @DF-RKS iter   1:  -609.23225856469503    2.81350e-01   3.32182e-03 ADIIS/DIIS
   @DF-RKS iter   2:  -609.49858123443266   -2.66323e-01   2.66745e-03 ADIIS/DIIS
   @DF-RKS iter   3:  -609.83515105872868   -3.36570e-01   4.48943e-04 ADIIS/DIIS
   @DF-RKS iter   4:  -609.84260992552367   -7.45887e-03   1.94359e-04 ADIIS/DIIS
   @DF-RKS iter   5:  -609.84424507778454   -1.63515e-03   4.49459e-05 DIIS
   @DF-RKS iter   6:  -609.84433595156372   -9.08738e-05   1.52581e-05 DIIS
   @DF-RKS iter   7:  -609.84434837411038   -1.24225e-05   4.62166e-06 DIIS
   @DF-RKS iter   8:  -609.84434969292920   -1.31882e-06   1.78429e-06 DIIS
   @DF-RKS iter   9:  -609.84435002753185   -3.34603e-07   6.13673e-07 DIIS
  Energy and wave function converged.


  ==> Post-Iterations <==

   Electrons on quadrature grid:
      Ntotal   =   98.0000090643 ; deviation = 9.064e-06 

    Orbital Energies [Eh]
    ---------------------

    Doubly Occupied:                                                      

       1A    -19.203055     2A    -14.466267     3A    -14.460836  
       4A    -10.371117     5A    -10.350602     6A    -10.339538  
       7A    -10.309807     8A    -10.301229     9A    -10.301102  
      10A    -10.300653    11A    -10.300474    12A    -10.299698  
      13A    -10.273794    14A    -10.273081    15A     -1.135553  
      16A     -1.072640    17A     -1.055410    18A     -0.974824  
      19A     -0.903018    20A     -0.866868    21A     -0.861264  
      22A     -0.814799    23A     -0.765378    24A     -0.722360  
      25A     -0.716067    26A     -0.683919    27A     -0.680766  
      28A     -0.642151    29A     -0.602321    30A     -0.586220  
      31A     -0.579060    32A     -0.568490    33A     -0.542424  
      34A     -0.527530    35A     -0.525329    36A     -0.515176  
      37A     -0.509720    38A     -0.495875    39A     -0.479948  
      40A     -0.474567    41A     -0.459833    42A     -0.455175  
      43A     -0.432353    44A     -0.409999    45A     -0.351692  
      46A     -0.347738    47A     -0.334033    48A     -0.328507  
      49A     -0.257893  

    Virtual:                                                              

      50A      0.024676    51A      0.041946    52A      0.047546  
      53A      0.056624    54A      0.064685    55A      0.072211  
      56A      0.075530    57A      0.080530    58A      0.090307  
      59A      0.096545    60A      0.097756    61A      0.106462  
      62A      0.111512    63A      0.112455    64A      0.118478  
      65A      0.121575    66A      0.132988    67A      0.138009  
      68A      0.146359    69A      0.147912    70A      0.153473  
      71A      0.158808    72A      0.172362    73A      0.178984  
      74A      0.187572    75A      0.188308    76A      0.190903  
      77A      0.194685    78A      0.197012    79A      0.197641  
      80A      0.205108    81A      0.207791    82A      0.212734  
      83A      0.216310    84A      0.221711    85A      0.223303  
      86A      0.230454    87A      0.235524    88A      0.238101  
      89A      0.245874    90A      0.248087    91A      0.249719  
      92A      0.251852    93A      0.257465    94A      0.258575  
      95A      0.261045    96A      0.265128    97A      0.275779  
      98A      0.277870    99A      0.285027   100A      0.286131  
     101A      0.288122   102A      0.297472   103A      0.298791  
     104A      0.303015   105A      0.309369   106A      0.314623  
     107A      0.315475   108A      0.318793   109A      0.326954  
     110A      0.332546   111A      0.334902   112A      0.347780  
     113A      0.352832   114A      0.358160   115A      0.366973  
     116A      0.371531   117A      0.388473   118A      0.391433  
     119A      0.396556   120A      0.405638   121A      0.411400  
     122A      0.418059   123A      0.422341   124A      0.424240  
     125A      0.430724   126A      0.445074   127A      0.447781  
     128A      0.468659   129A      0.477613   130A      0.496203  
     131A      0.520993   132A      0.541204   133A      0.544232  
     134A      0.568687   135A      0.582057   136A      0.595890  
     137A      0.604153   138A      0.606262   139A      0.613679  
     140A      0.618638   141A      0.626823   142A      0.631373  
     143A      0.643622   144A      0.645535   145A      0.651293  
     146A      0.657458   147A      0.677759   148A      0.685771  
     149A      0.689505   150A      0.698369   151A      0.715411  
     152A      0.720060   153A      0.736039   154A      0.748284  
     155A      0.755757   156A      0.764139   157A      0.769690  
     158A      0.773246   159A      0.780035   160A      0.785585  
     161A      0.802170   162A      0.818795   163A      0.823424  
     164A      0.833377   165A      0.838219   166A      0.847061  
     167A      0.858758   168A      0.863424   169A      0.876825  
     170A      0.904550   171A      0.909696   172A      0.913323  
     173A      0.918293   174A      0.922161   175A      0.932822  
     176A      0.935279   177A      0.942354   178A      0.945859  
     179A      0.955649   180A      0.980477   181A      0.982401  
     182A      0.988509   183A      1.004435   184A      1.042795  
     185A      1.050396   186A      1.056568   187A      1.073598  
     188A      1.081668   189A      1.093450   190A      1.103849  
     191A      1.108925   192A      1.140896   193A      1.147785  
     194A      1.170621   195A      1.189281   196A      1.197917  
     197A      1.204356   198A      1.237489   199A      1.246619  
     200A      1.256690   201A      1.271823   202A      1.277800  
     203A      1.305051   204A      1.322040   205A      1.336777  
     206A      1.350253   207A      1.376039   208A      1.381179  
     209A      1.403565   210A      1.417284   211A      1.447015  
     212A      1.450226   213A      1.529872   214A      1.571998  
     215A      1.579456   216A      1.588364   217A      1.598506  
     218A      1.613348   219A      1.661095   220A      1.685829  
     221A      1.727382   222A      1.733208   223A      1.804775  
     224A      1.813666   225A      1.834833   226A      1.859560  
     227A      1.862251   228A      1.875876   229A      1.883973  
     230A      1.894604   231A      1.896774   232A      1.906551  
     233A      1.938729   234A      1.945828   235A      1.984252  
     236A      2.002636   237A      2.005041   238A      2.019793  
     239A      2.039502   240A      2.047240   241A      2.071313  
     242A      2.079430   243A      2.098579   244A      2.105773  
     245A      2.114955   246A      2.174735   247A      2.185627  
     248A      2.268807   249A      2.328148   250A      2.333482  
     251A      2.338255   252A      2.348333   253A      2.366994  
     254A      2.383443   255A      2.386911   256A      2.470384  
     257A      2.476223   258A      2.491661   259A      2.494993  
     260A      2.500205   261A      2.517620   262A      2.534935  
     263A      2.593983   264A      2.657750   265A      2.692961  
     266A      2.734603   267A      2.779102   268A      2.783433  
     269A      2.797897   270A      2.816094   271A      2.825418  
     272A      2.840310   273A      2.862376   274A      2.886431  
     275A      2.895056   276A      2.908073   277A      2.948194  
     278A      2.970723   279A      2.991801   280A      3.002072  
     281A      3.023929   282A      3.055317   283A      3.104262  
     284A      3.107948   285A      3.132989   286A      3.165057  
     287A      3.178301   288A      3.226331   289A      3.240689  
     290A      3.316486   291A      3.394982   292A      3.404177  
     293A      3.408320   294A      3.417310   295A      3.445598  
     296A      3.445828   297A      3.465758   298A      3.477207  
     299A      3.499301   300A      3.555213   301A      3.568360  
     302A      3.605986   303A      3.635950   304A      3.659095  
     305A      3.689603   306A      3.715361   307A      3.781382  
     308A      3.864063   309A      3.908817   310A      3.987450  
     311A      4.021764   312A      4.081172   313A      4.118137  
     314A      4.152700   315A      4.306049   316A      4.355047  
     317A      4.635970   318A      4.665137   319A      4.891773  
     320A      5.134802   321A      5.202757   322A      5.207164  
     323A      5.413490   324A      5.924843   325A     23.483892  
     326A     23.684773   327A     23.918629   328A     23.981998  
     329A     24.025298   330A     24.066326   331A     24.185723  
     332A     24.198571   333A     24.256120   334A     24.305978  
     335A     24.312363   336A     35.667564   337A     35.721133  
     338A     50.215557  

    Final Occupation by Irrep:
              A 
    DOCC [    49 ]

  @DF-RKS Final Energy:  -609.84435002753185

   => Energetics <=

    Nuclear Repulsion Energy =            795.1922433647102935
    One-Electron Energy =               -2403.2941307902456174
    Two-Electron Energy =                1057.6025488015416158
    DFT Exchange-Correlation Energy =     -59.3324204796662897
    Empirical Dispersion Energy =          -0.0125909238716869
    VV10 Nonlocal Energy =                  0.0000000000000000
    Total Energy =                       -609.8443500275317319

Computation Completed


Properties will be evaluated at   0.000000,   0.000000,   0.000000 [a0]

Properties computed using the SCF density matrix


 Multipole Moments:

 ------------------------------------------------------------------------------------
     Multipole            Electronic (a.u.)      Nuclear  (a.u.)        Total (a.u.)
 ------------------------------------------------------------------------------------

 L = 1.  Multiply by 2.5417464519 to convert [e a0] to [Debye]
 Dipole X            :         -1.9818595            1.8410781           -0.1407814
 Dipole Y            :          4.1674820           -5.1682430           -1.0007610
 Dipole Z            :         -0.1138838            0.0824616           -0.0314223
 Magnitude           :                                                    1.0111030

 ------------------------------------------------------------------------------------

*** tstop() called on node165.bme.utexas.edu at Sat Nov 18 08:41:27 2023
Module time:
	user time   =     122.99 seconds =       2.05 minutes
	system time =      10.29 seconds =       0.17 minutes
	total time  =         35 seconds =       0.58 minutes
Total time:
	user time   =     122.99 seconds =       2.05 minutes
	system time =      10.29 seconds =       0.17 minutes
	total time  =         35 seconds =       0.58 minutes


Properties will be evaluated at   0.000000,   0.000000,   0.000000 [a0]
OEProp: No title given, name of density matrix used for the following properties is 'SCF density'


  Wiberg Bond Indices using Orthogonal Lowdin Orbitals:

  Irrep: 1 Size: 24 x 24

                 1                   2                   3                   4                   5

    1     0.00000000000000     0.72060977922851     0.03754032442012     0.01059880906160     0.04218245818909
    2     0.72060977922851     0.00000000000000     1.15835127319738     0.12958064229464     1.49569304959992
    3     0.03754032442012     1.15835127319738     0.00000000000000     1.42696386242928     0.12244662220861
    4     0.01059880906160     0.12958064229464     1.42696386242928     0.00000000000000     0.04022803136551
    5     0.04218245818909     1.49569304959992     0.12244662220861     0.04022803136551     0.00000000000000
    6     0.01064448636728     0.13088570703213     1.42634431009189     0.13193086288977     0.03431020192399
    7     0.01451247028357     0.19784463293571     0.02325249185292     0.00665363702362     1.53176819902748
    8     0.00130142138983     0.00601556273273     0.00079882948550     0.00024419911355     0.01915506956829
    9     0.00137568567604     0.02362575315468     0.00301027535449     0.00086495799786     0.12542131370983
   10     0.01297958570984     0.06829388564924     0.00676256632142     0.00230016524774     0.13795910526930
   11     0.00050132010890     0.03076858087186     0.00253795832805     0.00115338515281     0.07614582169134
   12     0.00070640604959     0.01673910933530     0.13862936321955     0.14607734393872     0.00402638779334
   13     0.00075461971324     0.01660154317827     0.13819846908622     1.52225723406387     0.00436156360388
   14     0.00293204577991     0.00975392880653     0.14010582418280     0.14056503536768     0.00507959588632
   15     0.00012010703136     0.01841174965262     0.05732702550682     0.00975028495343     0.00435431806842
   16     0.00003981054205     0.01825090563117     0.05703783102296     0.81381942438655     0.00608466404771
   17     0.00012443244105     0.00030442987928     0.00012054438397     0.00004999148538     0.00153049272878
   18     0.05985797222263     0.11469669559453     0.01066697360489     0.00234567474823     0.08462999809189
   19     0.00006806186270     0.00089834917214     0.01078258787088     0.00244663451673     0.00035379901442
   20     0.00010815169839     0.00089480995168     0.01077278707118     0.06104701355364     0.00031096292539
   21     0.00008921480702     0.00035810174793     0.00012662959763     0.00005285434615     0.01280989961261
   22     0.00020794440478     0.00039215561490     0.00012544681668     0.00003837250249     0.00191213144185
   23     0.00002567030709     0.00023126640064     0.00305548264008     0.01139024312394     0.00005289130196
   24     0.00686868145987     0.05082307432778     0.01990407910590     0.00621907066944     0.80236333708594

                 6                   7                   8                   9                  10

    1     0.01064448636728     0.01451247028357     0.00130142138983     0.00137568567604     0.01297958570984
    2     0.13088570703213     0.19784463293571     0.00601556273273     0.02362575315468     0.06829388564924
    3     1.42634431009189     0.02325249185292     0.00079882948550     0.00301027535449     0.00676256632142
    4     0.13193086288977     0.00665363702362     0.00024419911355     0.00086495799786     0.00230016524774
    5     0.03431020192399     1.53176819902748     0.01915506956829     0.12542131370983     0.13795910526930
    6     0.00000000000000     0.00627629434930     0.00022147173422     0.00080160626877     0.00217784634941
    7     0.00627629434930     0.00000000000000     0.13439404841245     1.17656982649691     1.08582121927507
    8     0.00022147173422     0.13439404841245     0.00000000000000     0.19942177122753     1.34396297825785
    9     0.00080160626877     1.17656982649691     0.19942177122753     0.00000000000000     0.13891381080637
   10     0.00217784634941     1.08582121927507     1.34396297825785     0.13891381080637     0.00000000000000
   11     0.00123458731026     0.17232417477743     1.27759836338967     1.79740469206420     0.14468735170215
   12     1.52425040593115     0.00099626363713     0.00003184532703     0.00013538592979     0.00034742848484
   13     0.14645886822082     0.00111177682668     0.00003551079300     0.00014030110186     0.00037032936768
   14     0.14054048774375     0.00075349201644     0.00005052205741     0.00011817044598     0.00029961399399
   15     0.81511291584054     0.00060637197509     0.00001304153802     0.00005453487203     0.00018469582838
   16     0.00958241876954     0.00068350858108     0.00002308580904     0.00006546851898     0.00016345044261
   17     0.00004037572045     0.01183940533514     0.80587492112169     0.01097039003612     0.04406650317897
   18     0.00249347581599     0.14406726799443     0.21632637674774     0.02286080949189     2.07722626980095
   19     0.06104915592010     0.00011785995399     0.00000340671475     0.00002623257074     0.00005355562494
   20     0.00244250829384     0.00012293437760     0.00000362411500     0.00002503581169     0.00006272676025
   21     0.00005019232128     0.05280512282480     0.01152117797147     0.82971357787903     0.01073572242942
   22     0.00004040930087     0.01395751719159     0.05650768687826     0.05842519373423     0.01256997070501
   23     0.01138747222721     0.00001746132867     0.00000143433748     0.00000439500766     0.00000878678834
   24     0.00447887202158     0.05704853298259     0.00114360651591     0.01277805989468     0.01007436338873

                11                  12                  13                  14                  15

    1     0.00050132010890     0.00070640604959     0.00075461971324     0.00293204577991     0.00012010703136
    2     0.03076858087186     0.01673910933530     0.01660154317827     0.00975392880653     0.01841174965262
    3     0.00253795832805     0.13862936321955     0.13819846908622     0.14010582418280     0.05732702550682
    4     0.00115338515281     0.14607734393872     1.52225723406387     0.14056503536768     0.00975028495343
    5     0.07614582169134     0.00402638779334     0.00436156360388     0.00507959588632     0.00435431806842
    6     0.00123458731026     1.52425040593115     0.14645886822082     0.14054048774375     0.81511291584054
    7     0.17232417477743     0.00099626363713     0.00111177682668     0.00075349201644     0.00060637197509
    8     1.27759836338967     0.00003184532703     0.00003551079300     0.00005052205741     0.00001304153802
    9     1.79740469206420     0.00013538592979     0.00014030110186     0.00011817044598     0.00005453487203
   10     0.14468735170215     0.00034742848484     0.00037032936768     0.00029961399399     0.00018469582838
   11     0.00000000000000     0.00020800934586     0.00023328434801     0.00015382586093     0.00006170006825
   12     0.00020800934586     0.00000000000000     0.13943655331617     1.52072550423858     0.05734548436315
   13     0.00023328434801     0.13943655331617     0.00000000000000     1.52247601266378     0.00257873986611
   14     0.00015382586093     1.52072550423858     1.52247601266378     0.00000000000000     0.01104941406857
   15     0.00006170006825     0.05734548436315     0.00257873986611     0.01104941406857     0.00000000000000
   16     0.00002739492736     0.00255086656926     0.05708600017454     0.01100116504707     0.00037859926452
   17     0.04268389602080     0.00000729921138     0.00000872014863     0.00000645578158     0.00000041409443
   18     0.02503207230142     0.00031107826075     0.00035364932722     0.00075854336255     0.00009535461414
   19     0.00003030469187     0.83162961166116     0.01140353683726     0.05979226956176     0.00532288007352
   20     0.00003690936187     0.01141684611644     0.83160343809791     0.05980007859625     0.00025725588343
   21     0.06196994171943     0.00001188170851     0.00001263780935     0.00000779654956     0.00000919201562
   22     0.83388830534017     0.00000749143632     0.00000782219684     0.00000889746770     0.00000368582278
   23     0.00000219945567     0.05974279163669     0.05976179602583     0.83333904426970     0.00022400045007
   24     0.00128885112928     0.00040603722500     0.00051678638004     0.00040703258730     0.00005597183423

                16                  17                  18                  19                  20

    1     0.00003981054205     0.00012443244105     0.05985797222263     0.00006806186270     0.00010815169839
    2     0.01825090563117     0.00030442987928     0.11469669559453     0.00089834917214     0.00089480995168
    3     0.05703783102296     0.00012054438397     0.01066697360489     0.01078258787088     0.01077278707118
    4     0.81381942438655     0.00004999148538     0.00234567474823     0.00244663451673     0.06104701355364
    5     0.00608466404771     0.00153049272878     0.08462999809189     0.00035379901442     0.00031096292539
    6     0.00958241876954     0.00004037572045     0.00249347581599     0.06104915592010     0.00244250829384
    7     0.00068350858108     0.01183940533514     0.14406726799443     0.00011785995399     0.00012293437760
    8     0.00002308580904     0.80587492112169     0.21632637674774     0.00000340671475     0.00000362411500
    9     0.00006546851898     0.01097039003612     0.02286080949189     0.00002623257074     0.00002503581169
   10     0.00016345044261     0.04406650317897     2.07722626980095     0.00005355562494     0.00006272676025
   11     0.00002739492736     0.04268389602080     0.02503207230142     0.00003030469187     0.00003690936187
   12     0.00255086656926     0.00000729921138     0.00031107826075     0.83162961166116     0.01141684611644
   13     0.05708600017454     0.00000872014863     0.00035364932722     0.01140353683726     0.83160343809791
   14     0.01100116504707     0.00000645578158     0.00075854336255     0.05979226956176     0.05980007859625
   15     0.00037859926452     0.00000041409443     0.00009535461414     0.00532288007352     0.00025725588343
   16     0.00000000000000     0.00000058453618     0.00007555576678     0.00025395522053     0.00531245045779
   17     0.00000058453618     0.00000000000000     0.01002132474167     0.00000053890062     0.00000050111561
   18     0.00007555576678     0.01002132474167     0.00000000000000     0.00002957679460     0.00004124724355
   19     0.00025395522053     0.00000053890062     0.00002957679460     0.00000000000000     0.00025951758601
   20     0.00531245045779     0.00000050111561     0.00004124724355     0.00025951758601     0.00000000000000
   21     0.00000902127499     0.00040862394266     0.00210309303608     0.00000063187819     0.00000072744341
   22     0.00000504776575     0.00317790512541     0.00163941176840     0.00000137553305     0.00000098561385
   23     0.00022430976114     0.00000030299395     0.00000731536059     0.00540240951409     0.00540396181235
   24     0.00019820969997     0.00055422885991     0.00112821462335     0.00003333141314     0.00003417185164

                21                  22                  23                  24

    1     0.00008921480702     0.00020794440478     0.00002567030709     0.00686868145987
    2     0.00035810174793     0.00039215561490     0.00023126640064     0.05082307432778
    3     0.00012662959763     0.00012544681668     0.00305548264008     0.01990407910590
    4     0.00005285434615     0.00003837250249     0.01139024312394     0.00621907066944
    5     0.01280989961261     0.00191213144185     0.00005289130196     0.80236333708594
    6     0.00005019232128     0.00004040930087     0.01138747222721     0.00447887202158
    7     0.05280512282480     0.01395751719159     0.00001746132867     0.05704853298259
    8     0.01152117797147     0.05650768687826     0.00000143433748     0.00114360651591
    9     0.82971357787903     0.05842519373423     0.00000439500766     0.01277805989468
   10     0.01073572242942     0.01256997070501     0.00000878678834     0.01007436338873
   11     0.06196994171943     0.83388830534017     0.00000219945567     0.00128885112928
   12     0.00001188170851     0.00000749143632     0.05974279163669     0.00040603722500
   13     0.00001263780935     0.00000782219684     0.05976179602583     0.00051678638004
   14     0.00000779654956     0.00000889746770     0.83333904426970     0.00040703258730
   15     0.00000919201562     0.00000368582278     0.00022400045007     0.00005597183423
   16     0.00000902127499     0.00000504776575     0.00022430976114     0.00019820969997
   17     0.00040862394266     0.00317790512541     0.00000030299395     0.00055422885991
   18     0.00210309303608     0.00163941176840     0.00000731536059     0.00112821462335
   19     0.00000063187819     0.00000137553305     0.00540240951409     0.00003333141314
   20     0.00000072744341     0.00000098561385     0.00540396181235     0.00003417185164
   21     0.00000000000000     0.00255651331776     0.00000018571351     0.00024331144160
   22     0.00255651331776     0.00000000000000     0.00000029880404     0.00010121283951
   23     0.00000018571351     0.00000029880404     0.00000000000000     0.00001538367013
   24     0.00024331144160     0.00010121283951     0.00001538367013     0.00000000000000



  Atomic Valences: 

 #  #
 Irrep: 1
      1:    0.924149458754463
      2:    4.210024985989541
      3:    4.794861557799207
      4:    4.466577730232650
      5:    4.553179914155861
      6:    4.462754932444136
      7:    4.633544509459686
      8:    4.074649955238420
      9:    4.402727248051341
     10:    5.100021931382491
     11:    4.469972929967564
     12:    4.455739394735692
     13:    4.455769193147176
     14:    4.459724756336134
     15:    0.983317737685520
     16:    0.982873728217553
     17:    0.931792281783627
     18:    2.776767951314290
     19:    0.989959582887183
     20:    0.989958645738763
     21:    0.985596051388032
     22:    0.985575781622238
     23:    0.990299102930815
     24:    0.976684421007506


    Psi4 stopped on: Saturday, 18 November 2023 08:41AM
    Psi4 wall time for execution: 0:00:35.19

*** Psi4 exiting successfully. Buy a developer a beer!
