
    -----------------------------------------------------------------------
          Psi4: An Open-Source Ab Initio Electronic Structure Package
                               Psi4 1.6 release

                         Git: Rev {HEAD} 77475b5 


    D. G. A. Smith, L. A. Burns, A. C. Simmonett, R. M. Parrish,
    M. C. Schieber, R. Galvelis, P. Kraus, H. Kruse, R. Di Remigio,
    A. Alenaizan, A. M. James, S. Lehtola, J. P. Misiewicz, M. Scheurer,
    R. A. Shaw, J. B. Schriber, Y. Xie, Z. L. Glick, D. A. Sirianni,
    J. S. O'Brien, J. M. Waldrop, A. Kumar, E. G. Hohenstein,
    B. P. Pritchard, B. R. Brooks, H. F. Schaefer III, A. Yu. Sokolov,
    K. Patkowski, A. E. DePrince III, U. Bozkaya, R. A. King,
    F. A. Evangelista, J. M. Turney, T. D. Crawford, C. D. Sherrill,
    J. Chem. Phys. 152(18) 184108 (2020). https://doi.org/10.1063/5.0006002

                            Additional Code Authors
    E. T. Seidl, C. L. Janssen, E. F. Valeev, M. L. Leininger,
    J. F. Gonthier, R. M. Richard, H. R. McAlexander, M. Saitow, X. Wang,
    P. Verma, M. H. Lechner, and A. Jiang

             Previous Authors, Complete List of Code Contributors,
                       and Citations for Specific Modules
    https://github.com/psi4/psi4/blob/master/codemeta.json
    https://github.com/psi4/psi4/graphs/contributors
    http://psicode.org/psi4manual/master/introduction.html#citing-psifour

    -----------------------------------------------------------------------


    Psi4 started on: Saturday, 18 November 2023 08:38AM

    Process ID: 1131080
    Host:       node165.bme.utexas.edu
    PSIDATADIR: /home/liuchw/anaconda3/envs/poltype2022/share/psi4
    Memory:     500.0 MiB
    Threads:    1
    
  ==> Input File <==

--------------------------------------------------------------------------
molecule { 
0 1
 H   -0.316657   -0.256945   -1.196304
 N    0.076514   -0.279256   -0.249032
 C    1.224467   -1.039114    0.037437
 C    2.426097   -0.409758    0.344711
 C   -0.582559    0.475510    0.635424
 C    1.181149   -2.424804   -0.076745
 C   -1.698414    1.173852    0.273455
 N   -3.322283    1.958765   -1.072876
 C   -2.540853    2.067145    1.021693
 C   -2.232233    1.134099   -1.083241
 C   -3.498440    2.513412    0.185881
 C    2.319318   -3.172707    0.162472
 C    3.559380   -1.164790    0.587436
 C    3.507951   -2.545741    0.498917
 H    0.251712   -2.903672   -0.346044
 H    2.458101    0.668234    0.405752
 H   -3.904542    2.140394   -1.872940
 O   -1.809025    0.508165   -2.056627
 H    2.279320   -4.248932    0.083744
 H    4.488504   -0.672217    0.832943
 H   -2.417467    2.317331    2.056557
 H   -4.308691    3.192847    0.367970
 H    4.394913   -3.132521    0.684488
 H   -0.170507    0.539683    1.636212
}
memory 20GB
set_num_threads(5)
psi4_io.set_default_path("/scratch/liuchw/Psi4-1_16_Index_0-farH_in17")
set freeze_core True
E, wfn = energy('wb97x-d/6-311+G*',return_wfn=True)
oeprop(wfn,"WIBERG_LOWDIN_INDICES")
clean()
--------------------------------------------------------------------------

  Memory set to  18.626 GiB by Python driver.
  Threads set to 5 by Python driver.

Scratch directory: /scratch/liuchw/Psi4-1_16_Index_0-farH_in17/

*** tstart() called on node165.bme.utexas.edu
*** at Sat Nov 18 08:38:08 2023

   => Loading Basis Set <=

    Name: 6-311+G*
    Role: ORBITAL
    Keyword: BASIS
    atoms 1, 15-17, 19-24 entry H          line    47 file /home/liuchw/anaconda3/envs/poltype2022/share/psi4/basis/6-311pgs.gbs 
    atoms 2, 8            entry N          line   151 file /home/liuchw/anaconda3/envs/poltype2022/share/psi4/basis/6-311pgs.gbs 
    atoms 3-7, 9-14       entry C          line   130 file /home/liuchw/anaconda3/envs/poltype2022/share/psi4/basis/6-311pgs.gbs 
    atoms 18              entry O          line   172 file /home/liuchw/anaconda3/envs/poltype2022/share/psi4/basis/6-311pgs.gbs 

   => WB97X-D: Empirical Dispersion <=

    Chai and Head-Gordon Dispersion Correction
    Chai, J.-D.; Head-Gordon, M. (2010), J. Chem. Phys., 132: 6615-6620

        s6 =       1.000000


         ---------------------------------------------------------
                                   SCF
               by Justin Turney, Rob Parrish, Andy Simmonett
                          and Daniel G. A. Smith
                              RKS Reference
                        5 Threads,  19073 MiB Core
         ---------------------------------------------------------

  ==> Geometry <==

    Molecular point group: c1
    Full point group: C1

    Geometry (in Angstrom), charge = 0, multiplicity = 1:

       Center              X                  Y                   Z               Mass       
    ------------   -----------------  -----------------  -----------------  -----------------
         H           -0.168229181866    -0.195451653920    -1.101269599901     1.007825032230
         N            0.224941818134    -0.217762653920    -0.153997599901    14.003074004430
         C            1.372894818134    -0.977620653920     0.132471400099    12.000000000000
         C            2.574524818134    -0.348264653920     0.439745400099    12.000000000000
         C           -0.434131181866     0.537003346080     0.730458400099    12.000000000000
         C            1.329576818134    -2.363310653920     0.018289400099    12.000000000000
         C           -1.549986181866     1.235345346080     0.368489400099    12.000000000000
         N           -3.173855181866     2.020258346080    -0.977841599901    14.003074004430
         C           -2.392425181866     2.128638346080     1.116727400099    12.000000000000
         C           -2.083805181866     1.195592346080    -0.988206599901    12.000000000000
         C           -3.350012181866     2.574905346080     0.280915400099    12.000000000000
         C            2.467745818134    -3.111213653920     0.257506400099    12.000000000000
         C            3.707807818134    -1.103296653920     0.682470400099    12.000000000000
         C            3.656378818134    -2.484247653920     0.593951400099    12.000000000000
         H            0.400139818134    -2.842178653920    -0.251009599901     1.007825032230
         H            2.606528818134     0.729727346080     0.500786400099     1.007825032230
         H           -3.756114181866     2.201887346080    -1.777905599901     1.007825032230
         O           -1.660597181866     0.569658346080    -1.961592599901    15.994914619570
         H            2.427747818134    -4.187438653920     0.178778400099     1.007825032230
         H            4.636931818134    -0.610723653920     0.927977400099     1.007825032230
         H           -2.269039181866     2.378824346080     2.151591400099     1.007825032230
         H           -4.160263181866     3.254340346080     0.463004400099     1.007825032230
         H            4.543340818134    -3.071027653920     0.779522400099     1.007825032230
         H           -0.022079181866     0.601176346080     1.731246400099     1.007825032230

  Running in c1 symmetry.

  Rotational constants: A =      0.07863  B =      0.01024  C =      0.00966 [cm^-1]
  Rotational constants: A =   2357.26916  B =    306.86707  C =    289.55272 [MHz]
  Nuclear repulsion =  795.338971795735915

  Charge       = 0
  Multiplicity = 1
  Electrons    = 98
  Nalpha       = 49
  Nbeta        = 49

  ==> Algorithm <==

  SCF Algorithm Type is DF.
  DIIS enabled.
  MOM disabled.
  Fractional occupation disabled.
  Guess Type is SAD.
  Energy threshold   = 1.00e-06
  Density threshold  = 1.00e-06
  Integral threshold = 1.00e-12

  ==> Primary Basis <==

  Basis Set: 6-311+G*
    Blend: 6-311+G*
    Number of shells: 170
    Number of basis functions: 338
    Number of Cartesian functions: 352
    Spherical Harmonics?: true
    Max angular momentum: 2

  ==> DFT Potential <==

   => LibXC <=

    Version 5.1.5
    S. Lehtola, C. Steigemann, M. J. Oliveira, and M. A. Marques, SoftwareX 7, 1 (2018) (10.1016/j.softx.2017.11.002)

   => Composite Functional: WB97X-D <= 

    wB97X-D Hyb-GGA Exchange-Correlation Functional

    J.-D. Chai and M. Head-Gordon, Phys. Chem. Chem. Phys. 10, 6615 (2008) (10.1039/B810189B)

    Deriv               =              1
    GGA                 =           TRUE
    Meta                =          FALSE

    Exchange Hybrid     =           TRUE
    MP2 Hybrid          =          FALSE

   => Exchange-Correlation Functionals <=

    1.0000   wB97X-D range-separated functional

   => Exact (HF) Exchange <=

    0.7780            HF,LR [omega = 0.2000]
    0.2220               HF 

   => LibXC Density Thresholds  <==

    XC_HYB_GGA_XC_WB97X_D:  1.00E-14 

   => Molecular Quadrature <=

    Radial Scheme          =       TREUTLER
    Pruning Scheme         =           NONE
    Nuclear Scheme         =       TREUTLER

    Blocking Scheme        =         OCTREE
    BS radius alpha        =              1
    Pruning alpha          =              1
    Radial Points          =             75
    Spherical Points       =            302
    Total Points           =         504751
    Total Blocks           =           3687
    Max Points             =            256
    Max Functions          =            265
    Weights Tolerance      =       1.00E-15

   => Loading Basis Set <=

    Name: (6-311+G* AUX)
    Role: JKFIT
    Keyword: DF_BASIS_SCF
    atoms 1, 15-17, 19-24 entry H          line   116 file /home/liuchw/anaconda3/envs/poltype2022/share/psi4/basis/heavy-aug-cc-pvtz-jkfit.gbs 
    atoms 2, 8            entry N          line   262 file /home/liuchw/anaconda3/envs/poltype2022/share/psi4/basis/heavy-aug-cc-pvtz-jkfit.gbs 
    atoms 3-7, 9-14       entry C          line   200 file /home/liuchw/anaconda3/envs/poltype2022/share/psi4/basis/heavy-aug-cc-pvtz-jkfit.gbs 
    atoms 18              entry O          line   324 file /home/liuchw/anaconda3/envs/poltype2022/share/psi4/basis/heavy-aug-cc-pvtz-jkfit.gbs 

  ==> Integral Setup <==

  DFHelper Memory: AOs need 3.821 GiB; user supplied 11.016 GiB. Using in-core AOs.

  ==> MemDFJK: Density-Fitted J/K Matrices <==

    J tasked:                   Yes
    K tasked:                   Yes
    wK tasked:                  Yes
    Omega:                2.000E-01
    OpenMP threads:               5
    Memory [MiB]:             11280
    Algorithm:                 Core
    Schwarz Cutoff:           1E-12
    Mask sparsity (%):      15.8993
    Fitting Condition:        1E-10

   => Auxiliary Basis Set <=

  Basis Set: (6-311+G* AUX)
    Blend: HEAVY-AUG-CC-PVTZ-JKFIT
    Number of shells: 520
    Number of basis functions: 1756
    Number of Cartesian functions: 2184
    Spherical Harmonics?: true
    Max angular momentum: 4

  Cached 100.0% of DFT collocation blocks in 2.954 [GiB].

  Minimum eigenvalue in the overlap matrix is 1.2578371324E-06.
  Reciprocal condition number of the overlap matrix is 9.1742822249E-08.
    Using symmetric orthogonalization.

  ==> Pre-Iterations <==

  SCF Guess: Superposition of Atomic Densities via on-the-fly atomic UHF (no occupation information).

   -------------------------
    Irrep   Nso     Nmo    
   -------------------------
     A        338     338 
   -------------------------
    Total     338     338
   -------------------------

  ==> Iterations <==

                           Total Energy        Delta E     RMS |[F,P]|

   @DF-RKS iter SAD:  -609.52308512210755   -6.09523e+02   0.00000e+00 
   @DF-RKS iter   1:  -609.23269345179494    2.90392e-01   3.32316e-03 ADIIS/DIIS
   @DF-RKS iter   2:  -609.49822543406833   -2.65532e-01   2.67202e-03 ADIIS/DIIS
   @DF-RKS iter   3:  -609.83609408662812   -3.37869e-01   4.51487e-04 ADIIS/DIIS
   @DF-RKS iter   4:  -609.84367545812563   -7.58137e-03   1.94434e-04 ADIIS/DIIS
   @DF-RKS iter   5:  -609.84531611221303   -1.64065e-03   4.50901e-05 DIIS
   @DF-RKS iter   6:  -609.84540763012217   -9.15179e-05   1.53714e-05 DIIS
   @DF-RKS iter   7:  -609.84542024121947   -1.26111e-05   4.67455e-06 DIIS
   @DF-RKS iter   8:  -609.84542159871853   -1.35750e-06   1.77681e-06 DIIS
   @DF-RKS iter   9:  -609.84542193775656   -3.39038e-07   6.08967e-07 DIIS
  Energy and wave function converged.


  ==> Post-Iterations <==

   Electrons on quadrature grid:
      Ntotal   =   98.0000134672 ; deviation = 1.347e-05 

    Orbital Energies [Eh]
    ---------------------

    Doubly Occupied:                                                      

       1A    -19.204191     2A    -14.468239     3A    -14.461712  
       4A    -10.372356     5A    -10.351264     6A    -10.340087  
       7A    -10.310889     8A    -10.300891     9A    -10.300231  
      10A    -10.300125    11A    -10.299192    12A    -10.298150  
      13A    -10.275205    14A    -10.273936    15A     -1.136732  
      16A     -1.074642    17A     -1.056461    18A     -0.974101  
      19A     -0.903980    20A     -0.866418    21A     -0.861233  
      22A     -0.815498    23A     -0.766756    24A     -0.724277  
      25A     -0.715003    26A     -0.683645    27A     -0.681091  
      28A     -0.642469    29A     -0.602566    30A     -0.586780  
      31A     -0.581197    32A     -0.565612    33A     -0.542331  
      34A     -0.528257    35A     -0.525077    36A     -0.516032  
      37A     -0.510745    38A     -0.496634    39A     -0.480792  
      40A     -0.477680    41A     -0.458448    42A     -0.454994  
      43A     -0.433673    44A     -0.411087    45A     -0.355053  
      46A     -0.347145    47A     -0.335471    48A     -0.324838  
      49A     -0.258149  

    Virtual:                                                              

      50A      0.021927    51A      0.043560    52A      0.049682  
      53A      0.057173    54A      0.064317    55A      0.071304  
      56A      0.076902    57A      0.081130    58A      0.090734  
      59A      0.096306    60A      0.098173    61A      0.106456  
      62A      0.111403    63A      0.113588    64A      0.117572  
      65A      0.121903    66A      0.130041    67A      0.140323  
      68A      0.145871    69A      0.146285    70A      0.154756  
      71A      0.159192    72A      0.172480    73A      0.178754  
      74A      0.186979    75A      0.189290    76A      0.192297  
      77A      0.193540    78A      0.196309    79A      0.197649  
      80A      0.205843    81A      0.209282    82A      0.213491  
      83A      0.214963    84A      0.218570    85A      0.221367  
      86A      0.231830    87A      0.233294    88A      0.240394  
      89A      0.243595    90A      0.250393    91A      0.251240  
      92A      0.253651    93A      0.258347    94A      0.259259  
      95A      0.260465    96A      0.266774    97A      0.273897  
      98A      0.278559    99A      0.285424   100A      0.286548  
     101A      0.288669   102A      0.297246   103A      0.301733  
     104A      0.303953   105A      0.310603   106A      0.313294  
     107A      0.317005   108A      0.323937   109A      0.325004  
     110A      0.332514   111A      0.339345   112A      0.343820  
     113A      0.352386   114A      0.361544   115A      0.364878  
     116A      0.371427   117A      0.387050   118A      0.394882  
     119A      0.398102   120A      0.401155   121A      0.409881  
     122A      0.415474   123A      0.420643   124A      0.423809  
     125A      0.431716   126A      0.440861   127A      0.446365  
     128A      0.453626   129A      0.477298   130A      0.492606  
     131A      0.523602   132A      0.533071   133A      0.543366  
     134A      0.572072   135A      0.580665   136A      0.589653  
     137A      0.605016   138A      0.610361   139A      0.616004  
     140A      0.622675   141A      0.626709   142A      0.632787  
     143A      0.643875   144A      0.648100   145A      0.650186  
     146A      0.663356   147A      0.678248   148A      0.682318  
     149A      0.691921   150A      0.699265   151A      0.715092  
     152A      0.722643   153A      0.735398   154A      0.738709  
     155A      0.752249   156A      0.763470   157A      0.771500  
     158A      0.774849   159A      0.778269   160A      0.788058  
     161A      0.802115   162A      0.812961   163A      0.820196  
     164A      0.835333   165A      0.836105   166A      0.844851  
     167A      0.855190   168A      0.860492   169A      0.873942  
     170A      0.899422   171A      0.909492   172A      0.910619  
     173A      0.912278   174A      0.920019   175A      0.924702  
     176A      0.935982   177A      0.938297   178A      0.943367  
     179A      0.958903   180A      0.978319   181A      0.984227  
     182A      0.986756   183A      1.006851   184A      1.029961  
     185A      1.042851   186A      1.056122   187A      1.067555  
     188A      1.080496   189A      1.095523   190A      1.103681  
     191A      1.112572   192A      1.135761   193A      1.148487  
     194A      1.160102   195A      1.189149   196A      1.194261  
     197A      1.205335   198A      1.236064   199A      1.247999  
     200A      1.257272   201A      1.271565   202A      1.274330  
     203A      1.307618   204A      1.318918   205A      1.329662  
     206A      1.353681   207A      1.370907   208A      1.381865  
     209A      1.397175   210A      1.420950   211A      1.447972  
     212A      1.457521   213A      1.531356   214A      1.577020  
     215A      1.577805   216A      1.594087   217A      1.606730  
     218A      1.615147   219A      1.657470   220A      1.682560  
     221A      1.725368   222A      1.732224   223A      1.803996  
     224A      1.816288   225A      1.836447   226A      1.857307  
     227A      1.862245   228A      1.872526   229A      1.881385  
     230A      1.892324   231A      1.900934   232A      1.907373  
     233A      1.931225   234A      1.945642   235A      1.986546  
     236A      2.001040   237A      2.007922   238A      2.020873  
     239A      2.044033   240A      2.045119   241A      2.069726  
     242A      2.078894   243A      2.089201   244A      2.101041  
     245A      2.121609   246A      2.167799   247A      2.193511  
     248A      2.268538   249A      2.318361   250A      2.333547  
     251A      2.336864   252A      2.354766   253A      2.363341  
     254A      2.379515   255A      2.401440   256A      2.463062  
     257A      2.473918   258A      2.490697   259A      2.492931  
     260A      2.500934   261A      2.520289   262A      2.528715  
     263A      2.591441   264A      2.656700   265A      2.684533  
     266A      2.741244   267A      2.761965   268A      2.777269  
     269A      2.785110   270A      2.814717   271A      2.826766  
     272A      2.845802   273A      2.870554   274A      2.889836  
     275A      2.898433   276A      2.904161   277A      2.954300  
     278A      2.968871   279A      2.995618   280A      3.013692  
     281A      3.024155   282A      3.055093   283A      3.101749  
     284A      3.106945   285A      3.136154   286A      3.165637  
     287A      3.177638   288A      3.227703   289A      3.245770  
     290A      3.316188   291A      3.392172   292A      3.406913  
     293A      3.409890   294A      3.417072   295A      3.440032  
     296A      3.448576   297A      3.466185   298A      3.474391  
     299A      3.485177   300A      3.556558   301A      3.567602  
     302A      3.607993   303A      3.634094   304A      3.657640  
     305A      3.686170   306A      3.717823   307A      3.777742  
     308A      3.860626   309A      3.904852   310A      3.986863  
     311A      4.020203   312A      4.077318   313A      4.120454  
     314A      4.149788   315A      4.310687   316A      4.353833  
     317A      4.633432   318A      4.660285   319A      4.892125  
     320A      5.135540   321A      5.197895   322A      5.208871  
     323A      5.413711   324A      5.927452   325A     23.481859  
     326A     23.682889   327A     23.917287   328A     23.981928  
     329A     24.026478   330A     24.064664   331A     24.182760  
     332A     24.200444   333A     24.256323   334A     24.305469  
     335A     24.311528   336A     35.666641   337A     35.719332  
     338A     50.214912  

    Final Occupation by Irrep:
              A 
    DOCC [    49 ]

  @DF-RKS Final Energy:  -609.84542193775656

   => Energetics <=

    Nuclear Repulsion Energy =            795.3389717957359153
    One-Electron Energy =               -2403.5468314174286206
    Two-Electron Energy =                1057.7081500104704901
    DFT Exchange-Correlation Energy =     -59.3330646233748027
    Empirical Dispersion Energy =          -0.0126477031594353
    VV10 Nonlocal Energy =                  0.0000000000000000
    Total Energy =                       -609.8454219377564414

Computation Completed


Properties will be evaluated at   0.000000,   0.000000,   0.000000 [a0]

Properties computed using the SCF density matrix


 Multipole Moments:

 ------------------------------------------------------------------------------------
     Multipole            Electronic (a.u.)      Nuclear  (a.u.)        Total (a.u.)
 ------------------------------------------------------------------------------------

 L = 1.  Multiply by 2.5417464519 to convert [e a0] to [Debye]
 Dipole X            :         -3.5768730            3.9744855            0.3976125
 Dipole Y            :          1.6674299           -1.6345055            0.0329244
 Dipole Z            :         -2.4960075            3.3713039            0.8752964
 Magnitude           :                                                    0.9619374

 ------------------------------------------------------------------------------------

*** tstop() called on node165.bme.utexas.edu at Sat Nov 18 08:38:31 2023
Module time:
	user time   =     106.20 seconds =       1.77 minutes
	system time =       4.93 seconds =       0.08 minutes
	total time  =         23 seconds =       0.38 minutes
Total time:
	user time   =     106.20 seconds =       1.77 minutes
	system time =       4.93 seconds =       0.08 minutes
	total time  =         23 seconds =       0.38 minutes


Properties will be evaluated at   0.000000,   0.000000,   0.000000 [a0]
OEProp: No title given, name of density matrix used for the following properties is 'SCF density'


  Wiberg Bond Indices using Orthogonal Lowdin Orbitals:

  Irrep: 1 Size: 24 x 24

                 1                   2                   3                   4                   5

    1     0.00000000000000     0.72253697207012     0.03791917680934     0.01039692185901     0.04193290852819
    2     0.72253697207012     0.00000000000000     1.16829891176381     0.12879399541193     1.48869844821928
    3     0.03791917680934     1.16829891176381     0.00000000000000     1.42170468705248     0.12220449764971
    4     0.01039692185901     0.12879399541193     1.42170468705248     0.00000000000000     0.04613909180741
    5     0.04193290852819     1.48869844821928     0.12220449764971     0.04613909180741     0.00000000000000
    6     0.01082107914022     0.13292304649270     1.42074663018719     0.13115855867033     0.03122195747157
    7     0.01433655325274     0.19624461133531     0.02366925486671     0.00769712387959     1.53486088131655
    8     0.00127059371996     0.00591298701903     0.00078259781506     0.00027379787197     0.01909444255973
    9     0.00134999326755     0.02340425027133     0.00299795419613     0.00096844497081     0.12556000973260
   10     0.01275402524704     0.06729113395243     0.00667898632542     0.00266541351042     0.13765421943944
   11     0.00048307123738     0.03017576623043     0.00259916649392     0.00142511302342     0.07649877454173
   12     0.00074044145559     0.01705723437239     0.13866365821951     0.14511845364778     0.00394372448920
   13     0.00081349282723     0.01676067917959     0.13767946864370     1.52264994993977     0.00486974579745
   14     0.00259239505747     0.01077431962520     0.13912398308065     0.14046850641324     0.00555564408490
   15     0.00024416223666     0.01859261598300     0.05750015782006     0.00985593953255     0.00331800937774
   16     0.00002289073608     0.01784051471007     0.05690598959703     0.81293593794479     0.00801507606583
   17     0.00012419105935     0.00030360503966     0.00011368872618     0.00005868707895     0.00153092301923
   18     0.05847956091278     0.11299554595366     0.01038936474683     0.00248114690485     0.08440938963921
   19     0.00005149419436     0.00087863842861     0.01081761913108     0.00245917342602     0.00038058089005
   20     0.00014269848368     0.00089925990999     0.01079789172152     0.06107577137552     0.00029603763346
   21     0.00008740178101     0.00035770404178     0.00012543280441     0.00005628397682     0.01285921431526
   22     0.00020455721175     0.00039121942407     0.00012523029569     0.00003717812186     0.00191235703821
   23     0.00002469060581     0.00023322755192     0.00303656107284     0.01139083101594     0.00006294796031
   24     0.00701416302260     0.05068125323853     0.01946015826789     0.00842122407117     0.80221280418147

                 6                   7                   8                   9                  10

    1     0.01082107914022     0.01433655325274     0.00127059371996     0.00134999326755     0.01275402524704
    2     0.13292304649270     0.19624461133531     0.00591298701903     0.02340425027133     0.06729113395243
    3     1.42074663018719     0.02366925486671     0.00078259781506     0.00299795419613     0.00667898632542
    4     0.13115855867033     0.00769712387959     0.00027379787197     0.00096844497081     0.00266541351042
    5     0.03122195747157     1.53486088131655     0.01909444255973     0.12556000973260     0.13765421943944
    6     0.00000000000000     0.00677035578738     0.00022825016400     0.00082935807980     0.00244472635960
    7     0.00677035578738     0.00000000000000     0.13425855092426     1.17614224535390     1.08327537009790
    8     0.00022825016400     0.13425855092426     0.00000000000000     0.19944528211370     1.34388990226301
    9     0.00082935807980     1.17614224535390     0.19944528211370     0.00000000000000     0.13871054215870
   10     0.00244472635960     1.08327537009790     1.34388990226301     0.13871054215870     0.00000000000000
   11     0.00161375646109     0.17188146291582     1.27761998985809     1.79771390312080     0.14428178635364
   12     1.52716749195440     0.00097822671844     0.00003239051141     0.00014242767097     0.00035704959239
   13     0.14584115120489     0.00115750597434     0.00003984632295     0.00014936609529     0.00038025045347
   14     0.14038196908394     0.00160124628031     0.00006366386536     0.00018147190963     0.00063641421586
   15     0.81566180455873     0.00055328272201     0.00000756049906     0.00004955037425     0.00020292341583
   16     0.00952756210659     0.00077352168793     0.00003444167774     0.00008292204257     0.00014706334858
   17     0.00003460714998     0.01184105752053     0.80580802369319     0.01096954220202     0.04404460698535
   18     0.00296585466495     0.14386181334469     0.21657616366524     0.02286446307950     2.08076157411557
   19     0.06107929890321     0.00011486848039     0.00000336973029     0.00002699980833     0.00004693833152
   20     0.00245979373465     0.00011869704288     0.00000354700909     0.00002322597431     0.00006245814288
   21     0.00004640966048     0.05280033447827     0.01151615199852     0.82961448169239     0.01073312579258
   22     0.00004331102612     0.01394932195902     0.05649964314197     0.05842256279535     0.01257017564961
   23     0.01137374999598     0.00002073762977     0.00000149585251     0.00000512439337     0.00000979958346
   24     0.00318806194083     0.05693972788352     0.00113822272607     0.01277028367714     0.01004101555845

                11                  12                  13                  14                  15

    1     0.00048307123738     0.00074044145559     0.00081349282723     0.00259239505747     0.00024416223666
    2     0.03017576623043     0.01705723437239     0.01676067917959     0.01077431962520     0.01859261598300
    3     0.00259916649392     0.13866365821951     0.13767946864370     0.13912398308065     0.05750015782006
    4     0.00142511302342     0.14511845364778     1.52264994993977     0.14046850641324     0.00985593953255
    5     0.07649877454173     0.00394372448920     0.00486974579745     0.00555564408490     0.00331800937774
    6     0.00161375646109     1.52716749195440     0.14584115120489     0.14038196908394     0.81566180455873
    7     0.17188146291582     0.00097822671844     0.00115750597434     0.00160124628031     0.00055328272201
    8     1.27761998985809     0.00003239051141     0.00003984632295     0.00006366386536     0.00000756049906
    9     1.79771390312080     0.00014242767097     0.00014936609529     0.00018147190963     0.00004955037425
   10     0.14428178635364     0.00035704959239     0.00038025045347     0.00063641421586     0.00020292341583
   11     0.00000000000000     0.00021414936785     0.00022787813699     0.00056493176187     0.00008600040924
   12     0.00021414936785     0.00000000000000     0.13944960258132     1.51849965537671     0.05745957772022
   13     0.00022787813699     0.13944960258132     0.00000000000000     1.52266516436829     0.00258612077729
   14     0.00056493176187     1.51849965537671     1.52266516436829     0.00000000000000     0.01107066875477
   15     0.00008600040924     0.05745957772022     0.00258612077729     0.01107066875477     0.00000000000000
   16     0.00001693332528     0.00252985811892     0.05682441562262     0.01095374493548     0.00037835568656
   17     0.04268541823081     0.00000687641057     0.00001025510471     0.00000597917671     0.00000056306517
   18     0.02500077114785     0.00027304675708     0.00036262574573     0.00091547263961     0.00016789152149
   19     0.00002663672655     0.83165148858636     0.01139781428875     0.05971232149101     0.00533635708141
   20     0.00003493155759     0.01143019566016     0.83159741157963     0.05973159801923     0.00025842587863
   21     0.06196467357903     0.00001156712956     0.00001347213674     0.00000728132559     0.00000825064293
   22     0.83383276530895     0.00000717873470     0.00000818675808     0.00000837916479     0.00000274853653
   23     0.00000305216089     0.05973041885383     0.05980885461902     0.83338142301950     0.00022298502728
   24     0.00128483501756     0.00040395275314     0.00073461175056     0.00036492707053     0.00000173396214

                16                  17                  18                  19                  20

    1     0.00002289073608     0.00012419105935     0.05847956091278     0.00005149419436     0.00014269848368
    2     0.01784051471007     0.00030360503966     0.11299554595366     0.00087863842861     0.00089925990999
    3     0.05690598959703     0.00011368872618     0.01038936474683     0.01081761913108     0.01079789172152
    4     0.81293593794479     0.00005868707895     0.00248114690485     0.00245917342602     0.06107577137552
    5     0.00801507606583     0.00153092301923     0.08440938963921     0.00038058089005     0.00029603763346
    6     0.00952756210659     0.00003460714998     0.00296585466495     0.06107929890321     0.00245979373465
    7     0.00077352168793     0.01184105752053     0.14386181334469     0.00011486848039     0.00011869704288
    8     0.00003444167774     0.80580802369319     0.21657616366524     0.00000336973029     0.00000354700909
    9     0.00008292204257     0.01096954220202     0.02286446307950     0.00002699980833     0.00002322597431
   10     0.00014706334858     0.04404460698535     2.08076157411557     0.00004693833152     0.00006245814288
   11     0.00001693332528     0.04268541823081     0.02500077114785     0.00002663672655     0.00003493155759
   12     0.00252985811892     0.00000687641057     0.00027304675708     0.83165148858636     0.01143019566016
   13     0.05682441562262     0.00001025510471     0.00036262574573     0.01139781428875     0.83159741157963
   14     0.01095374493548     0.00000597917671     0.00091547263961     0.05971232149101     0.05973159801923
   15     0.00037835568656     0.00000056306517     0.00016789152149     0.00533635708141     0.00025842587863
   16     0.00000000000000     0.00000171416550     0.00009435031294     0.00025333999541     0.00533103883441
   17     0.00000171416550     0.00000000000000     0.01002253657713     0.00000050174803     0.00000059085494
   18     0.00009435031294     0.01002253657713     0.00000000000000     0.00002064033886     0.00005213146352
   19     0.00025333999541     0.00000050174803     0.00002064033886     0.00000000000000     0.00025785051628
   20     0.00533103883441     0.00000059085494     0.00005213146352     0.00025785051628     0.00000000000000
   21     0.00000725506145     0.00040834413716     0.00210258018804     0.00000048020648     0.00000099719644
   22     0.00000623402157     0.00317770610553     0.00164308851999     0.00000153048385     0.00000093671345
   23     0.00022175860196     0.00000036669219     0.00000852896678     0.00539697101664     0.00540236166747
   24     0.00040777054205     0.00055157846013     0.00113903906609     0.00003352717061     0.00004345145048

                21                  22                  23                  24

    1     0.00008740178101     0.00020455721175     0.00002469060581     0.00701416302260
    2     0.00035770404178     0.00039121942407     0.00023322755192     0.05068125323853
    3     0.00012543280441     0.00012523029569     0.00303656107284     0.01946015826789
    4     0.00005628397682     0.00003717812186     0.01139083101594     0.00842122407117
    5     0.01285921431526     0.00191235703821     0.00006294796031     0.80221280418147
    6     0.00004640966048     0.00004331102612     0.01137374999598     0.00318806194083
    7     0.05280033447827     0.01394932195902     0.00002073762977     0.05693972788352
    8     0.01151615199852     0.05649964314197     0.00000149585251     0.00113822272607
    9     0.82961448169239     0.05842256279535     0.00000512439337     0.01277028367714
   10     0.01073312579258     0.01257017564961     0.00000979958346     0.01004101555845
   11     0.06196467357903     0.83383276530895     0.00000305216089     0.00128483501756
   12     0.00001156712956     0.00000717873470     0.05973041885383     0.00040395275314
   13     0.00001347213674     0.00000818675808     0.05980885461902     0.00073461175056
   14     0.00000728132559     0.00000837916479     0.83338142301950     0.00036492707053
   15     0.00000825064293     0.00000274853653     0.00022298502728     0.00000173396214
   16     0.00000725506145     0.00000623402157     0.00022175860196     0.00040777054205
   17     0.00040834413716     0.00317770610553     0.00000036669219     0.00055157846013
   18     0.00210258018804     0.00164308851999     0.00000852896678     0.00113903906609
   19     0.00000048020648     0.00000153048385     0.00539697101664     0.00003352717061
   20     0.00000099719644     0.00000093671345     0.00540236166747     0.00004345145048
   21     0.00000000000000     0.00255839219868     0.00000025090503     0.00024695553253
   22     0.00255839219868     0.00000000000000     0.00000032470670     0.00010015035305
   23     0.00000025090503     0.00000032470670     0.00000000000000     0.00001838177782
   24     0.00024695553253     0.00010015035305     0.00001838177782     0.00000000000000



  Atomic Valences: 

 #  #
 Irrep: 1
      1:    0.924343434715892
      2:    4.212045940224857
      3:    4.792341067287165
      4:    4.468232231506617
      5:    4.553231685758528
      6:    4.458528784798615
      7:    4.633846751452278
      8:    4.074500915002217
      9:    4.402424404980456
     10:    5.099639500893151
     11:    4.470235766966784
     12:    4.455868666682519
     13:    4.456027869908405
     14:    4.459261160720654
     15:    0.983565685583527
     16:    0.983312689141366
     17:    0.931701363203024
     18:    2.777587580272389
     19:    0.989948440974087
     20:    0.990021302420215
     21:    0.985527040781167
     22:    0.985503178269514
     23:    0.990354843677043
     24:    0.977197829474353


    Psi4 stopped on: Saturday, 18 November 2023 08:38AM
    Psi4 wall time for execution: 0:00:23.97

*** Psi4 exiting successfully. Buy a developer a beer!
