24
 energy: -38.562081926174 gnorm: 0.000449364026 xtb: 6.5.0 (97a52f5)
H           -0.61610646848676       -0.68002488737497       -0.79851584319495
N            0.03254650538938       -0.33762256415725       -0.08032081645459
C            1.19842786189477       -1.05090355208306        0.12216531918419
C            2.24288971324658       -0.60033721702404        0.93029464761458
C           -0.39127161553919        0.78141765895477        0.52422360145048
C            1.33523159428000       -2.27405613366253       -0.53969977749385
C           -1.59263510722120        1.33856533528711        0.19382989179980
N           -3.55535722464193        1.60904535028083       -0.87949380044285
C           -2.23127777786378        2.53597402642173        0.66921307130418
C           -2.48137705991274        0.76617804197916       -0.81668716471343
C           -3.39844205900010        2.66190666220303        0.00846566970033
C            2.47792432828977       -3.03118853432731       -0.38296433065024
C            3.38285420865447       -1.36718860292610        1.08029697989533
C            3.50770735959806       -2.58310990748863        0.42985286763460
H            0.53140014077163       -2.61906689946677       -1.17367855884895
H            2.17155770664571        0.34673103197743        1.44201497731731
H           -4.34319643359269        1.48024386855654       -1.49178002818089
O           -2.32241905610973       -0.24995908612249       -1.49207475310072
H            2.56810453017869       -3.97580653649317       -0.89834483050917
H            4.18356985072308       -1.00741017716340        1.70957659798287
H           -1.83835920453122        3.19477713742445        1.41758400010195
H           -4.15283216886938        3.42113087611232        0.08415909745158
H            4.40155148862986       -3.17528470671008        0.55194421056357
H            0.25525987746662        1.25496682580233        1.25122399158883
