      -----------------------------------------------------------      
     |                   =====================                   |     
     |                           x T B                           |     
     |                   =====================                   |     
     |                         S. Grimme                         |     
     |          Mulliken Center for Theoretical Chemistry        |     
     |                    University of Bonn                     |     
      -----------------------------------------------------------      

   * xtb version 6.5.0 (97a52f5) compiled by 'conda@d2599ee0d4f4' on 2022-05-15

   xtb is free software: you can redistribute it and/or modify it under
   the terms of the GNU Lesser General Public License as published by
   the Free Software Foundation, either version 3 of the License, or
   (at your option) any later version.
   
   xtb is distributed in the hope that it will be useful,
   but WITHOUT ANY WARRANTY; without even the implied warranty of
   MERCHANTABILITY or FITNESS FOR A PARTICULAR PURPOSE.  See the
   GNU Lesser General Public License for more details.
   
   Cite this work as:
   * C. Bannwarth, E. Caldeweyher, S. Ehlert, A. Hansen, P. Pracht,
     J. Seibert, S. Spicher, S. Grimme, WIREs Comput. Mol. Sci., 2020, 11,
     e01493. DOI: 10.1002/wcms.1493
   
   for GFN2-xTB:
   * C. Bannwarth, S. Ehlert and S. Grimme., J. Chem. Theory Comput., 2019,
     15, 1652-1671. DOI: 10.1021/acs.jctc.8b01176
   for GFN1-xTB:
   * S. Grimme, C. Bannwarth, P. Shushkov, J. Chem. Theory Comput., 2017,
     13, 1989-2009. DOI: 10.1021/acs.jctc.7b00118
   for GFN0-xTB:
   * P. Pracht, E. Caldeweyher, S. Ehlert, S. Grimme, ChemRxiv, 2019, preprint.
     DOI: 10.26434/chemrxiv.8326202.v1
   for GFN-FF:
   * S. Spicher and S. Grimme, Angew. Chem. Int. Ed., 2020, 59, 15665-15673.
     DOI: 10.1002/anie.202004239
   
   for ALPB and GBSA implicit solvation:
   * S. Ehlert, M. Stahn, S. Spicher, S. Grimme, J. Chem. Theory Comput.,
     2021, 17, 4250-4261. DOI: 10.1021/acs.jctc.1c00471
   
   for DFT-D4:
   * E. Caldeweyher, C. Bannwarth and S. Grimme, J. Chem. Phys., 2017,
     147, 034112. DOI: 10.1063/1.4993215
   * E. Caldeweyher, S. Ehlert, A. Hansen, H. Neugebauer, S. Spicher,
     C. Bannwarth and S. Grimme, J. Chem. Phys., 2019, 150, 154122.
     DOI: 10.1063/1.5090222
   * E. Caldeweyher, J.-M. Mewes, S. Ehlert and S. Grimme, Phys. Chem. Chem. Phys.
     2020, 22, 8499-8512. DOI: 10.1039/D0CP00502A
   
   for sTDA-xTB:
   * S. Grimme and C. Bannwarth, J. Chem. Phys., 2016, 145, 054103.
     DOI: 10.1063/1.4959605
   
   in the mass-spec context:
   * V. Asgeirsson, C. Bauer and S. Grimme, Chem. Sci., 2017, 8, 4879.
     DOI: 10.1039/c7sc00601b
   * J. Koopman and S. Grimme, ACS Omega 2019, 4, 12, 15120-15133.
     DOI: 10.1021/acsomega.9b02011
   
   for metadynamics refer to:
   * S. Grimme, J. Chem. Theory Comput., 2019, 155, 2847-2862
     DOI: 10.1021/acs.jctc.9b00143
   
   for SPH calculations refer to:
   * S. Spicher and S. Grimme, J. Chem. Theory Comput., 2021, 17, 1701-1714
     DOI: 10.1021/acs.jctc.0c01306
   
   with help from (in alphabetical order)
   P. Atkinson, C. Bannwarth, F. Bohle, G. Brandenburg, E. Caldeweyher
   M. Checinski, S. Dohm, S. Ehlert, S. Ehrlich, I. Gerasimov, C. Hölzer
   A. Katbashev, J. Koopman, C. Lavigne, S. Lehtola, F. März, M. Müller,
   F. Musil, H. Neugebauer, J. Pisarek, C. Plett, P. Pracht, F. Pultar,
   J. Seibert, P. Shushkov, S. Spicher, M. Stahn, M. Steiner, T. Strunk,
   J. Stückrath, T. Rose, and J. Unsleber
   
 * started run on 2023/11/18 at 08:35:52.456     

           -------------------------------------------------
          |                Calculation Setup                |
           -------------------------------------------------

          program call               : /home/liuchw/anaconda3/envs/xtbenv/bin/xtb --gfn 2 --chrg 0 --uhf 0 1_16_Index_0-opt-2-3-261_preQMOPTprefit_xyzformat.xyz --opt --input xtb-opt-2-3-261_constr.txt
          hostname                   : node165.bme.utexas.edu
          coordinate file            : 1_16_Index_0-opt-2-3-261_preQMOPTprefit_xyzformat.xyz
          omp threads                :                    64

   ID    Z sym.   atoms
    1    1 H      1, 15-17, 19-24
    2    7 N      2, 8
    3    6 C      3-7, 9-14
    4    8 O      18
constraining angle 1 2 3 4 to  260.9920937°, actual value:  -99.0079063°
constraining angle 5 2 3 4 to   82.0117194°, actual value:   82.0117194°
constraining angle 1 2 5 24 to  183.9662299°, actual value: -176.0337701°
constraining angle 3 2 5 24 to    2.9960526°, actual value:    2.9960526°
constraining angle 2 5 7 9 to  181.9926236°, actual value: -178.0073764°

           -------------------------------------------------
          |                 G F N 2 - x T B                 |
           -------------------------------------------------

        Reference                      10.1021/acs.jctc.8b01176
      * Hamiltonian:
        H0-scaling (s, p, d)           1.850000    2.230000    2.230000
        zeta-weighting                 0.500000
      * Dispersion:
        s8                             2.700000
        a1                             0.520000
        a2                             5.000000
        s9                             5.000000
      * Repulsion:
        kExp                           1.500000    1.000000
        rExp                           1.000000
      * Coulomb:
        alpha                          2.000000
        third order                    shell-resolved
        anisotropic                    true
        a3                             3.000000
        a5                             4.000000
        cn-shift                       1.200000
        cn-exp                         4.000000
        max-rad                        5.000000

q/qsh data taken from xtbrestart
CAMM data taken from xtbrestart

          ...................................................
          :                      SETUP                      :
          :.................................................:
          :  # basis functions                  66          :
          :  # atomic orbitals                  66          :
          :  # shells                           38          :
          :  # electrons                        70          :
          :  max. iterations                   250          :
          :  Hamiltonian                  GFN2-xTB          :
          :  restarted?                       true          :
          :  GBSA solvation                  false          :
          :  PC potential                    false          :
          :  electronic temp.          300.0000000     K    :
          :  accuracy                    1.0000000          :
          :  -> integral cutoff          0.2500000E+02      :
          :  -> integral neglect         0.1000000E-07      :
          :  -> SCF convergence          0.1000000E-05 Eh   :
          :  -> wf. convergence          0.1000000E-03 e    :
          :  Broyden damping             0.4000000          :
          ...................................................

 iter      E             dE          RMSdq      gap      omega  full diag
   1    -39.1043433 -0.391043E+02  0.144E+00    2.29       0.0  T
   2    -39.1046249 -0.281601E-03  0.847E-01    2.33       1.0  T
   3    -39.1030621  0.156271E-02  0.261E-01    2.26       1.0  T
   4    -39.1047825 -0.172032E-02  0.491E-02    2.32       1.0  T
   5    -39.1048277 -0.451973E-04  0.180E-02    2.32       1.1  T
   6    -39.1048289 -0.120213E-05  0.111E-02    2.32       1.8  T
   7    -39.1048299 -0.103623E-05  0.309E-03    2.32       6.6  T
   8    -39.1048300 -0.666069E-07  0.112E-03    2.32      18.2  T
   9    -39.1048300 -0.934224E-08  0.491E-04    2.32      41.6  T
  10    -39.1048300 -0.126929E-08  0.248E-04    2.32      82.2  T

   *** convergence criteria satisfied after 10 iterations ***

         #    Occupation            Energy/Eh            Energy/eV
      -------------------------------------------------------------
         1        2.0000           -0.6704072             -18.2427
       ...           ...                  ...                  ...
        29        2.0000           -0.4441968             -12.0872
        30        2.0000           -0.4358004             -11.8587
        31        2.0000           -0.4153831             -11.3032
        32        2.0000           -0.4115570             -11.1990
        33        2.0000           -0.3927118             -10.6862
        34        2.0000           -0.3748898             -10.2013
        35        2.0000           -0.3449599              -9.3868 (HOMO)
        36                         -0.2598240              -7.0702 (LUMO)
        37                         -0.2433909              -6.6230
        38                         -0.2403115              -6.5392
        39                         -0.1709781              -4.6526
        40                         -0.1209952              -3.2924
       ...                                ...                  ...
        66                          0.6812850              18.5387
      -------------------------------------------------------------
                  HL-Gap            0.0851359 Eh            2.3167 eV
             Fermi-level           -0.3023919 Eh           -8.2285 eV

 SCC (total)                   0 d,  0 h,  0 min,  1.484 sec
 SCC setup                      ...        0 min,  0.012 sec (  0.777%)
 Dispersion                     ...        0 min,  0.017 sec (  1.161%)
 classical contributions        ...        0 min,  0.014 sec (  0.934%)
 integral evaluation            ...        0 min,  0.034 sec (  2.315%)
 iterations                     ...        0 min,  1.222 sec ( 82.390%)
 molecular gradient             ...        0 min,  0.164 sec ( 11.082%)
 printout                       ...        0 min,  0.020 sec (  1.323%)

         :::::::::::::::::::::::::::::::::::::::::::::::::::::
         ::                     SUMMARY                     ::
         :::::::::::::::::::::::::::::::::::::::::::::::::::::
         :: total energy             -38.543535273495 Eh    ::
         :: gradient norm              0.072271262770 Eh/a0 ::
         :: HOMO-LUMO gap              2.316665790538 eV    ::
         ::.................................................::
         :: SCC energy               -39.104829979341 Eh    ::
         :: -> isotropic ES            0.048029106975 Eh    ::
         :: -> anisotropic ES          0.001307271090 Eh    ::
         :: -> anisotropic XC          0.020667685376 Eh    ::
         :: -> dispersion             -0.021705908282 Eh    ::
         :: repulsion energy           0.561423878735 Eh    ::
         :: add. restraining           0.000000000000 Eh    ::
         :: total charge               0.000000000000 e     ::
         :::::::::::::::::::::::::::::::::::::::::::::::::::::

      ----------------------------------------------------------- 
     |                   =====================                   |
     |                        A N C O P T                        |
     |                   =====================                   |
     |               Approximate Normal Coordinate               |
     |                Rational Function Optimizer                |
      ----------------------------------------------------------- 

          ...................................................
          :                      SETUP                      :
          :.................................................:
          :   optimization level            normal          :
          :   max. optcycles                   200          :
          :   ANC micro-cycles                  20          :
          :   degrees of freedom                66          :
          :.................................................:
          :   RF solver                   davidson          :
          :   write xtbopt.log                true          :
          :   linear?                        false          :
          :   energy convergence         0.5000000E-05 Eh   :
          :   grad. convergence          0.1000000E-02 Eh/α :
          :   maximium RF displ.         1.0000000          :
          :   Hlow (freq-cutoff)         0.1000000E-01      :
          :   Hmax (freq-cutoff)         5.0000000          :
          :   S6 in model hess.         20.0000000          :
          ...................................................

generating ANC from model Hessian ...
Using Lindh-Hessian (1995)
 Shifting diagonal of input Hessian by    8.7141150287073192E-003
 Lowest  eigenvalues of input Hessian
    0.000000    0.000000    0.000000    0.000000    0.000000    0.000000
    0.010000    0.010442    0.012903    0.017017    0.017152    0.021971
    0.023449    0.029419    0.029452    0.033853    0.038571    0.042306
 Highest eigenvalues
    2.091778    2.283196    2.991898    5.802499   10.547064   20.813633


........................................................................
.............................. CYCLE    1 ..............................
........................................................................
   1    -39.1048300 -0.391048E+02  0.856E-05    2.32       0.0  T
   2    -39.1048300 -0.186304E-10  0.549E-05    2.32     371.7  T
   3    -39.1048300 -0.133014E-10  0.380E-05    2.32     537.1  T
     SCC iter.                  ...        0 min,  0.337 sec
     gradient                   ...        0 min,  0.153 sec
 * total energy  :   -38.5435353 Eh     change       -0.5059348E-09 Eh
   gradient norm :     0.0722715 Eh/α   predicted     0.0000000E+00 (-100.00%)
   displ. norm   :     0.2741084 α      lambda       -0.1111048E-01
   maximum displ.:     0.1356956 α      in ANC's #7, #33, #36, ...

........................................................................
.............................. CYCLE    2 ..............................
........................................................................
   1    -39.1626751 -0.391627E+02  0.222E-01    2.46       0.0  T
   2    -39.1627876 -0.112542E-03  0.130E-01    2.43       1.0  T
   3    -39.1627734  0.142243E-04  0.717E-02    2.45       1.0  T
   4    -39.1628155 -0.421012E-04  0.152E-02    2.44       1.3  T
   5    -39.1628204 -0.488743E-05  0.510E-03    2.44       4.0  T
   6    -39.1628206 -0.186608E-06  0.284E-03    2.44       7.2  T
   7    -39.1628206 -0.860185E-07  0.139E-03    2.44      14.6  T
   8    -39.1628207 -0.206443E-07  0.451E-04    2.44      45.2  T
   9    -39.1628207 -0.445119E-09  0.149E-04    2.44     136.6  T
     SCC iter.                  ...        0 min,  1.016 sec
     gradient                   ...        0 min,  0.153 sec
 * total energy  :   -38.5505964 Eh     change       -0.7061167E-02 Eh
   gradient norm :     0.0197649 Eh/α   predicted    -0.5975112E-02 ( -15.38%)
   displ. norm   :     0.1964475 α      lambda       -0.1493347E-02
   maximum displ.:     0.1395922 α      in ANC's #7, #10, #8, ...

........................................................................
.............................. CYCLE    3 ..............................
........................................................................
   1    -39.1828520 -0.391829E+02  0.942E-02    2.50       0.0  T
   2    -39.1828652 -0.131738E-04  0.585E-02    2.49       1.0  T
   3    -39.1828600  0.514567E-05  0.390E-02    2.50       1.0  T
   4    -39.1828787 -0.187024E-04  0.916E-03    2.49       2.2  T
   5    -39.1828803 -0.153709E-05  0.246E-03    2.49       8.3  T
   6    -39.1828803 -0.483831E-07  0.125E-03    2.49      16.3  T
   7    -39.1828803 -0.107813E-07  0.399E-04    2.49      51.2  T
   8    -39.1828803 -0.133200E-08  0.138E-04    2.49     148.0  T
     SCC iter.                  ...        0 min,  0.950 sec
     gradient                   ...        0 min,  0.156 sec
 * total energy  :   -38.5514141 Eh     change       -0.8176876E-03 Eh
   gradient norm :     0.0305461 Eh/α   predicted    -0.7758501E-03 (  -5.12%)
   displ. norm   :     0.1166138 α      lambda       -0.4020447E-03
   maximum displ.:     0.0864835 α      in ANC's #7, #4, #8, ...

........................................................................
.............................. CYCLE    4 ..............................
........................................................................
   1    -39.1864118 -0.391864E+02  0.492E-02    2.50       0.0  T
   2    -39.1864128 -0.101263E-05  0.313E-02    2.50       1.0  T
   3    -39.1864099  0.287015E-05  0.221E-02    2.50       1.0  T
   4    -39.1864173 -0.741856E-05  0.278E-03    2.50       7.3  T
   5    -39.1864175 -0.128165E-06  0.102E-03    2.50      20.1  T
   6    -39.1864175 -0.694104E-08  0.480E-04    2.50      42.5  T
   7    -39.1864175 -0.677950E-09  0.957E-05    2.50     213.3  T
     SCC iter.                  ...        0 min,  0.888 sec
     gradient                   ...        0 min,  0.150 sec
 * total energy  :   -38.5513476 Eh     change        0.6651235E-04 Eh
   gradient norm :     0.0948208 Eh/α   predicted    -0.2037964E-03 (-406.40%)
   displ. norm   :     0.0482240 α      lambda       -0.5224652E-03
   maximum displ.:     0.0318605 α      in ANC's #7, #4, #5, ...

........................................................................
.............................. CYCLE    5 ..............................
........................................................................
   1    -39.1835636 -0.391836E+02  0.260E-02    2.49       0.0  T
   2    -39.1835643 -0.709838E-06  0.153E-02    2.49       1.3  T
   3    -39.1835632  0.108324E-05  0.111E-02    2.49       1.8  T
   4    -39.1835649 -0.176130E-05  0.211E-03    2.49       9.7  T
   5    -39.1835650 -0.790788E-07  0.475E-04    2.49      43.0  T
   6    -39.1835650 -0.109718E-08  0.239E-04    2.49      85.3  T
     SCC iter.                  ...        0 min,  0.694 sec
     gradient                   ...        0 min,  0.179 sec
 * total energy  :   -38.5516261 Eh     change       -0.2784490E-03 Eh
   gradient norm :     0.0080966 Eh/α   predicted    -0.2618429E-03 (  -5.96%)
   displ. norm   :     0.0315930 α      lambda       -0.4315466E-04
   maximum displ.:     0.0135496 α      in ANC's #2, #4, #5, ...

........................................................................
.............................. CYCLE    6 ..............................
........................................................................
   1    -39.1819116 -0.391819E+02  0.157E-02    2.49       0.0  T
   2    -39.1819118 -0.203593E-06  0.868E-03    2.49       2.4  T
   3    -39.1819116  0.277607E-06  0.523E-03    2.49       3.9  T
   4    -39.1819119 -0.331832E-06  0.117E-03    2.49      17.4  T
   5    -39.1819119 -0.278660E-07  0.260E-04    2.49      78.5  T
   6    -39.1819119 -0.444466E-09  0.137E-04    2.49     149.1  T
     SCC iter.                  ...        0 min,  0.733 sec
     gradient                   ...        0 min,  0.179 sec
 * total energy  :   -38.5516475 Eh     change       -0.2147418E-04 Eh
   gradient norm :     0.0098320 Eh/α   predicted    -0.2166745E-04 (   0.90%)
   displ. norm   :     0.0406491 α      lambda       -0.2621208E-04
   maximum displ.:     0.0196780 α      in ANC's #2, #4, #5, ...

........................................................................
.............................. CYCLE    7 ..............................
........................................................................
   1    -39.1809101 -0.391809E+02  0.167E-02    2.48       0.0  T
   2    -39.1809103 -0.198938E-06  0.912E-03    2.48       2.2  T
   3    -39.1809099  0.423679E-06  0.621E-03    2.49       3.3  T
   4    -39.1809104 -0.524856E-06  0.105E-03    2.48      19.5  T
   5    -39.1809105 -0.221243E-07  0.246E-04    2.48      83.1  T
   6    -39.1809105 -0.295138E-09  0.125E-04    2.48     163.1  T
     SCC iter.                  ...        0 min,  0.684 sec
     gradient                   ...        0 min,  0.165 sec
 * total energy  :   -38.5516621 Eh     change       -0.1451720E-04 Eh
   gradient norm :     0.0040267 Eh/α   predicted    -0.1312969E-04 (  -9.56%)
   displ. norm   :     0.0240217 α      lambda       -0.7331443E-05
   maximum displ.:     0.0150199 α      in ANC's #2, #4, #1, ...

........................................................................
.............................. CYCLE    8 ..............................
........................................................................
   1    -39.1812485 -0.391812E+02  0.105E-02    2.49       0.0  T
   2    -39.1812485 -0.403284E-07  0.592E-03    2.49       3.4  T
   3    -39.1812483  0.239202E-06  0.416E-03    2.49       4.9  T
   4    -39.1812486 -0.296796E-06  0.414E-04    2.49      49.3  T
   5    -39.1812486 -0.294798E-08  0.163E-04    2.49     125.4  T
     SCC iter.                  ...        0 min,  0.602 sec
     gradient                   ...        0 min,  0.164 sec
 * total energy  :   -38.5516672 Eh     change       -0.5136750E-05 Eh
   gradient norm :     0.0010237 Eh/α   predicted    -0.3668122E-05 ( -28.59%)
   displ. norm   :     0.0386081 α      lambda       -0.4665261E-05
   maximum displ.:     0.0283016 α      in ANC's #2, #1, #4, ...

........................................................................
.............................. CYCLE    9 ..............................
........................................................................
   1    -39.1817391 -0.391817E+02  0.154E-02    2.49       0.0  T
   2    -39.1817392 -0.789435E-07  0.874E-03    2.49       2.3  T
   3    -39.1817387  0.421438E-06  0.500E-03    2.49       4.1  T
   4    -39.1817392 -0.491776E-06  0.585E-04    2.49      34.9  T
   5    -39.1817392 -0.625983E-08  0.246E-04    2.49      83.1  T
     SCC iter.                  ...        0 min,  0.667 sec
     gradient                   ...        0 min,  0.154 sec
 * total energy  :   -38.5516707 Eh     change       -0.3545345E-05 Eh
   gradient norm :     0.0023888 Eh/α   predicted    -0.2337163E-05 ( -34.08%)
   displ. norm   :     0.0099323 α      lambda       -0.1433465E-05
   maximum displ.:     0.0082850 α      in ANC's #2, #1, #3, ...

........................................................................
.............................. CYCLE   10 ..............................
........................................................................
   1    -39.1816485 -0.391816E+02  0.466E-03    2.49       0.0  T
   2    -39.1816485 -0.247574E-08  0.274E-03    2.49       7.4  T
   3    -39.1816485  0.975790E-08  0.602E-04    2.49      33.9  T
   4    -39.1816485 -0.110655E-07  0.111E-04    2.49     184.5  T
     SCC iter.                  ...        0 min,  0.479 sec
     gradient                   ...        0 min,  0.157 sec
 * total energy  :   -38.5516720 Eh     change       -0.1219064E-05 Eh
   gradient norm :     0.0010556 Eh/α   predicted    -0.7178364E-06 ( -41.12%)
   displ. norm   :     0.0249772 α      lambda       -0.2019081E-05
   maximum displ.:     0.0192008 α      in ANC's #2, #1, #3, ...

........................................................................
.............................. CYCLE   11 ..............................
........................................................................
   1    -39.1814366 -0.391814E+02  0.122E-02    2.49       0.0  T
   2    -39.1814366 -0.158467E-07  0.713E-03    2.49       2.9  T
   3    -39.1814366  0.345225E-07  0.143E-03    2.49      14.2  T
   4    -39.1814366 -0.387009E-07  0.322E-04    2.49      63.5  T
   5    -39.1814366 -0.200991E-08  0.113E-04    2.49     180.9  T
     SCC iter.                  ...        0 min,  0.757 sec
     gradient                   ...        0 min,  0.161 sec
 * total energy  :   -38.5516738 Eh     change       -0.1838225E-05 Eh
   gradient norm :     0.0013243 Eh/α   predicted    -0.1011493E-05 ( -44.97%)
   displ. norm   :     0.0268274 α      lambda        0.1167513E-05
   maximum displ.:     0.0207000 α      in ANC's #2, #1, #3, ...

........................................................................
.............................. CYCLE   12 ..............................
........................................................................
   1    -39.1812171 -0.391812E+02  0.130E-02    2.48       0.0  T
   2    -39.1812171 -0.171924E-07  0.760E-03    2.48       2.7  T
   3    -39.1812170  0.435335E-07  0.160E-03    2.48      12.8  T
   4    -39.1812171 -0.487184E-07  0.331E-04    2.48      61.7  T
   5    -39.1812171 -0.210854E-08  0.119E-04    2.48     170.9  T
     SCC iter.                  ...        0 min,  0.628 sec
     gradient                   ...        0 min,  0.160 sec
 * total energy  :   -38.5516733 Eh     change        0.5117436E-06 Eh
   gradient norm :     0.0035804 Eh/α   predicted     0.5790419E-06 (  13.15%)
   displ. norm   :     0.0053192 α      lambda       -0.1592828E-05
   maximum displ.:     0.0024507 α      in ANC's #4, #3, #5, ...

........................................................................
.............................. CYCLE   13 ..............................
........................................................................
   1    -39.1813031 -0.391813E+02  0.341E-03    2.49       0.0  T
   2    -39.1813031 -0.533319E-08  0.194E-03    2.49      10.5  T
   3    -39.1813031  0.176825E-07  0.115E-03    2.49      17.7  T
   4    -39.1813031 -0.211080E-07  0.175E-04    2.49     116.5  T
   5    -39.1813031 -0.668258E-09  0.567E-05    2.49     360.3  T
     SCC iter.                  ...        0 min,  0.709 sec
     gradient                   ...        0 min,  0.159 sec
 * total energy  :   -38.5516745 Eh     change       -0.1244345E-05 Eh
   gradient norm :     0.0021844 Eh/α   predicted    -0.7969255E-06 ( -35.96%)
   displ. norm   :     0.0094742 α      lambda       -0.1585586E-05
   maximum displ.:     0.0057186 α      in ANC's #2, #1, #4, ...

........................................................................
.............................. CYCLE   14 ..............................
........................................................................
   1    -39.1814538 -0.391815E+02  0.485E-03    2.49       0.0  T
   2    -39.1814539 -0.108274E-07  0.276E-03    2.49       7.4  T
   3    -39.1814538  0.305219E-07  0.151E-03    2.49      13.5  T
   4    -39.1814539 -0.360329E-07  0.255E-04    2.49      80.1  T
   5    -39.1814539 -0.144652E-08  0.863E-05    2.49     236.6  T
     SCC iter.                  ...        0 min,  0.682 sec
     gradient                   ...        0 min,  0.157 sec
 * total energy  :   -38.5516755 Eh     change       -0.9536007E-06 Eh
   gradient norm :     0.0002251 Eh/α   predicted    -0.7932082E-06 ( -16.82%)
   displ. norm   :     0.0129059 α      lambda       -0.3330338E-06
   maximum displ.:     0.0106561 α      in ANC's #2, #1, #4, ...

   *** GEOMETRY OPTIMIZATION CONVERGED AFTER 14 ITERATIONS ***

------------------------------------------------------------------------
 total energy gain   :        -0.0081402 Eh       -5.1081 kcal/mol
 total RMSD          :         0.1335887 a0        0.0707 Å
 total power (kW/mol):        -1.5265797 (step)   -1.4862 (real)
------------------------------------------------------------------------

 ANCopt (total)                0 d,  0 h,  0 min, 14.380 sec
 optimizer setup                ...        0 min,  0.000 sec (  0.002%)
 model hessian                  ...        0 min,  0.017 sec (  0.121%)
 ANC generation                 ...        0 min,  0.002 sec (  0.011%)
 coordinate transformation      ...        0 min,  0.000 sec (  0.003%)
 single point calculation       ...        0 min, 13.801 sec ( 95.975%)
 optimization log               ...        0 min,  0.003 sec (  0.018%)
 hessian update                 ...        0 min,  0.511 sec (  3.554%)
 rational function              ...        0 min,  0.043 sec (  0.302%)

================
 final structure:
================
24
 xtb: 6.5.0 (97a52f5)
H            0.48286018577583        1.11751808194191        0.24308300376782
N            0.30674451017250        0.11206550576023        0.13350015610674
C            1.35863793939047       -0.82365992433542        0.22992642250795
C            1.94633978475394       -1.33204675097918       -0.92235518464228
C           -0.97466660846638       -0.19680960013067       -0.08080050862567
C            1.83882114241828       -1.20522779551233        1.47732812852646
C           -1.92741784615588        0.77712416453201       -0.17434885778908
N           -2.79026771855263        2.85527850589349       -0.16616761937629
C           -3.35097483163181        0.69725161697571       -0.36021950166311
C           -1.60108328456485        2.19201617663715       -0.04824924788812
C           -3.82982109418827        1.95639865736904       -0.35268361795719
C            2.88570761350413       -2.10496811033081        1.56795626347103
C            2.99128890429526       -2.23350831149107       -0.82438128040007
C            3.46144635012561       -2.62126045662170        0.41903918823449
H            1.38510070048617       -0.79475384863219        2.36707138627530
H            1.57332823199146       -1.02146162116125       -1.88702265616711
H           -2.89005042002755        3.85530219086923       -0.12032844003174
O           -0.49869173965358        2.71190110271441        0.13712869632150
H            3.25326764717107       -2.40345562615843        2.53844757953386
H            3.44343107679385       -2.62926716272784       -1.72160804834676
H           -3.91195892194301       -0.20749522179797       -0.48495853331988
H           -4.83655572089906        2.31066764499112       -0.46336152742580
H            4.27833587696133       -3.32328409819923        0.49278767480292
H           -1.22806375775613       -1.24934711960533       -0.13850247591525

 Bond Distances (Angstroems)
 ---------------------------
H1-N2=1.0266         N2-H1=1.0266         N2-C3=1.4112         N2-C5=1.3354         C3-N2=1.4112         C3-C4=1.3898         
C3-C6=1.3900         C4-C3=1.3898         C4-C13=1.3835        C4-H16=1.0799        C5-N2=1.3354         C5-C7=1.3657         
C5-H24=1.0841        C6-C3=1.3900         C6-C12=1.3834        C6-H15=1.0798        C7-C5=1.3657         C7-C9=1.4379         
C7-C10=1.4575        N8-C10=1.3667        N8-C11=1.3869        N8-H17=1.0060        C9-C7=1.4379         C9-C11=1.3471        
C9-H21=1.0718        C10-C7=1.4575        C10-N8=1.3667        C10-O18=1.2328       C11-N8=1.3869        C11-C9=1.3471        
C11-H22=1.0730       C12-C6=1.3834        C12-C14=1.3849       C12-H19=1.0798       C13-C4=1.3835        C13-C14=1.3847       
C13-H20=1.0798       C14-C12=1.3849       C14-C13=1.3847       C14-H23=1.0796       H15-C6=1.0798        H16-C4=1.0799        
H17-N8=1.0060        O18-C10=1.2328       H19-C12=1.0798       H20-C13=1.0798       H21-C9=1.0718        H22-C11=1.0730       
H23-C14=1.0796       H24-C5=1.0841        
 C  H  Rav=1.0785 sigma=0.0038  Rmin=1.0718  Rmax=1.0841     8
 C  C  Rav=1.3925 sigma=0.0306  Rmin=1.3471  Rmax=1.4575    10
 N  H  Rav=1.0163 sigma=0.0103  Rmin=1.0060  Rmax=1.0266     2
 N  C  Rav=1.3750 sigma=0.0278  Rmin=1.3354  Rmax=1.4112     4
 O  C  Rav=1.2328 sigma=0.0000  Rmin=1.2328  Rmax=1.2328     1

 selected bond angles (degree)
 --------------------
C3-N2-H1=120.95                C5-N2-H1=114.10                C5-N2-C3=124.95                C4-C3-N2=120.07                
C6-C3-N2=120.06                C6-C3-C4=119.84                C13-C4-C3=119.93               H16-C4-C3=119.30               
H16-C4-C13=120.77              C7-C5-N2=121.03                H24-C5-N2=117.22               H24-C5-C7=121.71               
C12-C6-C3=119.92               H15-C6-C3=119.34               H15-C6-C12=120.75              C9-C7-C5=131.30                
C10-C7-C5=122.02               C10-C7-C9=106.67               C11-N8-C10=110.44              H17-N8-C10=124.39              
H17-N8-C11=125.17              C11-C9-C7=107.41               H21-C9-C7=125.46               H21-C9-C11=127.13              
N8-C10-C7=105.59               O18-C10-C7=128.50              O18-C10-N8=125.90              

 selected dihedral angles (degree)
 ---------------------------------
C4-C3-N2-H1=260.97            C4-C3-N2-C5= 81.98            C6-C3-N2-H1= 78.83            C6-C3-N2-C5=259.85            
C13-C4-C3-N2=179.00           C13-C4-C3-C6=  1.13           H16-C4-C3-N2=358.53           H16-C4-C3-C6=180.66           
C7-C5-N2-H1=  1.66            C7-C5-N2-C3=180.71            H24-C5-N2-H1=183.94           H24-C5-N2-C3=  2.99           
C12-C6-C3-N2=181.13           C12-C6-C3-C4=359.00           H15-C6-C3-N2=  1.29           H15-C6-C3-C4=179.16           
C9-C7-C5-N2=181.98            C9-C7-C5-H24=359.60           C10-C7-C5-N2=  0.07           C10-C7-C5-H24=177.69          
C11-C9-C7-C5=178.61           C11-C9-C7-C10=  0.30          H21-C9-C7-C5=358.36           H21-C9-C7-C10=180.05          
N8-C10-C7-C5=181.23           N8-C10-C7-C9=359.73           O18-C10-C7-C5=  0.67          O18-C10-C7-C9=179.17          
C7-C10-N8-C11=  0.15          C7-C10-N8-H17=179.98          O18-C10-N8-C11=180.68         O18-C10-N8-H17=  0.52         
           -------------------------------------------------
          |                Final Singlepoint                |
           -------------------------------------------------

          ...................................................
          :                      SETUP                      :
          :.................................................:
          :  # basis functions                  66          :
          :  # atomic orbitals                  66          :
          :  # shells                           38          :
          :  # electrons                        70          :
          :  max. iterations                   250          :
          :  Hamiltonian                  GFN2-xTB          :
          :  restarted?                      false          :
          :  GBSA solvation                  false          :
          :  PC potential                    false          :
          :  electronic temp.          300.0000000     K    :
          :  accuracy                    1.0000000          :
          :  -> integral cutoff          0.2500000E+02      :
          :  -> integral neglect         0.1000000E-07      :
          :  -> SCF convergence          0.1000000E-05 Eh   :
          :  -> wf. convergence          0.1000000E-03 e    :
          :  Broyden damping             0.4000000          :
          ...................................................

 iter      E             dE          RMSdq      gap      omega  full diag
   1    -39.1814539 -0.391815E+02  0.376E-05    2.49       0.0  T
   2    -39.1814539 -0.218847E-11  0.227E-05    2.49     900.8  T
   3    -39.1814539  0.653699E-12  0.142E-05    2.49    1437.6  T

   *** convergence criteria satisfied after 3 iterations ***

         #    Occupation            Energy/Eh            Energy/eV
      -------------------------------------------------------------
         1        2.0000           -0.6768774             -18.4188
       ...           ...                  ...                  ...
        29        2.0000           -0.4424836             -12.0406
        30        2.0000           -0.4358921             -11.8612
        31        2.0000           -0.4184680             -11.3871
        32        2.0000           -0.4157139             -11.3122
        33        2.0000           -0.3923533             -10.6765
        34        2.0000           -0.3752952             -10.2123
        35        2.0000           -0.3439921              -9.3605 (HOMO)
        36                         -0.2526156              -6.8740 (LUMO)
        37                         -0.2367765              -6.4430
        38                         -0.2364611              -6.4344
        39                         -0.1640031              -4.4628
        40                         -0.1078537              -2.9348
       ...                                ...                  ...
        66                          0.7443933              20.2560
      -------------------------------------------------------------
                  HL-Gap            0.0913765 Eh            2.4865 eV
             Fermi-level           -0.2983039 Eh           -8.1173 eV

 SCC (total)                   0 d,  0 h,  0 min,  0.643 sec
 SCC setup                      ...        0 min,  0.014 sec (  2.114%)
 Dispersion                     ...        0 min,  0.020 sec (  3.118%)
 classical contributions        ...        0 min,  0.025 sec (  3.905%)
 integral evaluation            ...        0 min,  0.031 sec (  4.790%)
 iterations                     ...        0 min,  0.385 sec ( 59.780%)
 molecular gradient             ...        0 min,  0.164 sec ( 25.415%)
 printout                       ...        0 min,  0.005 sec (  0.842%)

         :::::::::::::::::::::::::::::::::::::::::::::::::::::
         ::                     SUMMARY                     ::
         :::::::::::::::::::::::::::::::::::::::::::::::::::::
         :: total energy             -38.551675482317 Eh    ::
         :: gradient norm              0.000225184280 Eh/a0 ::
         :: HOMO-LUMO gap              2.486480136038 eV    ::
         ::.................................................::
         :: SCC energy               -39.181453861321 Eh    ::
         :: -> isotropic ES            0.047036847154 Eh    ::
         :: -> anisotropic ES          0.000532350675 Eh    ::
         :: -> anisotropic XC          0.018611199368 Eh    ::
         :: -> dispersion             -0.022115654031 Eh    ::
         :: repulsion energy           0.629906772202 Eh    ::
         :: add. restraining           0.000001916330 Eh    ::
         :: total charge              -0.000000000000 e     ::
         :::::::::::::::::::::::::::::::::::::::::::::::::::::

           -------------------------------------------------
          |                Property Printout                |
           -------------------------------------------------

    * Orbital Energies and Occupations

         #    Occupation            Energy/Eh            Energy/eV
      -------------------------------------------------------------
         1        2.0000           -0.6768774             -18.4188
       ...           ...                  ...                  ...
        23        2.0000           -0.4844182             -13.1817
        24        2.0000           -0.4752900             -12.9333
        25        2.0000           -0.4734222             -12.8825
        26        2.0000           -0.4644183             -12.6375
        27        2.0000           -0.4578543             -12.4588
        28        2.0000           -0.4494350             -12.2297
        29        2.0000           -0.4424836             -12.0406
        30        2.0000           -0.4358921             -11.8612
        31        2.0000           -0.4184680             -11.3871
        32        2.0000           -0.4157139             -11.3122
        33        2.0000           -0.3923533             -10.6765
        34        2.0000           -0.3752952             -10.2123
        35        2.0000           -0.3439921              -9.3605 (HOMO)
        36                         -0.2526156              -6.8740 (LUMO)
        37                         -0.2367765              -6.4430
        38                         -0.2364611              -6.4344
        39                         -0.1640031              -4.4628
        40                         -0.1078537              -2.9348
        41                         -0.1039149              -2.8277
        42                          0.0119903               0.3263
        43                          0.0387358               1.0541
        44                          0.1132802               3.0825
        45                          0.1160011               3.1566
        46                          0.1362954               3.7088
       ...                                ...                  ...
        66                          0.7443933              20.2560
      -------------------------------------------------------------
                  HL-Gap            0.0913765 Eh            2.4865 eV
             Fermi-level           -0.2983039 Eh           -8.1173 eV

     #   Z          covCN         q      C6AA      α(0)
     1   1 H        0.859     0.228     0.973     1.545
     2   7 N        2.699    -0.128    23.789     7.244
     3   6 C        2.912     0.069    26.460     8.435
     4   6 C        2.923    -0.040    28.993     8.830
     5   6 C        2.834     0.047    26.932     8.504
     6   6 C        2.923    -0.041    29.017     8.834
     7   6 C        3.091    -0.075    29.753     8.941
     8   7 N        2.776    -0.147    24.186     7.304
     9   6 C        2.982    -0.071    29.765     8.949
    10   6 C        2.874     0.255    22.732     7.816
    11   6 C        2.992    -0.000    28.026     8.684
    12   6 C        2.920    -0.027    28.667     8.780
    13   6 C        2.920    -0.027    28.673     8.781
    14   6 C        2.920    -0.030    28.758     8.794
    15   1 H        0.926     0.045     2.388     2.416
    16   1 H        0.926     0.044     2.394     2.420
    17   1 H        0.860     0.167     1.291     1.780
    18   8 O        0.857    -0.494    23.645     6.519
    19   1 H        0.926     0.040     2.442     2.444
    20   1 H        0.926     0.040     2.444     2.445
    21   1 H        0.926     0.030     2.590     2.517
    22   1 H        0.926     0.032     2.554     2.499
    23   1 H        0.926     0.039     2.462     2.454
    24   1 H        0.925     0.044     2.395     2.420

 Mol. C6AA /au·bohr⁶  :       7630.411114
 Mol. C8AA /au·bohr⁸  :     185782.502952
 Mol. α(0) /au        :        139.354762


Wiberg/Mayer (AO) data.
largest (>0.10) Wiberg bond orders for each atom

 ---------------------------------------------------------------------------
     #   Z sym  total        # sym  WBO       # sym  WBO       # sym  WBO
 ---------------------------------------------------------------------------
     1   1 H    0.948 --     2 N    0.865
     2   7 N    3.517 --     5 C    1.329     3 C    1.014     1 H    0.865
                             7 C    0.105
     3   6 C    3.967 --     4 C    1.398     6 C    1.397     2 N    1.014
                            14 C    0.107
     4   6 C    3.989 --    13 C    1.444     3 C    1.398    16 H    0.969
                            12 C    0.111
     5   6 C    3.971 --     7 C    1.480     2 N    1.329    24 H    0.960
     6   6 C    3.989 --    12 C    1.445     3 C    1.397    15 H    0.969
                            13 C    0.111
     7   6 C    3.966 --     5 C    1.480     9 C    1.156    10 C    1.081
                             2 N    0.105
     8   7 N    3.511 --    10 C    1.181    11 C    1.125    17 H    0.943
                            18 O    0.142
     9   6 C    3.978 --    11 C    1.697     7 C    1.156    21 H    0.972
    10   6 C    3.952 --    18 O    1.557     8 N    1.181     7 C    1.081
    11   6 C    3.947 --     9 C    1.697     8 N    1.125    22 H    0.970
    12   6 C    3.991 --     6 C    1.445    14 C    1.438    19 H    0.970
                             4 C    0.111
    13   6 C    3.991 --     4 C    1.444    14 C    1.439    20 H    0.970
                             6 C    0.111
    14   6 C    3.990 --    13 C    1.439    12 C    1.438    23 H    0.971
                             3 C    0.107
    15   1 H    0.998 --     6 C    0.969
    16   1 H    0.998 --     4 C    0.969
    17   1 H    0.971 --     8 N    0.943
    18   8 O    1.970 --    10 C    1.557     8 N    0.142
    19   1 H    0.997 --    12 C    0.970
    20   1 H    0.997 --    13 C    0.970
    21   1 H    0.999 --     9 C    0.972
    22   1 H    0.998 --    11 C    0.970
    23   1 H    0.998 --    14 C    0.971
    24   1 H    0.997 --     5 C    0.960
 ---------------------------------------------------------------------------

Topologies differ in total number of bonds
Writing topology from bond orders to xtbtopo.mol

molecular dipole:
                 x           y           z       tot (Debye)
 q only:        0.182      -1.121      -0.006
   full:       -0.079      -0.949      -0.023       2.421
molecular quadrupole (traceless):
                xx          xy          yy          xz          yz          zz
 q only:        6.040      -7.472      -5.162       0.909      -1.059      -0.878
  q+dip:        5.269     -13.171      -3.295       1.096      -1.009      -1.973
   full:        5.413     -10.967      -3.757       0.819      -1.178      -1.655

           -------------------------------------------------
          |                Geometry Summary                 |
           -------------------------------------------------

      molecular mass/u    :      186.2103137
   center of mass at/Å    :       -0.0407784       0.1169785       0.0738580
  moments of inertia/u·Å² :        0.2147040E+03   0.1672280E+04   0.1721429E+04
rotational constants/cm⁻¹ :        0.7851570E-01   0.1008063E-01   0.9792812E-02

 * 24 selected distances

     #   Z          #   Z                                           value/Å
     1   1 H        2   7 N                                       1.0266256
     2   7 N        3   6 C                                       1.4111556
     3   6 C        4   6 C                                       1.3898215
     2   7 N        5   6 C                                       1.3354188
     3   6 C        6   6 C                                       1.3900293
     5   6 C        7   6 C                                       1.3656623
     7   6 C        9   6 C                                       1.4378604 (max)
     8   7 N       10   6 C                                       1.3667412
     8   7 N       11   6 C                                       1.3868831
     9   6 C       11   6 C                                       1.3471459
     6   6 C       12   6 C                                       1.3833719
     4   6 C       13   6 C                                       1.3835284
    12   6 C       14   6 C                                       1.3849345
    13   6 C       14   6 C                                       1.3847363
     6   6 C       15   1 H                                       1.0798122
     4   6 C       16   1 H                                       1.0799001
     8   7 N       17   1 H                                       1.0060345 (min)
    10   6 C       18   8 O                                       1.2328474
    12   6 C       19   1 H                                       1.0798374
    13   6 C       20   1 H                                       1.0798489
     9   6 C       21   1 H                                       1.0718349
    11   6 C       22   1 H                                       1.0729729
    14   6 C       23   1 H                                       1.0796225
     5   6 C       24   1 H                                       1.0841472

 * 5 distinct bonds (by element types)

   Z      Z             #   av. dist./Å        max./Å        min./Å
   1 H    6 C           8     1.0784970     1.0841472     1.0718349
   6 C    6 C           9     1.3852323     1.4378604     1.3471459
   1 H    7 N           2     1.0163301     1.0266256     1.0060345
   6 C    7 N           4     1.3750497     1.4111556     1.3354188
   6 C    8 O           1     1.2328474     1.2328474     1.2328474


optimized geometry written to: xtbopt.xyz


           -------------------------------------------------
          | TOTAL ENERGY              -38.551675482317 Eh   |
          | GRADIENT NORM               0.000225184280 Eh/α |
          | HOMO-LUMO GAP               2.486480136038 eV   |
           -------------------------------------------------
########################################################################
[WARNING] Runtime exception occurred
-1- restart_readRestart: Number of electron missmatch in restart file.
########################################################################

------------------------------------------------------------------------
 * finished run on 2023/11/18 at 08:36:09.162     
------------------------------------------------------------------------
 total:
 * wall-time:     0 d,  0 h,  0 min, 16.706 sec
 *  cpu-time:     0 d,  0 h, 12 min, 13.496 sec
 * ratio c/w:    43.907 speedup
 SCF:
 * wall-time:     0 d,  0 h,  0 min,  1.484 sec
 *  cpu-time:     0 d,  0 h,  1 min,  5.834 sec
 * ratio c/w:    44.367 speedup
 ANC optimizer:
 * wall-time:     0 d,  0 h,  0 min, 15.029 sec
 *  cpu-time:     0 d,  0 h, 10 min, 59.994 sec
 * ratio c/w:    43.914 speedup

