      -----------------------------------------------------------      
     |                   =====================                   |     
     |                           x T B                           |     
     |                   =====================                   |     
     |                         S. Grimme                         |     
     |          Mulliken Center for Theoretical Chemistry        |     
     |                    University of Bonn                     |     
      -----------------------------------------------------------      

   * xtb version 6.5.0 (97a52f5) compiled by 'conda@d2599ee0d4f4' on 2022-05-15

   xtb is free software: you can redistribute it and/or modify it under
   the terms of the GNU Lesser General Public License as published by
   the Free Software Foundation, either version 3 of the License, or
   (at your option) any later version.
   
   xtb is distributed in the hope that it will be useful,
   but WITHOUT ANY WARRANTY; without even the implied warranty of
   MERCHANTABILITY or FITNESS FOR A PARTICULAR PURPOSE.  See the
   GNU Lesser General Public License for more details.
   
   Cite this work as:
   * C. Bannwarth, E. Caldeweyher, S. Ehlert, A. Hansen, P. Pracht,
     J. Seibert, S. Spicher, S. Grimme, WIREs Comput. Mol. Sci., 2020, 11,
     e01493. DOI: 10.1002/wcms.1493
   
   for GFN2-xTB:
   * C. Bannwarth, S. Ehlert and S. Grimme., J. Chem. Theory Comput., 2019,
     15, 1652-1671. DOI: 10.1021/acs.jctc.8b01176
   for GFN1-xTB:
   * S. Grimme, C. Bannwarth, P. Shushkov, J. Chem. Theory Comput., 2017,
     13, 1989-2009. DOI: 10.1021/acs.jctc.7b00118
   for GFN0-xTB:
   * P. Pracht, E. Caldeweyher, S. Ehlert, S. Grimme, ChemRxiv, 2019, preprint.
     DOI: 10.26434/chemrxiv.8326202.v1
   for GFN-FF:
   * S. Spicher and S. Grimme, Angew. Chem. Int. Ed., 2020, 59, 15665-15673.
     DOI: 10.1002/anie.202004239
   
   for ALPB and GBSA implicit solvation:
   * S. Ehlert, M. Stahn, S. Spicher, S. Grimme, J. Chem. Theory Comput.,
     2021, 17, 4250-4261. DOI: 10.1021/acs.jctc.1c00471
   
   for DFT-D4:
   * E. Caldeweyher, C. Bannwarth and S. Grimme, J. Chem. Phys., 2017,
     147, 034112. DOI: 10.1063/1.4993215
   * E. Caldeweyher, S. Ehlert, A. Hansen, H. Neugebauer, S. Spicher,
     C. Bannwarth and S. Grimme, J. Chem. Phys., 2019, 150, 154122.
     DOI: 10.1063/1.5090222
   * E. Caldeweyher, J.-M. Mewes, S. Ehlert and S. Grimme, Phys. Chem. Chem. Phys.
     2020, 22, 8499-8512. DOI: 10.1039/D0CP00502A
   
   for sTDA-xTB:
   * S. Grimme and C. Bannwarth, J. Chem. Phys., 2016, 145, 054103.
     DOI: 10.1063/1.4959605
   
   in the mass-spec context:
   * V. Asgeirsson, C. Bauer and S. Grimme, Chem. Sci., 2017, 8, 4879.
     DOI: 10.1039/c7sc00601b
   * J. Koopman and S. Grimme, ACS Omega 2019, 4, 12, 15120-15133.
     DOI: 10.1021/acsomega.9b02011
   
   for metadynamics refer to:
   * S. Grimme, J. Chem. Theory Comput., 2019, 155, 2847-2862
     DOI: 10.1021/acs.jctc.9b00143
   
   for SPH calculations refer to:
   * S. Spicher and S. Grimme, J. Chem. Theory Comput., 2021, 17, 1701-1714
     DOI: 10.1021/acs.jctc.0c01306
   
   with help from (in alphabetical order)
   P. Atkinson, C. Bannwarth, F. Bohle, G. Brandenburg, E. Caldeweyher
   M. Checinski, S. Dohm, S. Ehlert, S. Ehrlich, I. Gerasimov, C. Hölzer
   A. Katbashev, J. Koopman, C. Lavigne, S. Lehtola, F. März, M. Müller,
   F. Musil, H. Neugebauer, J. Pisarek, C. Plett, P. Pracht, F. Pultar,
   J. Seibert, P. Shushkov, S. Spicher, M. Stahn, M. Steiner, T. Strunk,
   J. Stückrath, T. Rose, and J. Unsleber
   
 * started run on 2023/11/18 at 08:34:32.820     

           -------------------------------------------------
          |                Calculation Setup                |
           -------------------------------------------------

          program call               : /home/liuchw/anaconda3/envs/xtbenv/bin/xtb --gfn 2 --chrg 0 --uhf 0 1_16_Index_0-opt-2-3-201_preQMOPTprefit_xyzformat.xyz --opt --input xtb-opt-2-3-201_constr.txt
          hostname                   : node165.bme.utexas.edu
          coordinate file            : 1_16_Index_0-opt-2-3-201_preQMOPTprefit_xyzformat.xyz
          omp threads                :                    64

   ID    Z sym.   atoms
    1    1 H      1, 15-17, 19-24
    2    7 N      2, 8
    3    6 C      3-7, 9-14
    4    8 O      18
constraining angle 1 2 3 4 to  201.0130543°, actual value: -158.9869457°
constraining angle 5 2 3 4 to   22.0448716°, actual value:   22.0448716°
constraining angle 1 2 5 24 to  183.9788311°, actual value: -176.0211689°
constraining angle 3 2 5 24 to    2.9968643°, actual value:    2.9968643°
constraining angle 2 5 7 9 to  182.0025275°, actual value: -177.9974725°

           -------------------------------------------------
          |                 G F N 2 - x T B                 |
           -------------------------------------------------

        Reference                      10.1021/acs.jctc.8b01176
      * Hamiltonian:
        H0-scaling (s, p, d)           1.850000    2.230000    2.230000
        zeta-weighting                 0.500000
      * Dispersion:
        s8                             2.700000
        a1                             0.520000
        a2                             5.000000
        s9                             5.000000
      * Repulsion:
        kExp                           1.500000    1.000000
        rExp                           1.000000
      * Coulomb:
        alpha                          2.000000
        third order                    shell-resolved
        anisotropic                    true
        a3                             3.000000
        a5                             4.000000
        cn-shift                       1.200000
        cn-exp                         4.000000
        max-rad                        5.000000

q/qsh data taken from xtbrestart
CAMM data taken from xtbrestart

          ...................................................
          :                      SETUP                      :
          :.................................................:
          :  # basis functions                  66          :
          :  # atomic orbitals                  66          :
          :  # shells                           38          :
          :  # electrons                        70          :
          :  max. iterations                   250          :
          :  Hamiltonian                  GFN2-xTB          :
          :  restarted?                       true          :
          :  GBSA solvation                  false          :
          :  PC potential                    false          :
          :  electronic temp.          300.0000000     K    :
          :  accuracy                    1.0000000          :
          :  -> integral cutoff          0.2500000E+02      :
          :  -> integral neglect         0.1000000E-07      :
          :  -> SCF convergence          0.1000000E-05 Eh   :
          :  -> wf. convergence          0.1000000E-03 e    :
          :  Broyden damping             0.4000000          :
          ...................................................

 iter      E             dE          RMSdq      gap      omega  full diag
   1    -39.1087193 -0.391087E+02  0.181E+00    2.08       0.0  T
   2    -39.1091929 -0.473583E-03  0.106E+00    2.10       1.0  T
   3    -39.1079671  0.122573E-02  0.235E-01    2.07       1.0  T
   4    -39.1093661 -0.139896E-02  0.455E-02    2.10       1.0  T
   5    -39.1094001 -0.340113E-04  0.210E-02    2.10       1.0  T
   6    -39.1094029 -0.284101E-05  0.133E-02    2.10       1.5  T
   7    -39.1094048 -0.185773E-05  0.391E-03    2.10       5.2  T
   8    -39.1094049 -0.145706E-06  0.135E-03    2.10      15.1  T
   9    -39.1094050 -0.107669E-07  0.682E-04    2.10      29.9  T
  10    -39.1094050 -0.363468E-08  0.304E-04    2.10      67.2  T

   *** convergence criteria satisfied after 10 iterations ***

         #    Occupation            Energy/Eh            Energy/eV
      -------------------------------------------------------------
         1        2.0000           -0.6768047             -18.4168
       ...           ...                  ...                  ...
        29        2.0000           -0.4412231             -12.0063
        30        2.0000           -0.4310410             -11.7292
        31        2.0000           -0.4198194             -11.4239
        32        2.0000           -0.4090995             -11.1322
        33        2.0000           -0.3889854             -10.5848
        34        2.0000           -0.3812287             -10.3738
        35        2.0000           -0.3502836              -9.5317 (HOMO)
        36                         -0.2731711              -7.4334 (LUMO)
        37                         -0.2342340              -6.3738
        38                         -0.2202887              -5.9944
        39                         -0.1769171              -4.8142
        40                         -0.1240482              -3.3755
       ...                                ...                  ...
        66                          0.6734773              18.3262
      -------------------------------------------------------------
                  HL-Gap            0.0771125 Eh            2.0983 eV
             Fermi-level           -0.3117273 Eh           -8.4825 eV

 SCC (total)                   0 d,  0 h,  0 min,  1.868 sec
 SCC setup                      ...        0 min,  0.012 sec (  0.647%)
 Dispersion                     ...        0 min,  0.035 sec (  1.865%)
 classical contributions        ...        0 min,  0.014 sec (  0.772%)
 integral evaluation            ...        0 min,  0.039 sec (  2.089%)
 iterations                     ...        0 min,  1.568 sec ( 83.909%)
 molecular gradient             ...        0 min,  0.188 sec ( 10.042%)
 printout                       ...        0 min,  0.012 sec (  0.657%)

         :::::::::::::::::::::::::::::::::::::::::::::::::::::
         ::                     SUMMARY                     ::
         :::::::::::::::::::::::::::::::::::::::::::::::::::::
         :: total energy             -38.551667378914 Eh    ::
         :: gradient norm              0.066354605432 Eh/a0 ::
         :: HOMO-LUMO gap              2.098337938308 eV    ::
         ::.................................................::
         :: SCC energy               -39.109404953947 Eh    ::
         :: -> isotropic ES            0.046466796348 Eh    ::
         :: -> anisotropic ES          0.001396804313 Eh    ::
         :: -> anisotropic XC          0.020108868353 Eh    ::
         :: -> dispersion             -0.021724043159 Eh    ::
         :: repulsion energy           0.557911116723 Eh    ::
         :: add. restraining           0.000000000000 Eh    ::
         :: total charge               0.000000000000 e     ::
         :::::::::::::::::::::::::::::::::::::::::::::::::::::

      ----------------------------------------------------------- 
     |                   =====================                   |
     |                        A N C O P T                        |
     |                   =====================                   |
     |               Approximate Normal Coordinate               |
     |                Rational Function Optimizer                |
      ----------------------------------------------------------- 

          ...................................................
          :                      SETUP                      :
          :.................................................:
          :   optimization level            normal          :
          :   max. optcycles                   200          :
          :   ANC micro-cycles                  20          :
          :   degrees of freedom                66          :
          :.................................................:
          :   RF solver                   davidson          :
          :   write xtbopt.log                true          :
          :   linear?                        false          :
          :   energy convergence         0.5000000E-05 Eh   :
          :   grad. convergence          0.1000000E-02 Eh/α :
          :   maximium RF displ.         1.0000000          :
          :   Hlow (freq-cutoff)         0.1000000E-01      :
          :   Hmax (freq-cutoff)         5.0000000          :
          :   S6 in model hess.         20.0000000          :
          ...................................................

generating ANC from model Hessian ...
Using Lindh-Hessian (1995)
 Shifting diagonal of input Hessian by    8.6486224138321924E-003
 Lowest  eigenvalues of input Hessian
    0.000000    0.000000    0.000000    0.000000    0.000000    0.000000
    0.010000    0.010673    0.011581    0.015363    0.019708    0.021802
    0.022533    0.029241    0.029664    0.033124    0.034956    0.041158
 Highest eigenvalues
    2.080416    2.281329    2.809204    5.613221    8.999120   24.550188


........................................................................
.............................. CYCLE    1 ..............................
........................................................................
   1    -39.1094050 -0.391094E+02  0.117E-04    2.10       0.0  T
   2    -39.1094050 -0.417515E-10  0.738E-05    2.10     276.6  T
   3    -39.1094050 -0.209610E-10  0.499E-05    2.10     408.8  T
     SCC iter.                  ...        0 min,  0.476 sec
     gradient                   ...        0 min,  0.169 sec
 * total energy  :   -38.5516674 Eh     change       -0.6344294E-09 Eh
   gradient norm :     0.0663551 Eh/α   predicted     0.0000000E+00 (-100.00%)
   displ. norm   :     0.3335867 α      lambda       -0.1238879E-01
   maximum displ.:     0.1712487 α      in ANC's #10, #7, #30, ...

........................................................................
.............................. CYCLE    2 ..............................
........................................................................
   1    -39.1693294 -0.391693E+02  0.216E-01    2.21       0.0  T
   2    -39.1694877 -0.158325E-03  0.132E-01    2.19       1.0  T
   3    -39.1694929 -0.523807E-05  0.733E-02    2.20       1.0  T
   4    -39.1695291 -0.362050E-04  0.175E-02    2.20       1.2  T
   5    -39.1695349 -0.574580E-05  0.536E-03    2.20       3.8  T
   6    -39.1695351 -0.195655E-06  0.252E-03    2.20       8.1  T
   7    -39.1695351 -0.319231E-07  0.981E-04    2.20      20.8  T
   8    -39.1695351 -0.479061E-08  0.465E-04    2.20      43.9  T
     SCC iter.                  ...        0 min,  1.120 sec
     gradient                   ...        0 min,  0.156 sec
 * total energy  :   -38.5598211 Eh     change       -0.8153742E-02 Eh
   gradient norm :     0.0252924 Eh/α   predicted    -0.6884583E-02 ( -15.57%)
   displ. norm   :     0.2732792 α      lambda       -0.2561228E-02
   maximum displ.:     0.1494693 α      in ANC's #10, #7, #5, ...

........................................................................
.............................. CYCLE    3 ..............................
........................................................................
   1    -39.1944688 -0.391945E+02  0.123E-01    2.25       0.0  T
   2    -39.1945124 -0.435676E-04  0.798E-02    2.24       1.0  T
   3    -39.1945091  0.326166E-05  0.441E-02    2.25       1.0  T
   4    -39.1945289 -0.198104E-04  0.150E-02    2.24       1.4  T
   5    -39.1945331 -0.417052E-05  0.428E-03    2.25       4.8  T
   6    -39.1945333 -0.252434E-06  0.190E-03    2.25      10.7  T
   7    -39.1945334 -0.204380E-07  0.754E-04    2.25      27.1  T
   8    -39.1945334 -0.546814E-08  0.246E-04    2.25      83.1  T
     SCC iter.                  ...        0 min,  1.149 sec
     gradient                   ...        0 min,  0.177 sec
 * total energy  :   -38.5609951 Eh     change       -0.1174014E-02 Eh
   gradient norm :     0.1061804 Eh/α   predicted    -0.1376841E-02 (  17.28%)
   displ. norm   :     0.2439575 α      lambda       -0.1986398E-02
   maximum displ.:     0.1269452 α      in ANC's #7, #10, #5, ...

........................................................................
.............................. CYCLE    4 ..............................
........................................................................
   1    -39.2081656 -0.392082E+02  0.109E-01    2.28       0.0  T
   2    -39.2081872 -0.215782E-04  0.697E-02    2.27       1.0  T
   3    -39.2081736  0.136117E-04  0.383E-02    2.28       1.0  T
   4    -39.2081974 -0.238386E-04  0.108E-02    2.27       1.9  T
   5    -39.2081995 -0.212894E-05  0.321E-03    2.27       6.4  T
   6    -39.2081997 -0.129401E-06  0.138E-03    2.27      14.8  T
   7    -39.2081997 -0.537581E-08  0.513E-04    2.27      39.8  T
   8    -39.2081997 -0.285964E-08  0.167E-04    2.27     122.4  T
     SCC iter.                  ...        0 min,  1.225 sec
     gradient                   ...        0 min,  0.216 sec
 * total energy  :   -38.5596408 Eh     change        0.1354374E-02 Eh
   gradient norm :     0.2633417 Eh/α   predicted    -0.1052310E-02 (-177.70%)
   displ. norm   :     0.1153417 α      lambda       -0.3463320E-02
   maximum displ.:     0.0692955 α      in ANC's #10, #7, #11, ...

........................................................................
.............................. CYCLE    5 ..............................
........................................................................
   1    -39.1949309 -0.391949E+02  0.628E-02    2.24       0.0  T
   2    -39.1949441 -0.131727E-04  0.397E-02    2.24       1.0  T
   3    -39.1949442 -0.919008E-07  0.211E-02    2.24       1.0  T
   4    -39.1949479 -0.367956E-05  0.646E-03    2.24       3.2  T
   5    -39.1949486 -0.727829E-06  0.211E-03    2.24       9.7  T
   6    -39.1949487 -0.578807E-07  0.111E-03    2.24      18.4  T
   7    -39.1949487 -0.117348E-07  0.408E-04    2.24      50.0  T
   8    -39.1949487 -0.148197E-08  0.135E-04    2.24     151.5  T
     SCC iter.                  ...        0 min,  1.117 sec
     gradient                   ...        0 min,  0.180 sec
 * total energy  :   -38.5614404 Eh     change       -0.1799604E-02 Eh
   gradient norm :     0.0077609 Eh/α   predicted    -0.1754817E-02 (  -2.49%)
   displ. norm   :     0.0480625 α      lambda       -0.5176778E-04
   maximum displ.:     0.0388601 α      in ANC's #2, #3, #5, ...

........................................................................
.............................. CYCLE    6 ..............................
........................................................................
   1    -39.1932769 -0.391933E+02  0.236E-02    2.24       0.0  T
   2    -39.1932771 -0.240069E-06  0.138E-02    2.24       1.5  T
   3    -39.1932768  0.378632E-06  0.505E-03    2.24       4.0  T
   4    -39.1932772 -0.435639E-06  0.113E-03    2.24      18.1  T
   5    -39.1932772 -0.244665E-07  0.375E-04    2.24      54.4  T
   6    -39.1932772 -0.147880E-08  0.185E-04    2.24     110.5  T
     SCC iter.                  ...        0 min,  0.899 sec
     gradient                   ...        0 min,  0.194 sec
 * total energy  :   -38.5614799 Eh     change       -0.3955496E-04 Eh
   gradient norm :     0.0027665 Eh/α   predicted    -0.2594629E-04 ( -34.40%)
   displ. norm   :     0.0825192 α      lambda       -0.4908854E-04
   maximum displ.:     0.0671520 α      in ANC's #2, #3, #5, ...

........................................................................
.............................. CYCLE    7 ..............................
........................................................................
   1    -39.1921267 -0.391921E+02  0.389E-02    2.23       0.0  T
   2    -39.1921271 -0.336728E-06  0.226E-02    2.23       1.0  T
   3    -39.1921256  0.147752E-05  0.913E-03    2.24       2.2  T
   4    -39.1921272 -0.162893E-05  0.155E-03    2.23      13.1  T
   5    -39.1921273 -0.520776E-07  0.436E-04    2.23      46.8  T
   6    -39.1921273 -0.136944E-08  0.236E-04    2.23      86.7  T
     SCC iter.                  ...        0 min,  0.798 sec
     gradient                   ...        0 min,  0.172 sec
 * total energy  :   -38.5615113 Eh     change       -0.3133430E-04 Eh
   gradient norm :     0.0054464 Eh/α   predicted    -0.2471277E-04 ( -21.13%)
   displ. norm   :     0.0473912 α      lambda       -0.1636283E-04
   maximum displ.:     0.0422973 α      in ANC's #2, #3, #5, ...

........................................................................
.............................. CYCLE    8 ..............................
........................................................................
   1    -39.1923867 -0.391924E+02  0.213E-02    2.23       0.0  T
   2    -39.1923867 -0.586726E-07  0.124E-02    2.23       1.6  T
   3    -39.1923862  0.483050E-06  0.487E-03    2.24       4.2  T
   4    -39.1923868 -0.533934E-06  0.604E-04    2.23      33.8  T
   5    -39.1923868 -0.727268E-08  0.230E-04    2.23      88.9  T
     SCC iter.                  ...        0 min,  0.678 sec
     gradient                   ...        0 min,  0.161 sec
 * total energy  :   -38.5615226 Eh     change       -0.1138347E-04 Eh
   gradient norm :     0.0036741 Eh/α   predicted    -0.8224477E-05 ( -27.75%)
   displ. norm   :     0.0295339 α      lambda       -0.9011270E-05
   maximum displ.:     0.0282909 α      in ANC's #2, #1, #4, ...

........................................................................
.............................. CYCLE    9 ..............................
........................................................................
   1    -39.1927792 -0.391928E+02  0.130E-02    2.24       0.0  T
   2    -39.1927793 -0.201182E-07  0.759E-03    2.24       2.7  T
   3    -39.1927792  0.100494E-06  0.206E-03    2.24       9.9  T
   4    -39.1927793 -0.112196E-06  0.317E-04    2.24      64.4  T
   5    -39.1927793 -0.189780E-08  0.151E-04    2.24     135.1  T
     SCC iter.                  ...        0 min,  0.716 sec
     gradient                   ...        0 min,  0.173 sec
 * total energy  :   -38.5615303 Eh     change       -0.7622796E-05 Eh
   gradient norm :     0.0010967 Eh/α   predicted    -0.4538786E-05 ( -40.46%)
   displ. norm   :     0.0424794 α      lambda       -0.7519482E-05
   maximum displ.:     0.0396151 α      in ANC's #2, #1, #4, ...

........................................................................
.............................. CYCLE   10 ..............................
........................................................................
   1    -39.1931517 -0.391932E+02  0.180E-02    2.24       0.0  T
   2    -39.1931517 -0.240752E-07  0.106E-02    2.24       1.9  T
   3    -39.1931517  0.542629E-07  0.144E-03    2.24      14.2  T
   4    -39.1931517 -0.660311E-07  0.236E-04    2.24      86.6  T
   5    -39.1931517 -0.427221E-09  0.136E-04    2.24     150.6  T
     SCC iter.                  ...        0 min,  0.771 sec
     gradient                   ...        0 min,  0.190 sec
 * total energy  :   -38.5615385 Eh     change       -0.8213436E-05 Eh
   gradient norm :     0.0014530 Eh/α   predicted    -0.3764019E-05 ( -54.17%)
   displ. norm   :     0.0286836 α      lambda       -0.3278161E-05
   maximum displ.:     0.0271662 α      in ANC's #2, #3, #1, ...

........................................................................
.............................. CYCLE   11 ..............................
........................................................................
   1    -39.1930149 -0.391930E+02  0.107E-02    2.24       0.0  T
   2    -39.1930149 -0.611900E-08  0.628E-03    2.24       3.3  T
   3    -39.1930149 -0.121943E-09  0.359E-04    2.24      56.9  T
   4    -39.1930149 -0.207724E-08  0.140E-04    2.24     145.5  T
     SCC iter.                  ...        0 min,  0.492 sec
     gradient                   ...        0 min,  0.156 sec
 * total energy  :   -38.5615426 Eh     change       -0.4167673E-05 Eh
   gradient norm :     0.0011034 Eh/α   predicted    -0.1667788E-05 ( -59.98%)
   displ. norm   :     0.0240818 α      lambda       -0.2515033E-05
   maximum displ.:     0.0222791 α      in ANC's #2, #3, #1, ...

........................................................................
.............................. CYCLE   12 ..............................
........................................................................
   1    -39.1928423 -0.391928E+02  0.777E-03    2.23       0.0  T
   2    -39.1928424 -0.651043E-08  0.456E-03    2.23       4.5  T
   3    -39.1928423  0.498446E-08  0.540E-04    2.23      37.8  T
   4    -39.1928424 -0.724254E-08  0.131E-04    2.23     155.6  T
     SCC iter.                  ...        0 min,  0.566 sec
     gradient                   ...        0 min,  0.166 sec
 * total energy  :   -38.5615457 Eh     change       -0.3085178E-05 Eh
   gradient norm :     0.0003339 Eh/α   predicted    -0.1266123E-05 ( -58.96%)
   displ. norm   :     0.0219982 α      lambda       -0.1731205E-05
   maximum displ.:     0.0200060 α      in ANC's #2, #3, #4, ...

   *** GEOMETRY OPTIMIZATION CONVERGED AFTER 12 ITERATIONS ***

------------------------------------------------------------------------
 total energy gain   :        -0.0098783 Eh       -6.1988 kcal/mol
 total RMSD          :         0.1717354 a0        0.0909 Å
 total power (kW/mol):        -2.1613001 (step)   -1.8051 (real)
------------------------------------------------------------------------

 ANCopt (total)                0 d,  0 h,  0 min, 14.368 sec
 optimizer setup                ...        0 min,  0.000 sec (  0.002%)
 model hessian                  ...        0 min,  0.010 sec (  0.070%)
 ANC generation                 ...        0 min,  0.152 sec (  1.058%)
 coordinate transformation      ...        0 min,  0.001 sec (  0.004%)
 single point calculation       ...        0 min, 13.691 sec ( 95.289%)
 optimization log               ...        0 min,  0.003 sec (  0.023%)
 hessian update                 ...        0 min,  0.466 sec (  3.244%)
 rational function              ...        0 min,  0.042 sec (  0.294%)

================
 final structure:
================
24
 xtb: 6.5.0 (97a52f5)
H           -0.75887242144723       -0.84385566219877       -0.58960682461998
N           -0.00534601637289       -0.38796725985742       -0.06348088893352
C            1.18189036660514       -1.07565377501211        0.11731229662068
C            2.08261232510601       -0.76284274196222        1.13554720421591
C           -0.31428558359774        0.84772259549476        0.35424422778143
C            1.45564180576207       -2.15737594885165       -0.72227153611496
C           -1.54567716872761        1.38217204807423        0.10995074332444
N           -3.65237310241781        1.52100003073799       -0.67647830511948
C           -2.08286664981094        2.67896654936337        0.42200690874876
C           -2.59429901210486        0.65836833599269       -0.60718721818963
C           -3.34011160655360        2.72260302892258       -0.05972177755909
C            2.62029771890284       -2.88200100751408       -0.56897772075868
C            3.24720629442544       -1.49312636229728        1.27802306177944
C            3.52494226987011       -2.54999937935894        0.42752378173215
H            0.74630309116531       -2.41461179469722       -1.49521409453459
H            1.87037431383769        0.04402786747708        1.82005884713207
H           -4.53170208871128        1.30657547310613       -1.11577165315281
O           -2.55998918830894       -0.47978446929477       -1.07310628691936
H            2.82472801692853       -3.71118299159285       -1.22974801825804
H            3.93819717960671       -1.24048714697473        2.06874998934557
H           -1.56464609749633        3.45649829188830        0.94675235477599
H           -4.06285840559926        3.51483396998153       -0.02367010825836
H            4.43549336142603       -3.11700038965473        0.54593933834137
H            0.45109059751246        1.42210072822814        0.86041165862070

 Bond Distances (Angstroems)
 ---------------------------
H1-N2=1.0259         N2-H1=1.0259         N2-C3=1.3839         N2-C5=1.3405         C3-N2=1.3839         C3-C4=1.3950         
C3-C6=1.3964         C4-C3=1.3950         C4-C13=1.3820        C4-H16=1.0792        C5-N2=1.3405         C5-C7=1.3644         
C5-H24=1.0826        C6-C3=1.3964         C6-C12=1.3802        C6-H15=1.0802        C7-C5=1.3644         C7-C9=1.4379         
C7-C10=1.4621        N8-C10=1.3669        N8-C11=1.3863        N8-H17=1.0061        C9-C7=1.4379         C9-C11=1.3471        
C9-H21=1.0717        C10-C7=1.4621        C10-N8=1.3669        C10-O18=1.2303       C11-N8=1.3863        C11-C9=1.3471        
C11-H22=1.0730       C12-C6=1.3802        C12-C14=1.3862       C12-H19=1.0798       C13-C4=1.3820        C13-C14=1.3847       
C13-H20=1.0801       C14-C12=1.3862       C14-C13=1.3847       C14-H23=1.0792       H15-C6=1.0802        H16-C4=1.0792        
H17-N8=1.0061        O18-C10=1.2303       H19-C12=1.0798       H20-C13=1.0801       H21-C9=1.0717        H22-C11=1.0730       
H23-C14=1.0792       H24-C5=1.0826        
 C  H  Rav=1.0782 sigma=0.0035  Rmin=1.0717  Rmax=1.0826     8
 C  C  Rav=1.3936 sigma=0.0318  Rmin=1.3471  Rmax=1.4621    10
 N  H  Rav=1.0160 sigma=0.0099  Rmin=1.0061  Rmax=1.0259     2
 N  C  Rav=1.3694 sigma=0.0183  Rmin=1.3405  Rmax=1.3863     4
 O  C  Rav=1.2303 sigma=0.0000  Rmin=1.2303  Rmax=1.2303     1

 selected bond angles (degree)
 --------------------
C3-N2-H1=118.44                C5-N2-H1=113.59                C5-N2-C3=127.96                C4-C3-N2=122.54                
C6-C3-N2=118.33                C6-C3-C4=119.08                C13-C4-C3=120.06               H16-C4-C3=120.24               
H16-C4-C13=119.70              C7-C5-N2=120.88                H24-C5-N2=118.16               H24-C5-C7=120.93               
C12-C6-C3=120.35               H15-C6-C3=119.08               H15-C6-C12=120.57              C9-C7-C5=130.66                
C10-C7-C5=122.76               C10-C7-C9=106.56               C11-N8-C10=110.49              H17-N8-C10=124.35              
H17-N8-C11=125.16              C11-C9-C7=107.47               H21-C9-C7=125.45               H21-C9-C11=127.08              
N8-C10-C7=105.52               O18-C10-C7=128.59              O18-C10-N8=125.89              

 selected dihedral angles (degree)
 ---------------------------------
C4-C3-N2-H1=200.99            C4-C3-N2-C5= 22.02            C6-C3-N2-H1= 18.34            C6-C3-N2-C5=199.37            
C13-C4-C3-N2=179.30           C13-C4-C3-C6=  1.97           H16-C4-C3-N2=359.80           H16-C4-C3-C6=182.47           
C7-C5-N2-H1=  1.91            C7-C5-N2-C3=180.92            H24-C5-N2-H1=183.98           H24-C5-N2-C3=  2.99           
C12-C6-C3-N2=180.73           C12-C6-C3-C4=358.18           H15-C6-C3-N2=  1.06           H15-C6-C3-C4=178.50           
C9-C7-C5-N2=181.99            C9-C7-C5-H24=359.87           C10-C7-C5-N2=  0.14           C10-C7-C5-H24=178.02          
C11-C9-C7-C5=178.64           C11-C9-C7-C10=  0.26          H21-C9-C7-C5=358.42           H21-C9-C7-C10=180.04          
N8-C10-C7-C5=181.26           N8-C10-C7-C9=359.80           O18-C10-C7-C5=  0.64          O18-C10-C7-C9=179.17          
C7-C10-N8-C11=  0.07          C7-C10-N8-H17=180.05          O18-C10-N8-C11=180.68         O18-C10-N8-H17=  0.66         
           -------------------------------------------------
          |                Final Singlepoint                |
           -------------------------------------------------

          ...................................................
          :                      SETUP                      :
          :.................................................:
          :  # basis functions                  66          :
          :  # atomic orbitals                  66          :
          :  # shells                           38          :
          :  # electrons                        70          :
          :  max. iterations                   250          :
          :  Hamiltonian                  GFN2-xTB          :
          :  restarted?                      false          :
          :  GBSA solvation                  false          :
          :  PC potential                    false          :
          :  electronic temp.          300.0000000     K    :
          :  accuracy                    1.0000000          :
          :  -> integral cutoff          0.2500000E+02      :
          :  -> integral neglect         0.1000000E-07      :
          :  -> SCF convergence          0.1000000E-05 Eh   :
          :  -> wf. convergence          0.1000000E-03 e    :
          :  Broyden damping             0.4000000          :
          ...................................................

 iter      E             dE          RMSdq      gap      omega  full diag
   1    -39.1928424 -0.391928E+02  0.734E-05    2.23       0.0  T
   2    -39.1928424 -0.104023E-10  0.517E-05    2.23     394.7  T
   3    -39.1928424 -0.214015E-10  0.323E-05    2.23     632.4  T

   *** convergence criteria satisfied after 3 iterations ***

         #    Occupation            Energy/Eh            Energy/eV
      -------------------------------------------------------------
         1        2.0000           -0.6846732             -18.6309
       ...           ...                  ...                  ...
        29        2.0000           -0.4392162             -11.9517
        30        2.0000           -0.4296587             -11.6916
        31        2.0000           -0.4228331             -11.5059
        32        2.0000           -0.4111061             -11.1868
        33        2.0000           -0.3891043             -10.5881
        34        2.0000           -0.3826275             -10.4118
        35        2.0000           -0.3500163              -9.5244 (HOMO)
        36                         -0.2678959              -7.2898 (LUMO)
        37                         -0.2285110              -6.2181
        38                         -0.2102615              -5.7215
        39                         -0.1705393              -4.6406
        40                         -0.1134418              -3.0869
       ...                                ...                  ...
        66                          0.7393377              20.1184
      -------------------------------------------------------------
                  HL-Gap            0.0821204 Eh            2.2346 eV
             Fermi-level           -0.3089561 Eh           -8.4071 eV

 SCC (total)                   0 d,  0 h,  0 min,  0.670 sec
 SCC setup                      ...        0 min,  0.033 sec (  4.880%)
 Dispersion                     ...        0 min,  0.026 sec (  3.938%)
 classical contributions        ...        0 min,  0.016 sec (  2.387%)
 integral evaluation            ...        0 min,  0.028 sec (  4.118%)
 iterations                     ...        0 min,  0.398 sec ( 59.390%)
 molecular gradient             ...        0 min,  0.154 sec ( 22.979%)
 printout                       ...        0 min,  0.015 sec (  2.253%)

         :::::::::::::::::::::::::::::::::::::::::::::::::::::
         ::                     SUMMARY                     ::
         :::::::::::::::::::::::::::::::::::::::::::::::::::::
         :: total energy             -38.561545727701 Eh    ::
         :: gradient norm              0.000334514361 Eh/a0 ::
         :: HOMO-LUMO gap              2.234609375157 eV    ::
         ::.................................................::
         :: SCC energy               -39.192842353381 Eh    ::
         :: -> isotropic ES            0.045187184894 Eh    ::
         :: -> anisotropic ES          0.000832960399 Eh    ::
         :: -> anisotropic XC          0.017855303721 Eh    ::
         :: -> dispersion             -0.022206039815 Eh    ::
         :: repulsion energy           0.631468892699 Eh    ::
         :: add. restraining           0.000001035590 Eh    ::
         :: total charge               0.000000000000 e     ::
         :::::::::::::::::::::::::::::::::::::::::::::::::::::

           -------------------------------------------------
          |                Property Printout                |
           -------------------------------------------------

    * Orbital Energies and Occupations

         #    Occupation            Energy/Eh            Energy/eV
      -------------------------------------------------------------
         1        2.0000           -0.6846732             -18.6309
       ...           ...                  ...                  ...
        23        2.0000           -0.4838453             -13.1661
        24        2.0000           -0.4794656             -13.0469
        25        2.0000           -0.4733134             -12.8795
        26        2.0000           -0.4706929             -12.8082
        27        2.0000           -0.4612991             -12.5526
        28        2.0000           -0.4569196             -12.4334
        29        2.0000           -0.4392162             -11.9517
        30        2.0000           -0.4296587             -11.6916
        31        2.0000           -0.4228331             -11.5059
        32        2.0000           -0.4111061             -11.1868
        33        2.0000           -0.3891043             -10.5881
        34        2.0000           -0.3826275             -10.4118
        35        2.0000           -0.3500163              -9.5244 (HOMO)
        36                         -0.2678959              -7.2898 (LUMO)
        37                         -0.2285110              -6.2181
        38                         -0.2102615              -5.7215
        39                         -0.1705393              -4.6406
        40                         -0.1134418              -3.0869
        41                         -0.0901879              -2.4541
        42                          0.0236430               0.6434
        43                          0.0341351               0.9289
        44                          0.0992641               2.7011
        45                          0.1141841               3.1071
        46                          0.1265022               3.4423
       ...                                ...                  ...
        66                          0.7393377              20.1184
      -------------------------------------------------------------
                  HL-Gap            0.0821204 Eh            2.2346 eV
             Fermi-level           -0.3089561 Eh           -8.4071 eV

     #   Z          covCN         q      C6AA      α(0)
     1   1 H        0.859     0.227     0.980     1.551
     2   7 N        2.702    -0.105    23.313     7.171
     3   6 C        2.909     0.067    26.500     8.441
     4   6 C        2.921    -0.048    29.200     8.861
     5   6 C        2.832     0.040    27.099     8.531
     6   6 C        2.926    -0.051    29.260     8.871
     7   6 C        3.088    -0.067    29.562     8.912
     8   7 N        2.775    -0.146    24.154     7.299
     9   6 C        2.981    -0.071    29.774     8.951
    10   6 C        2.872     0.257    22.690     7.808
    11   6 C        2.991     0.003    27.943     8.671
    12   6 C        2.919    -0.026    28.662     8.779
    13   6 C        2.920    -0.028    28.704     8.786
    14   6 C        2.919    -0.037    28.919     8.819
    15   1 H        0.926     0.041     2.434     2.440
    16   1 H        0.926     0.035     2.517     2.481
    17   1 H        0.860     0.170     1.275     1.769
    18   8 O        0.857    -0.485    23.453     6.493
    19   1 H        0.926     0.037     2.491     2.468
    20   1 H        0.926     0.035     2.518     2.481
    21   1 H        0.926     0.033     2.540     2.492
    22   1 H        0.926     0.036     2.504     2.474
    23   1 H        0.926     0.034     2.532     2.488
    24   1 H        0.925     0.051     2.303     2.373

 Mol. C6AA /au·bohr⁶  :       7635.353437
 Mol. C8AA /au·bohr⁸  :     185877.601394
 Mol. α(0) /au        :        139.410677


Wiberg/Mayer (AO) data.
largest (>0.10) Wiberg bond orders for each atom

 ---------------------------------------------------------------------------
     #   Z sym  total        # sym  WBO       # sym  WBO       # sym  WBO
 ---------------------------------------------------------------------------
     1   1 H    0.948 --     2 N    0.877
     2   7 N    3.570 --     5 C    1.295     3 C    1.103     1 H    0.877
     3   6 C    3.964 --     4 C    1.358     6 C    1.351     2 N    1.103
     4   6 C    3.984 --    13 C    1.455     3 C    1.358    16 H    0.966
                            12 C    0.104
     5   6 C    3.972 --     7 C    1.498     2 N    1.295    24 H    0.955
     6   6 C    3.983 --    12 C    1.465     3 C    1.351    15 H    0.967
                            13 C    0.105
     7   6 C    3.962 --     5 C    1.498     9 C    1.157    10 C    1.067
     8   7 N    3.513 --    10 C    1.180    11 C    1.126    17 H    0.942
                            18 O    0.143
     9   6 C    3.977 --    11 C    1.696     7 C    1.157    21 H    0.972
    10   6 C    3.949 --    18 O    1.572     8 N    1.180     7 C    1.067
    11   6 C    3.935 --     9 C    1.696     8 N    1.126    22 H    0.970
    12   6 C    3.991 --     6 C    1.465    14 C    1.424    19 H    0.971
                             4 C    0.104
    13   6 C    3.992 --     4 C    1.455    14 C    1.433    20 H    0.971
                             6 C    0.105
    14   6 C    3.968 --    13 C    1.433    12 C    1.424    23 H    0.972
    15   1 H    0.998 --     6 C    0.967
    16   1 H    0.999 --     4 C    0.966
    17   1 H    0.971 --     8 N    0.942
    18   8 O    1.972 --    10 C    1.572     8 N    0.143
    19   1 H    0.998 --    12 C    0.971
    20   1 H    0.998 --    13 C    0.971
    21   1 H    0.999 --     9 C    0.972
    22   1 H    0.998 --    11 C    0.970
    23   1 H    0.999 --    14 C    0.972
    24   1 H    0.997 --     5 C    0.955
 ---------------------------------------------------------------------------

Topologies differ in total number of bonds
Writing topology from bond orders to xtbtopo.mol

molecular dipole:
                 x           y           z       tot (Debye)
 q only:        0.612       0.429       0.375
   full:        0.349       0.615       0.349       2.005
molecular quadrupole (traceless):
                xx          xy          yy          xz          yz          zz
 q only:        1.698      -8.132       1.247      -0.845      -0.390      -2.945
  q+dip:        6.437     -10.920      -1.038       3.164       1.876      -5.399
   full:        4.943      -9.711      -0.838       0.933      -0.346      -4.104

           -------------------------------------------------
          |                Geometry Summary                 |
           -------------------------------------------------

      molecular mass/u    :      186.2103137
   center of mass at/Å    :       -0.2037831      -0.1342790      -0.0165066
  moments of inertia/u·Å² :        0.2139878E+03   0.1599208E+04   0.1798198E+04
rotational constants/cm⁻¹ :        0.7877847E-01   0.1054124E-01   0.9374736E-02

 * 24 selected distances

     #   Z          #   Z                                           value/Å
     1   1 H        2   7 N                                       1.0258874
     2   7 N        3   6 C                                       1.3838820
     3   6 C        4   6 C                                       1.3949744
     2   7 N        5   6 C                                       1.3404729
     3   6 C        6   6 C                                       1.3964111
     5   6 C        7   6 C                                       1.3644197
     7   6 C        9   6 C                                       1.4379249 (max)
     8   7 N       10   6 C                                       1.3669147
     8   7 N       11   6 C                                       1.3862705
     9   6 C       11   6 C                                       1.3470827
     6   6 C       12   6 C                                       1.3802189
     4   6 C       13   6 C                                       1.3819888
    12   6 C       14   6 C                                       1.3862260
    13   6 C       14   6 C                                       1.3847264
     6   6 C       15   1 H                                       1.0801723
     4   6 C       16   1 H                                       1.0791856
     8   7 N       17   1 H                                       1.0060697 (min)
    10   6 C       18   8 O                                       1.2303048
    12   6 C       19   1 H                                       1.0797926
    13   6 C       20   1 H                                       1.0800668
     9   6 C       21   1 H                                       1.0716651
    11   6 C       22   1 H                                       1.0729831
    14   6 C       23   1 H                                       1.0791737
     5   6 C       24   1 H                                       1.0825510

 * 5 distinct bonds (by element types)

   Z      Z             #   av. dist./Å        max./Å        min./Å
   1 H    6 C           8     1.0781988     1.0825510     1.0716651
   6 C    6 C           9     1.3859970     1.4379249     1.3470827
   1 H    7 N           2     1.0159785     1.0258874     1.0060697
   6 C    7 N           4     1.3693851     1.3862705     1.3404729
   6 C    8 O           1     1.2303048     1.2303048     1.2303048


optimized geometry written to: xtbopt.xyz


           -------------------------------------------------
          | TOTAL ENERGY              -38.561545727701 Eh   |
          | GRADIENT NORM               0.000334514361 Eh/α |
          | HOMO-LUMO GAP               2.234609375157 eV   |
           -------------------------------------------------
########################################################################
[WARNING] Runtime exception occurred
-1- restart_readRestart: Number of electron missmatch in restart file.
########################################################################

------------------------------------------------------------------------
 * finished run on 2023/11/18 at 08:34:49.914     
------------------------------------------------------------------------
 total:
 * wall-time:     0 d,  0 h,  0 min, 17.094 sec
 *  cpu-time:     0 d,  0 h, 11 min, 24.676 sec
 * ratio c/w:    40.055 speedup
 SCF:
 * wall-time:     0 d,  0 h,  0 min,  1.869 sec
 *  cpu-time:     0 d,  0 h,  1 min, 12.962 sec
 * ratio c/w:    39.046 speedup
 ANC optimizer:
 * wall-time:     0 d,  0 h,  0 min, 15.047 sec
 *  cpu-time:     0 d,  0 h, 10 min,  5.024 sec
 * ratio c/w:    40.210 speedup

