
    -----------------------------------------------------------------------
          Psi4: An Open-Source Ab Initio Electronic Structure Package
                               Psi4 1.6 release

                         Git: Rev {HEAD} 77475b5 


    D. G. A. Smith, L. A. Burns, A. C. Simmonett, R. M. Parrish,
    M. C. Schieber, R. Galvelis, P. Kraus, H. Kruse, R. Di Remigio,
    A. Alenaizan, A. M. James, S. Lehtola, J. P. Misiewicz, M. Scheurer,
    R. A. Shaw, J. B. Schriber, Y. Xie, Z. L. Glick, D. A. Sirianni,
    J. S. O'Brien, J. M. Waldrop, A. Kumar, E. G. Hohenstein,
    B. P. Pritchard, B. R. Brooks, H. F. Schaefer III, A. Yu. Sokolov,
    K. Patkowski, A. E. DePrince III, U. Bozkaya, R. A. King,
    F. A. Evangelista, J. M. Turney, T. D. Crawford, C. D. Sherrill,
    J. Chem. Phys. 152(18) 184108 (2020). https://doi.org/10.1063/5.0006002

                            Additional Code Authors
    E. T. Seidl, C. L. Janssen, E. F. Valeev, M. L. Leininger,
    J. F. Gonthier, R. M. Richard, H. R. McAlexander, M. Saitow, X. Wang,
    P. Verma, M. H. Lechner, and A. Jiang

             Previous Authors, Complete List of Code Contributors,
                       and Citations for Specific Modules
    https://github.com/psi4/psi4/blob/master/codemeta.json
    https://github.com/psi4/psi4/graphs/contributors
    http://psicode.org/psi4manual/master/introduction.html#citing-psifour

    -----------------------------------------------------------------------


    Psi4 started on: Saturday, 18 November 2023 08:39AM

    Process ID: 1131580
    Host:       node165.bme.utexas.edu
    PSIDATADIR: /home/liuchw/anaconda3/envs/poltype2022/share/psi4
    Memory:     500.0 MiB
    Threads:    1
    
  ==> Input File <==

--------------------------------------------------------------------------
molecule { 
0 1
 H    0.373366    0.757341   -0.695699
 N    0.237715   -0.041039   -0.064977
 C    1.307923   -0.892814    0.131710
 C    2.432096   -0.724438   -0.681116
 C   -0.989416   -0.087618    0.472950
 C    1.311344   -1.911157    1.085581
 C   -1.930136    0.845166    0.145233
 N   -2.830982    2.660449   -0.839822
 C   -3.278334    1.018580    0.614421
 C   -1.673374    1.935262   -0.795105
 C   -3.782389    2.108288    0.003723
 C    2.414092   -2.733739    1.216933
 C    3.527824   -1.551056   -0.540723
 C    3.524571   -2.561866    0.408038
 H    0.460412   -2.060887    1.731586
 H    2.431014    0.064102   -1.419511
 H   -2.964852    3.482713   -1.403865
 O   -0.643727    2.181974   -1.421776
 H    2.404504   -3.516701    1.960879
 H    4.389381   -1.409241   -1.176041
 H   -3.777136    0.383695    1.319118
 H   -4.752221    2.558745    0.091825
 H    4.381038   -3.209353    0.516442
 H   -1.206960   -0.857429    1.201476
}
memory 20GB
set_num_threads(5)
psi4_io.set_default_path("/scratch/liuchw/Psi4-1_16_Index_0-farH_in17")
set freeze_core True
E, wfn = energy('wb97x-d/6-311+G*',return_wfn=True)
oeprop(wfn,"WIBERG_LOWDIN_INDICES")
clean()
--------------------------------------------------------------------------

  Memory set to  18.626 GiB by Python driver.
  Threads set to 5 by Python driver.

Scratch directory: /scratch/liuchw/Psi4-1_16_Index_0-farH_in17/

*** tstart() called on node165.bme.utexas.edu
*** at Sat Nov 18 08:39:46 2023

   => Loading Basis Set <=

    Name: 6-311+G*
    Role: ORBITAL
    Keyword: BASIS
    atoms 1, 15-17, 19-24 entry H          line    47 file /home/liuchw/anaconda3/envs/poltype2022/share/psi4/basis/6-311pgs.gbs 
    atoms 2, 8            entry N          line   151 file /home/liuchw/anaconda3/envs/poltype2022/share/psi4/basis/6-311pgs.gbs 
    atoms 3-7, 9-14       entry C          line   130 file /home/liuchw/anaconda3/envs/poltype2022/share/psi4/basis/6-311pgs.gbs 
    atoms 18              entry O          line   172 file /home/liuchw/anaconda3/envs/poltype2022/share/psi4/basis/6-311pgs.gbs 

   => WB97X-D: Empirical Dispersion <=

    Chai and Head-Gordon Dispersion Correction
    Chai, J.-D.; Head-Gordon, M. (2010), J. Chem. Phys., 132: 6615-6620

        s6 =       1.000000


         ---------------------------------------------------------
                                   SCF
               by Justin Turney, Rob Parrish, Andy Simmonett
                          and Daniel G. A. Smith
                              RKS Reference
                        5 Threads,  19073 MiB Core
         ---------------------------------------------------------

  ==> Geometry <==

    Molecular point group: c1
    Full point group: C1

    Geometry (in Angstrom), charge = 0, multiplicity = 1:

       Center              X                  Y                   Z               Mass       
    ------------   -----------------  -----------------  -----------------  -----------------
         H            0.429726407682     0.687054998361    -0.649866041530     1.007825032230
         N            0.294075407682    -0.111325001639    -0.019144041530    14.003074004430
         C            1.364283407682    -0.963100001639     0.177542958470    12.000000000000
         C            2.488456407682    -0.794724001639    -0.635283041530    12.000000000000
         C           -0.933055592318    -0.157904001639     0.518782958470    12.000000000000
         C            1.367704407682    -1.981443001639     1.131413958470    12.000000000000
         C           -1.873775592318     0.774879998361     0.191065958470    12.000000000000
         N           -2.774621592318     2.590162998361    -0.793989041530    14.003074004430
         C           -3.221973592318     0.948293998361     0.660253958470    12.000000000000
         C           -1.617013592318     1.864975998361    -0.749272041530    12.000000000000
         C           -3.726028592318     2.038001998361     0.049555958470    12.000000000000
         C            2.470452407682    -2.804025001639     1.262765958470    12.000000000000
         C            3.584184407682    -1.621342001639    -0.494890041530    12.000000000000
         C            3.580931407682    -2.632152001639     0.453870958470    12.000000000000
         H            0.516772407682    -2.131173001639     1.777418958470     1.007825032230
         H            2.487374407682    -0.006184001639    -1.373678041530     1.007825032230
         H           -2.908491592318     3.412426998361    -1.358032041530     1.007825032230
         O           -0.587366592318     2.111687998361    -1.375943041530    15.994914619570
         H            2.460864407682    -3.586987001639     2.006711958470     1.007825032230
         H            4.445741407682    -1.479527001639    -1.130208041530     1.007825032230
         H           -3.720775592318     0.313408998361     1.364950958470     1.007825032230
         H           -4.695860592318     2.488458998361     0.137657958470     1.007825032230
         H            4.437398407682    -3.279639001639     0.562274958470     1.007825032230
         H           -1.150599592318    -0.927715001639     1.247308958470     1.007825032230

  Running in c1 symmetry.

  Rotational constants: A =      0.07891  B =      0.01059  C =      0.00934 [cm^-1]
  Rotational constants: A =   2365.63690  B =    317.39093  C =    280.06628 [MHz]
  Nuclear repulsion =  795.985988186233044

  Charge       = 0
  Multiplicity = 1
  Electrons    = 98
  Nalpha       = 49
  Nbeta        = 49

  ==> Algorithm <==

  SCF Algorithm Type is DF.
  DIIS enabled.
  MOM disabled.
  Fractional occupation disabled.
  Guess Type is SAD.
  Energy threshold   = 1.00e-06
  Density threshold  = 1.00e-06
  Integral threshold = 1.00e-12

  ==> Primary Basis <==

  Basis Set: 6-311+G*
    Blend: 6-311+G*
    Number of shells: 170
    Number of basis functions: 338
    Number of Cartesian functions: 352
    Spherical Harmonics?: true
    Max angular momentum: 2

  ==> DFT Potential <==

   => LibXC <=

    Version 5.1.5
    S. Lehtola, C. Steigemann, M. J. Oliveira, and M. A. Marques, SoftwareX 7, 1 (2018) (10.1016/j.softx.2017.11.002)

   => Composite Functional: WB97X-D <= 

    wB97X-D Hyb-GGA Exchange-Correlation Functional

    J.-D. Chai and M. Head-Gordon, Phys. Chem. Chem. Phys. 10, 6615 (2008) (10.1039/B810189B)

    Deriv               =              1
    GGA                 =           TRUE
    Meta                =          FALSE

    Exchange Hybrid     =           TRUE
    MP2 Hybrid          =          FALSE

   => Exchange-Correlation Functionals <=

    1.0000   wB97X-D range-separated functional

   => Exact (HF) Exchange <=

    0.7780            HF,LR [omega = 0.2000]
    0.2220               HF 

   => LibXC Density Thresholds  <==

    XC_HYB_GGA_XC_WB97X_D:  1.00E-14 

   => Molecular Quadrature <=

    Radial Scheme          =       TREUTLER
    Pruning Scheme         =           NONE
    Nuclear Scheme         =       TREUTLER

    Blocking Scheme        =         OCTREE
    BS radius alpha        =              1
    Pruning alpha          =              1
    Radial Points          =             75
    Spherical Points       =            302
    Total Points           =         503678
    Total Blocks           =           3673
    Max Points             =            256
    Max Functions          =            268
    Weights Tolerance      =       1.00E-15

   => Loading Basis Set <=

    Name: (6-311+G* AUX)
    Role: JKFIT
    Keyword: DF_BASIS_SCF
    atoms 1, 15-17, 19-24 entry H          line   116 file /home/liuchw/anaconda3/envs/poltype2022/share/psi4/basis/heavy-aug-cc-pvtz-jkfit.gbs 
    atoms 2, 8            entry N          line   262 file /home/liuchw/anaconda3/envs/poltype2022/share/psi4/basis/heavy-aug-cc-pvtz-jkfit.gbs 
    atoms 3-7, 9-14       entry C          line   200 file /home/liuchw/anaconda3/envs/poltype2022/share/psi4/basis/heavy-aug-cc-pvtz-jkfit.gbs 
    atoms 18              entry O          line   324 file /home/liuchw/anaconda3/envs/poltype2022/share/psi4/basis/heavy-aug-cc-pvtz-jkfit.gbs 

  ==> Integral Setup <==

  DFHelper Memory: AOs need 3.824 GiB; user supplied 11.018 GiB. Using in-core AOs.

  ==> MemDFJK: Density-Fitted J/K Matrices <==

    J tasked:                   Yes
    K tasked:                   Yes
    wK tasked:                  Yes
    Omega:                2.000E-01
    OpenMP threads:               5
    Memory [MiB]:             11282
    Algorithm:                 Core
    Schwarz Cutoff:           1E-12
    Mask sparsity (%):      15.8398
    Fitting Condition:        1E-10

   => Auxiliary Basis Set <=

  Basis Set: (6-311+G* AUX)
    Blend: HEAVY-AUG-CC-PVTZ-JKFIT
    Number of shells: 520
    Number of basis functions: 1756
    Number of Cartesian functions: 2184
    Spherical Harmonics?: true
    Max angular momentum: 4

  Cached 100.0% of DFT collocation blocks in 2.952 [GiB].

  Minimum eigenvalue in the overlap matrix is 2.7932330753E-07.
  Reciprocal condition number of the overlap matrix is 2.0340568803E-08.
    Using symmetric orthogonalization.

  ==> Pre-Iterations <==

  SCF Guess: Superposition of Atomic Densities via on-the-fly atomic UHF (no occupation information).

   -------------------------
    Irrep   Nso     Nmo    
   -------------------------
     A        338     338 
   -------------------------
    Total     338     338
   -------------------------

  ==> Iterations <==

                           Total Energy        Delta E     RMS |[F,P]|

   @DF-RKS iter SAD:  -609.58272354219412   -6.09583e+02   0.00000e+00 
   @DF-RKS iter   1:  -609.23334607031234    3.49377e-01   3.33003e-03 DIIS/ADIIS
   @DF-RKS iter   2:  -609.49484638949025   -2.61500e-01   2.69243e-03 DIIS/ADIIS
   @DF-RKS iter   3:  -609.83962967264176   -3.44783e-01   4.59405e-04 DIIS/ADIIS
   @DF-RKS iter   4:  -609.84762261783180   -7.99295e-03   1.96542e-04 DIIS/ADIIS
   @DF-RKS iter   5:  -609.84932019473206   -1.69758e-03   4.54878e-05 DIIS
   @DF-RKS iter   6:  -609.84941303996436   -9.28452e-05   1.61105e-05 DIIS
   @DF-RKS iter   7:  -609.84942678812104   -1.37482e-05   4.95520e-06 DIIS
   @DF-RKS iter   8:  -609.84942834430910   -1.55619e-06   1.73030e-06 DIIS
   @DF-RKS iter   9:  -609.84942869298095   -3.48672e-07   5.49144e-07 DIIS
  Energy and wave function converged.


  ==> Post-Iterations <==

   Electrons on quadrature grid:
      Ntotal   =   97.9999771334 ; deviation = -2.287e-05 

    Orbital Energies [Eh]
    ---------------------

    Doubly Occupied:                                                      

       1A    -19.212039     2A    -14.478986     3A    -14.467950  
       4A    -10.380580     5A    -10.356466     6A    -10.344074  
       7A    -10.318284     8A    -10.296443     9A    -10.295397  
      10A    -10.295067    11A    -10.292893    12A    -10.287335  
      13A    -10.285325    14A    -10.279670    15A     -1.144727  
      16A     -1.084239    17A     -1.063706    18A     -0.969769  
      19A     -0.910679    20A     -0.864921    21A     -0.860766  
      22A     -0.819285    23A     -0.775768    24A     -0.730506  
      25A     -0.714262    26A     -0.686404    27A     -0.675385  
      28A     -0.645591    29A     -0.605803    30A     -0.593113  
      31A     -0.586235    32A     -0.544426    33A     -0.541053  
      34A     -0.536317    35A     -0.521366    36A     -0.520186  
      37A     -0.514627    38A     -0.507890    39A     -0.501478  
      40A     -0.486324    41A     -0.453410    42A     -0.449653  
      43A     -0.437250    44A     -0.418144    45A     -0.368689  
      46A     -0.344117    47A     -0.342723    48A     -0.312697  
      49A     -0.258732  

    Virtual:                                                              

      50A      0.004030    51A      0.049113    52A      0.057290  
      53A      0.061754    54A      0.069319    55A      0.078146  
      56A      0.080077    57A      0.081770    58A      0.096446  
      59A      0.096799    60A      0.097885    61A      0.105620  
      62A      0.108138    63A      0.120339    64A      0.121415  
      65A      0.126658    66A      0.131864    67A      0.137257  
      68A      0.143847    69A      0.152202    70A      0.155887  
      71A      0.158768    72A      0.170719    73A      0.177680  
      74A      0.184219    75A      0.191167    76A      0.191767  
      77A      0.196545    78A      0.198575    79A      0.199553  
      80A      0.205404    81A      0.210508    82A      0.212566  
      83A      0.213135    84A      0.217749    85A      0.226437  
      86A      0.231537    87A      0.235833    88A      0.240290  
      89A      0.243729    90A      0.247582    91A      0.252038  
      92A      0.254170    93A      0.265046    94A      0.269137  
      95A      0.270870    96A      0.272358    97A      0.277407  
      98A      0.278797    99A      0.282163   100A      0.284666  
     101A      0.293745   102A      0.295963   103A      0.302284  
     104A      0.305838   105A      0.307882   106A      0.313595  
     107A      0.316435   108A      0.319886   109A      0.330947  
     110A      0.334675   111A      0.337162   112A      0.345928  
     113A      0.362358   114A      0.367423   115A      0.369635  
     116A      0.382117   117A      0.385867   118A      0.389552  
     119A      0.398470   120A      0.402845   121A      0.407136  
     122A      0.412049   123A      0.422084   124A      0.431649  
     125A      0.439830   126A      0.452015   127A      0.463182  
     128A      0.476458   129A      0.486013   130A      0.496203  
     131A      0.532861   132A      0.538289   133A      0.543919  
     134A      0.581960   135A      0.586016   136A      0.592275  
     137A      0.604832   138A      0.609577   139A      0.614706  
     140A      0.619886   141A      0.627436   142A      0.637932  
     143A      0.645171   144A      0.646870   145A      0.654136  
     146A      0.663765   147A      0.673115   148A      0.682114  
     149A      0.693101   150A      0.697049   151A      0.703732  
     152A      0.709029   153A      0.716853   154A      0.736299  
     155A      0.757313   156A      0.763708   157A      0.771779  
     158A      0.772527   159A      0.787942   160A      0.792427  
     161A      0.799087   162A      0.816198   163A      0.822117  
     164A      0.840413   165A      0.842258   166A      0.856324  
     167A      0.865377   168A      0.877353   169A      0.884667  
     170A      0.904379   171A      0.914683   172A      0.916147  
     173A      0.920577   174A      0.925850   175A      0.940111  
     176A      0.945160   177A      0.954076   178A      0.959872  
     179A      0.968749   180A      0.980511   181A      0.991986  
     182A      0.994610   183A      1.009456   184A      1.029988  
     185A      1.059329   186A      1.072372   187A      1.083709  
     188A      1.087557   189A      1.094401   190A      1.109909  
     191A      1.120608   192A      1.136948   193A      1.152720  
     194A      1.158083   195A      1.183780   196A      1.209386  
     197A      1.223988   198A      1.237022   199A      1.247228  
     200A      1.260731   201A      1.279074   202A      1.284263  
     203A      1.303811   204A      1.308617   205A      1.317966  
     206A      1.334478   207A      1.367554   208A      1.374677  
     209A      1.409106   210A      1.426797   211A      1.439793  
     212A      1.454660   213A      1.486934   214A      1.567531  
     215A      1.585264   216A      1.608339   217A      1.622150  
     218A      1.633813   219A      1.652493   220A      1.681994  
     221A      1.711493   222A      1.733246   223A      1.808672  
     224A      1.815013   225A      1.831879   226A      1.850611  
     227A      1.862112   228A      1.872762   229A      1.885323  
     230A      1.892414   231A      1.897998   232A      1.909434  
     233A      1.924504   234A      1.943389   235A      1.981236  
     236A      1.996822   237A      2.016363   238A      2.025069  
     239A      2.033717   240A      2.042519   241A      2.065359  
     242A      2.079263   243A      2.091041   244A      2.101209  
     245A      2.118222   246A      2.174368   247A      2.250535  
     248A      2.264223   249A      2.319222   250A      2.326145  
     251A      2.345260   252A      2.355169   253A      2.359174  
     254A      2.380775   255A      2.400060   256A      2.448482  
     257A      2.465749   258A      2.485368   259A      2.494640  
     260A      2.498696   261A      2.532208   262A      2.563938  
     263A      2.582305   264A      2.624985   265A      2.654438  
     266A      2.702163   267A      2.733781   268A      2.758960  
     269A      2.784306   270A      2.810686   271A      2.815147  
     272A      2.860113   273A      2.873493   274A      2.887122  
     275A      2.898504   276A      2.916829   277A      2.943846  
     278A      2.961356   279A      2.985738   280A      2.998080  
     281A      3.014171   282A      3.063904   283A      3.085392  
     284A      3.111826   285A      3.121183   286A      3.170685  
     287A      3.174717   288A      3.228509   289A      3.290745  
     290A      3.324184   291A      3.394405   292A      3.408264  
     293A      3.422083   294A      3.430406   295A      3.440842  
     296A      3.448445   297A      3.458011   298A      3.469320  
     299A      3.519506   300A      3.556772   301A      3.569897  
     302A      3.626359   303A      3.648528   304A      3.665712  
     305A      3.695075   306A      3.746722   307A      3.793783  
     308A      3.874551   309A      3.906788   310A      3.973345  
     311A      3.997470   312A      4.020534   313A      4.133965  
     314A      4.163399   315A      4.346097   316A      4.364795  
     317A      4.623998   318A      4.647459   319A      4.902709  
     320A      5.138605   321A      5.186859   322A      5.256390  
     323A      5.420353   324A      5.926851   325A     23.492460  
     326A     23.683192   327A     23.917877   328A     23.982642  
     329A     24.041027   330A     24.058210   331A     24.174316  
     332A     24.213557   333A     24.255420   334A     24.303846  
     335A     24.312671   336A     35.660823   337A     35.733386  
     338A     50.208854  

    Final Occupation by Irrep:
              A 
    DOCC [    49 ]

  @DF-RKS Final Energy:  -609.84942869298095

   => Energetics <=

    Nuclear Repulsion Energy =            795.9859881862330440
    One-Electron Energy =               -2404.5881669649970718
    Two-Electron Energy =                1058.1019765085195559
    DFT Exchange-Correlation Energy =     -59.3365249003119999
    Empirical Dispersion Energy =          -0.0127015224244383
    VV10 Nonlocal Energy =                  0.0000000000000000
    Total Energy =                       -609.8494286929809505

Computation Completed


Properties will be evaluated at   0.000000,   0.000000,   0.000000 [a0]

Properties computed using the SCF density matrix


 Multipole Moments:

 ------------------------------------------------------------------------------------
     Multipole            Electronic (a.u.)      Nuclear  (a.u.)        Total (a.u.)
 ------------------------------------------------------------------------------------

 L = 1.  Multiply by 2.5417464519 to convert [e a0] to [Debye]
 Dipole X            :         -2.6661820            2.1625779           -0.5036041
 Dipole Y            :          3.8282179           -4.2249234           -0.3967055
 Dipole Z            :         -1.8521667            2.4186773            0.5665107
 Magnitude           :                                                    0.8555271

 ------------------------------------------------------------------------------------

*** tstop() called on node165.bme.utexas.edu at Sat Nov 18 08:40:07 2023
Module time:
	user time   =      93.77 seconds =       1.56 minutes
	system time =       3.78 seconds =       0.06 minutes
	total time  =         21 seconds =       0.35 minutes
Total time:
	user time   =      93.77 seconds =       1.56 minutes
	system time =       3.78 seconds =       0.06 minutes
	total time  =         21 seconds =       0.35 minutes


Properties will be evaluated at   0.000000,   0.000000,   0.000000 [a0]
OEProp: No title given, name of density matrix used for the following properties is 'SCF density'


  Wiberg Bond Indices using Orthogonal Lowdin Orbitals:

  Irrep: 1 Size: 24 x 24

                 1                   2                   3                   4                   5

    1     0.00000000000000     0.72727817119896     0.04184484810852     0.01367531338101     0.04129954984164
    2     0.72727817119896     0.00000000000000     1.23207223970075     0.13935054736847     1.45128758795399
    3     0.04184484810852     1.23207223970075     0.00000000000000     1.38690931069350     0.11512096586248
    4     0.01367531338101     0.13935054736847     1.38690931069350     0.00000000000000     0.03077818131955
    5     0.04129954984164     1.45128758795399     0.11512096586248     0.03077818131955     0.00000000000000
    6     0.00756586110234     0.12647336789344     1.39053203103452     0.12696158438777     0.05545649475667
    7     0.01435023650355     0.18699885721263     0.02654488156912     0.00996239269588     1.55104593859859
    8     0.00123129975658     0.00549662018570     0.00064436184557     0.00037453372399     0.01863589027598
    9     0.00134754328025     0.02248329620409     0.00301132787762     0.00124734641568     0.12573524613475
   10     0.01259806100041     0.06302488236708     0.00619276412734     0.00414613518142     0.13607164822459
   11     0.00047586743886     0.02687536727720     0.00305203622510     0.00336257528842     0.07900940811512
   12     0.00090639979206     0.01768362463357     0.13709368650960     0.14170445709185     0.00565510994472
   13     0.00125811309284     0.01868132675063     0.13628139787849     1.54185763481738     0.00371155820084
   14     0.00047153521169     0.01678742035922     0.13185087617721     0.14099029587398     0.00793561603487
   15     0.00014833556711     0.01426244711650     0.05696235850623     0.00975450175623     0.01503668788860
   16     0.00194671313283     0.02014297752497     0.05767987964411     0.81476667555036     0.00199888162104
   17     0.00012376008060     0.00031484930452     0.00008556118094     0.00003129626069     0.00153776793662
   18     0.05724163250261     0.10654519030680     0.00936922972342     0.00612711101728     0.08390551094176
   19     0.00033651229357     0.00090985494389     0.01087667851928     0.00254085842899     0.00029145871710
   20     0.00003560838565     0.00089438302461     0.01093286152297     0.06152492820737     0.00039556438683
   21     0.00008035424466     0.00036345662538     0.00011229490266     0.00004718051042     0.01317827035426
   22     0.00020115932005     0.00038535888952     0.00012533754630     0.00005630242336     0.00185961360234
   23     0.00001965456040     0.00026360842199     0.00291586927471     0.01132985103028     0.00013114040852
   24     0.00743162103532     0.05123369448851     0.01628728789145     0.00131479787337     0.80263473919141

                 6                   7                   8                   9                  10

    1     0.00756586110234     0.01435023650355     0.00123129975658     0.00134754328025     0.01259806100041
    2     0.12647336789344     0.18699885721263     0.00549662018570     0.02248329620409     0.06302488236708
    3     1.39053203103452     0.02654488156912     0.00064436184557     0.00301132787762     0.00619276412734
    4     0.12696158438777     0.00996239269588     0.00037453372399     0.00124734641568     0.00414613518142
    5     0.05545649475667     1.55104593859859     0.01863589027598     0.12573524613475     0.13607164822459
    6     0.00000000000000     0.01224750624931     0.00033473639573     0.00124003446141     0.00441540483342
    7     0.01224750624931     0.00000000000000     0.13372361302353     1.17473444209511     1.06989002098984
    8     0.00033473639573     0.13372361302353     0.00000000000000     0.19965861738998     1.34446541040512
    9     0.00124003446141     1.17473444209511     0.19965861738998     0.00000000000000     0.13789694594961
   10     0.00441540483342     1.06989002098984     1.34446541040512     0.13789694594961     0.00000000000000
   11     0.00377479775784     0.16880292337502     1.27767483837860     1.79798799395324     0.14228026691807
   12     1.53030136610318     0.00104580132316     0.00004269892305     0.00013736131087     0.00046149114292
   13     0.13980712458495     0.00173860734908     0.00003753556132     0.00020062168660     0.00045970957409
   14     0.14028788510675     0.00632209097569     0.00012322635828     0.00053951564786     0.00248867163862
   15     0.81286999843012     0.00122504951412     0.00004899872799     0.00011399946878     0.00028421807437
   16     0.00997744195097     0.00021973491874     0.00001187760982     0.00005176777033     0.00025662444829
   17     0.00007073906273     0.01181734582181     0.80511596647899     0.01093155425023     0.04402403773181
   18     0.00405756708829     0.14166656297986     0.21771238959967     0.02270241168300     2.09385820992714
   19     0.06093682738996     0.00005815022493     0.00000573333754     0.00001598986561     0.00004839147571
   20     0.00252054910129     0.00007540060398     0.00000200771636     0.00002335349565     0.00001795147247
   21     0.00006102324525     0.05271311497542     0.01149725183675     0.82905904138124     0.01070869651598
   22     0.00003242176233     0.01392359065262     0.05644227499796     0.05837774699006     0.01255916481532
   23     0.01126433714055     0.00002986444780     0.00000188537233     0.00001121882795     0.00001690803509
   24     0.01406335815226     0.05706332867186     0.00111138050281     0.01306738505772     0.00973731274738

                11                  12                  13                  14                  15

    1     0.00047586743886     0.00090639979206     0.00125811309284     0.00047153521169     0.00014833556711
    2     0.02687536727720     0.01768362463357     0.01868132675063     0.01678742035922     0.01426244711650
    3     0.00305203622510     0.13709368650960     0.13628139787849     0.13185087617721     0.05696235850623
    4     0.00336257528842     0.14170445709185     1.54185763481738     0.14099029587398     0.00975450175623
    5     0.07900940811512     0.00565510994472     0.00371155820084     0.00793561603487     0.01503668788860
    6     0.00377479775784     1.53030136610318     0.13980712458495     0.14028788510675     0.81286999843012
    7     0.16880292337502     0.00104580132316     0.00173860734908     0.00632209097569     0.00122504951412
    8     1.27767483837860     0.00004269892305     0.00003753556132     0.00012322635828     0.00004899872799
    9     1.79798799395324     0.00013736131087     0.00020062168660     0.00053951564786     0.00011399946878
   10     0.14228026691807     0.00046149114292     0.00045970957409     0.00248867163862     0.00028421807437
   11     0.00000000000000     0.00028910263672     0.00044494355215     0.00299763853513     0.00002854430282
   12     0.00028910263672     0.00000000000000     0.13982759950163     1.51922240601469     0.05693703711297
   13     0.00044494355215     0.13982759950163     0.00000000000000     1.50934790052333     0.00242518072911
   14     0.00299763853513     1.51922240601469     1.50934790052333     0.00000000000000     0.01067306460891
   15     0.00002854430282     0.05693703711297     0.00242518072911     0.01067306460891     0.00000000000000
   16     0.00001679901644     0.00260829817471     0.05737586357237     0.01102632074011     0.00040968052474
   17     0.04267411347795     0.00000802720886     0.00000720150908     0.00000347380123     0.00001842816170
   18     0.02478196128949     0.00044601285576     0.00051157763375     0.00218574465787     0.00013517797535
   19     0.00000668839294     0.83188472156314     0.01149002586179     0.05936185148309     0.00570336471233
   20     0.00000522621691     0.01138680032815     0.83162413322258     0.05925251191124     0.00025625838014
   21     0.06191386840960     0.00001258056497     0.00001179439004     0.00000610589939     0.00001140530415
   22     0.83351312574215     0.00000672662506     0.00000689469831     0.00000418371667     0.00000620344040
   23     0.00000292945377     0.06023574204031     0.05987279182483     0.83346857596377     0.00019822210309
   24     0.00129806213110     0.00126049479075     0.00025808116112     0.00031463054732     0.00379930799667

                16                  17                  18                  19                  20

    1     0.00194671313283     0.00012376008060     0.05724163250261     0.00033651229357     0.00003560838565
    2     0.02014297752497     0.00031484930452     0.10654519030680     0.00090985494389     0.00089438302461
    3     0.05767987964411     0.00008556118094     0.00936922972342     0.01087667851928     0.01093286152297
    4     0.81476667555036     0.00003129626069     0.00612711101728     0.00254085842899     0.06152492820737
    5     0.00199888162104     0.00153776793662     0.08390551094176     0.00029145871710     0.00039556438683
    6     0.00997744195097     0.00007073906273     0.00405756708829     0.06093682738996     0.00252054910129
    7     0.00021973491874     0.01181734582181     0.14166656297986     0.00005815022493     0.00007540060398
    8     0.00001187760982     0.80511596647899     0.21771238959967     0.00000573333754     0.00000200771636
    9     0.00005176777033     0.01093155425023     0.02270241168300     0.00001598986561     0.00002335349565
   10     0.00025662444829     0.04402403773181     2.09385820992714     0.00004839147571     0.00001795147247
   11     0.00001679901644     0.04267411347795     0.02478196128949     0.00000668839294     0.00000522621691
   12     0.00260829817471     0.00000802720886     0.00044601285576     0.83188472156314     0.01138680032815
   13     0.05737586357237     0.00000720150908     0.00051157763375     0.01149002586179     0.83162413322258
   14     0.01102632074011     0.00000347380123     0.00218574465787     0.05936185148309     0.05925251191124
   15     0.00040968052474     0.00001842816170     0.00013517797535     0.00570336471233     0.00025625838014
   16     0.00000000000000     0.00000324522767     0.00035352800845     0.00024405767010     0.00542151358154
   17     0.00000324522767     0.00000000000000     0.01003191078613     0.00000134609054     0.00000036692642
   18     0.00035352800845     0.01003191078613     0.00000000000000     0.00006569096773     0.00001402804907
   19     0.00024405767010     0.00000134609054     0.00006569096773     0.00000000000000     0.00025404546147
   20     0.00542151358154     0.00000036692642     0.00001402804907     0.00025404546147     0.00000000000000
   21     0.00000360550605     0.00040792561419     0.00209332922049     0.00000178271447     0.00000038284311
   22     0.00000332811610     0.00318814278067     0.00164185071546     0.00000072195663     0.00000231506111
   23     0.00021533637720     0.00000079897301     0.00001116420276     0.00537030027168     0.00534241679976
   24     0.00019255728218     0.00052765971897     0.00124200812012     0.00005925412932     0.00006043989357

                21                  22                  23                  24

    1     0.00008035424466     0.00020115932005     0.00001965456040     0.00743162103532
    2     0.00036345662538     0.00038535888952     0.00026360842199     0.05123369448851
    3     0.00011229490266     0.00012533754630     0.00291586927471     0.01628728789145
    4     0.00004718051042     0.00005630242336     0.01132985103028     0.00131479787337
    5     0.01317827035426     0.00185961360234     0.00013114040852     0.80263473919141
    6     0.00006102324525     0.00003242176233     0.01126433714055     0.01406335815226
    7     0.05271311497542     0.01392359065262     0.00002986444780     0.05706332867186
    8     0.01149725183675     0.05644227499796     0.00000188537233     0.00111138050281
    9     0.82905904138124     0.05837774699006     0.00001121882795     0.01306738505772
   10     0.01070869651598     0.01255916481532     0.00001690803509     0.00973731274738
   11     0.06191386840960     0.83351312574215     0.00000292945377     0.00129806213110
   12     0.00001258056497     0.00000672662506     0.06023574204031     0.00126049479075
   13     0.00001179439004     0.00000689469831     0.05987279182483     0.00025808116112
   14     0.00000610589939     0.00000418371667     0.83346857596377     0.00031463054732
   15     0.00001140530415     0.00000620344040     0.00019822210309     0.00379930799667
   16     0.00000360550605     0.00000332811610     0.00021533637720     0.00019255728218
   17     0.00040792561419     0.00318814278067     0.00000079897301     0.00052765971897
   18     0.00209332922049     0.00164185071546     0.00001116420276     0.00124200812012
   19     0.00000178271447     0.00000072195663     0.00537030027168     0.00005925412932
   20     0.00000038284311     0.00000231506111     0.00534241679976     0.00006043989357
   21     0.00000000000000     0.00256080518735     0.00000067489373     0.00028723606099
   22     0.00256080518735     0.00000000000000     0.00000049885292     0.00010124193106
   23     0.00000067489373     0.00000049885292     0.00000000000000     0.00003789062626
   24     0.00028723606099     0.00010124193106     0.00003789062626     0.00000000000000



  Atomic Valences: 

 #  #
 Irrep: 1
      1:    0.931868150831509
      2:    4.229809129752408
      3:    4.776498086321902
      4:    4.448813811297256
      5:    4.542712830312277
      6:    4.455252457991077
      7:    4.636199454771658
      8:    4.074393148403655
      9:    4.400574761197636
     10:    5.095902927596075
     11:    4.471269077884650
     12:    4.459157546192708
     13:    4.457237617676324
     14:    4.455661541786917
     15:    0.991308470402420
     16:    0.984926707969096
     17:    0.930925518385341
     18:    2.786699800252262
     19:    0.990464306471823
     20:    0.990043046592239
     21:    0.985132181200537
     22:    0.984999009823740
     23:    0.990741679902726
     24:    0.983383770001504


    Psi4 stopped on: Saturday, 18 November 2023 08:40AM
    Psi4 wall time for execution: 0:00:21.05

*** Psi4 exiting successfully. Buy a developer a beer!
