      -----------------------------------------------------------      
     |                   =====================                   |     
     |                           x T B                           |     
     |                   =====================                   |     
     |                         S. Grimme                         |     
     |          Mulliken Center for Theoretical Chemistry        |     
     |                    University of Bonn                     |     
      -----------------------------------------------------------      

   * xtb version 6.5.0 (97a52f5) compiled by 'conda@d2599ee0d4f4' on 2022-05-15

   xtb is free software: you can redistribute it and/or modify it under
   the terms of the GNU Lesser General Public License as published by
   the Free Software Foundation, either version 3 of the License, or
   (at your option) any later version.
   
   xtb is distributed in the hope that it will be useful,
   but WITHOUT ANY WARRANTY; without even the implied warranty of
   MERCHANTABILITY or FITNESS FOR A PARTICULAR PURPOSE.  See the
   GNU Lesser General Public License for more details.
   
   Cite this work as:
   * C. Bannwarth, E. Caldeweyher, S. Ehlert, A. Hansen, P. Pracht,
     J. Seibert, S. Spicher, S. Grimme, WIREs Comput. Mol. Sci., 2020, 11,
     e01493. DOI: 10.1002/wcms.1493
   
   for GFN2-xTB:
   * C. Bannwarth, S. Ehlert and S. Grimme., J. Chem. Theory Comput., 2019,
     15, 1652-1671. DOI: 10.1021/acs.jctc.8b01176
   for GFN1-xTB:
   * S. Grimme, C. Bannwarth, P. Shushkov, J. Chem. Theory Comput., 2017,
     13, 1989-2009. DOI: 10.1021/acs.jctc.7b00118
   for GFN0-xTB:
   * P. Pracht, E. Caldeweyher, S. Ehlert, S. Grimme, ChemRxiv, 2019, preprint.
     DOI: 10.26434/chemrxiv.8326202.v1
   for GFN-FF:
   * S. Spicher and S. Grimme, Angew. Chem. Int. Ed., 2020, 59, 15665-15673.
     DOI: 10.1002/anie.202004239
   
   for ALPB and GBSA implicit solvation:
   * S. Ehlert, M. Stahn, S. Spicher, S. Grimme, J. Chem. Theory Comput.,
     2021, 17, 4250-4261. DOI: 10.1021/acs.jctc.1c00471
   
   for DFT-D4:
   * E. Caldeweyher, C. Bannwarth and S. Grimme, J. Chem. Phys., 2017,
     147, 034112. DOI: 10.1063/1.4993215
   * E. Caldeweyher, S. Ehlert, A. Hansen, H. Neugebauer, S. Spicher,
     C. Bannwarth and S. Grimme, J. Chem. Phys., 2019, 150, 154122.
     DOI: 10.1063/1.5090222
   * E. Caldeweyher, J.-M. Mewes, S. Ehlert and S. Grimme, Phys. Chem. Chem. Phys.
     2020, 22, 8499-8512. DOI: 10.1039/D0CP00502A
   
   for sTDA-xTB:
   * S. Grimme and C. Bannwarth, J. Chem. Phys., 2016, 145, 054103.
     DOI: 10.1063/1.4959605
   
   in the mass-spec context:
   * V. Asgeirsson, C. Bauer and S. Grimme, Chem. Sci., 2017, 8, 4879.
     DOI: 10.1039/c7sc00601b
   * J. Koopman and S. Grimme, ACS Omega 2019, 4, 12, 15120-15133.
     DOI: 10.1021/acsomega.9b02011
   
   for metadynamics refer to:
   * S. Grimme, J. Chem. Theory Comput., 2019, 155, 2847-2862
     DOI: 10.1021/acs.jctc.9b00143
   
   for SPH calculations refer to:
   * S. Spicher and S. Grimme, J. Chem. Theory Comput., 2021, 17, 1701-1714
     DOI: 10.1021/acs.jctc.0c01306
   
   with help from (in alphabetical order)
   P. Atkinson, C. Bannwarth, F. Bohle, G. Brandenburg, E. Caldeweyher
   M. Checinski, S. Dohm, S. Ehlert, S. Ehrlich, I. Gerasimov, C. Hölzer
   A. Katbashev, J. Koopman, C. Lavigne, S. Lehtola, F. März, M. Müller,
   F. Musil, H. Neugebauer, J. Pisarek, C. Plett, P. Pracht, F. Pultar,
   J. Seibert, P. Shushkov, S. Spicher, M. Stahn, M. Steiner, T. Strunk,
   J. Stückrath, T. Rose, and J. Unsleber
   
 * started run on 2023/11/18 at 08:34:52.456     

           -------------------------------------------------
          |                Calculation Setup                |
           -------------------------------------------------

          program call               : /home/liuchw/anaconda3/envs/xtbenv/bin/xtb --gfn 2 --chrg 0 --uhf 0 1_16_Index_0-opt-2-3-351_preQMOPTprefit_xyzformat.xyz --opt --input xtb-opt-2-3-351_constr.txt
          hostname                   : node165.bme.utexas.edu
          coordinate file            : 1_16_Index_0-opt-2-3-351_preQMOPTprefit_xyzformat.xyz
          omp threads                :                    64

   ID    Z sym.   atoms
    1    1 H      1, 15-17, 19-24
    2    7 N      2, 8
    3    6 C      3-7, 9-14
    4    8 O      18
constraining angle 1 2 3 4 to  350.9817650°, actual value:   -9.0182350°
constraining angle 5 2 3 4 to  171.9921898°, actual value:  171.9921898°
constraining angle 1 2 5 24 to  183.9594857°, actual value: -176.0405143°
constraining angle 3 2 5 24 to    2.9968092°, actual value:    2.9968092°
constraining angle 2 5 7 9 to  181.9950669°, actual value: -178.0049331°

           -------------------------------------------------
          |                 G F N 2 - x T B                 |
           -------------------------------------------------

        Reference                      10.1021/acs.jctc.8b01176
      * Hamiltonian:
        H0-scaling (s, p, d)           1.850000    2.230000    2.230000
        zeta-weighting                 0.500000
      * Dispersion:
        s8                             2.700000
        a1                             0.520000
        a2                             5.000000
        s9                             5.000000
      * Repulsion:
        kExp                           1.500000    1.000000
        rExp                           1.000000
      * Coulomb:
        alpha                          2.000000
        third order                    shell-resolved
        anisotropic                    true
        a3                             3.000000
        a5                             4.000000
        cn-shift                       1.200000
        cn-exp                         4.000000
        max-rad                        5.000000

q/qsh data taken from xtbrestart
CAMM data taken from xtbrestart

          ...................................................
          :                      SETUP                      :
          :.................................................:
          :  # basis functions                  66          :
          :  # atomic orbitals                  66          :
          :  # shells                           38          :
          :  # electrons                        70          :
          :  max. iterations                   250          :
          :  Hamiltonian                  GFN2-xTB          :
          :  restarted?                       true          :
          :  GBSA solvation                  false          :
          :  PC potential                    false          :
          :  electronic temp.          300.0000000     K    :
          :  accuracy                    1.0000000          :
          :  -> integral cutoff          0.2500000E+02      :
          :  -> integral neglect         0.1000000E-07      :
          :  -> SCF convergence          0.1000000E-05 Eh   :
          :  -> wf. convergence          0.1000000E-03 e    :
          :  Broyden damping             0.4000000          :
          ...................................................

 iter      E             dE          RMSdq      gap      omega  full diag
   1    -39.1052494 -0.391052E+02  0.504E+00    2.06       0.0  T
   2    -39.1072911 -0.204165E-02  0.301E+00    2.10       1.0  T
   3    -39.0913050  0.159861E-01  0.766E-01    1.98       1.0  T
   4    -39.1085916 -0.172865E-01  0.187E-01    2.11       1.0  T
   5    -39.1090580 -0.466443E-03  0.771E-02    2.08       1.0  T
   6    -39.1090688 -0.107896E-04  0.388E-02    2.07       1.0  T
   7    -39.1090921 -0.233168E-04  0.955E-03    2.07       2.1  T
   8    -39.1090929 -0.817319E-06  0.475E-03    2.07       4.3  T
   9    -39.1090930 -0.885611E-07  0.167E-03    2.07      12.2  T
  10    -39.1090931 -0.365556E-07  0.715E-04    2.07      28.6  T
  11    -39.1090931 -0.282625E-08  0.381E-04    2.07      53.5  T

   *** convergence criteria satisfied after 11 iterations ***

         #    Occupation            Energy/Eh            Energy/eV
      -------------------------------------------------------------
         1        2.0000           -0.6774225             -18.4336
       ...           ...                  ...                  ...
        29        2.0000           -0.4408470             -11.9961
        30        2.0000           -0.4301913             -11.7061
        31        2.0000           -0.4211130             -11.4591
        32        2.0000           -0.4085143             -11.1162
        33        2.0000           -0.3884331             -10.5698
        34        2.0000           -0.3819207             -10.3926
        35        2.0000           -0.3506497              -9.5417 (HOMO)
        36                         -0.2744400              -7.4679 (LUMO)
        37                         -0.2336420              -6.3577
        38                         -0.2178072              -5.9268
        39                         -0.1774382              -4.8283
        40                         -0.1248108              -3.3963
       ...                                ...                  ...
        66                          0.6719453              18.2846
      -------------------------------------------------------------
                  HL-Gap            0.0762097 Eh            2.0738 eV
             Fermi-level           -0.3125449 Eh           -8.5048 eV

 SCC (total)                   0 d,  0 h,  0 min,  1.739 sec
 SCC setup                      ...        0 min,  0.011 sec (  0.608%)
 Dispersion                     ...        0 min,  0.037 sec (  2.153%)
 classical contributions        ...        0 min,  0.012 sec (  0.679%)
 integral evaluation            ...        0 min,  0.038 sec (  2.212%)
 iterations                     ...        0 min,  1.468 sec ( 84.402%)
 molecular gradient             ...        0 min,  0.159 sec (  9.161%)
 printout                       ...        0 min,  0.013 sec (  0.765%)

         :::::::::::::::::::::::::::::::::::::::::::::::::::::
         ::                     SUMMARY                     ::
         :::::::::::::::::::::::::::::::::::::::::::::::::::::
         :: total energy             -38.551997344464 Eh    ::
         :: gradient norm              0.066604278535 Eh/a0 ::
         :: HOMO-LUMO gap              2.073772346761 eV    ::
         ::.................................................::
         :: SCC energy               -39.109093056876 Eh    ::
         :: -> isotropic ES            0.046339767294 Eh    ::
         :: -> anisotropic ES          0.001502955020 Eh    ::
         :: -> anisotropic XC          0.020002373430 Eh    ::
         :: -> dispersion             -0.021717894019 Eh    ::
         :: repulsion energy           0.557278261474 Eh    ::
         :: add. restraining           0.000000000000 Eh    ::
         :: total charge              -0.000000000000 e     ::
         :::::::::::::::::::::::::::::::::::::::::::::::::::::

      ----------------------------------------------------------- 
     |                   =====================                   |
     |                        A N C O P T                        |
     |                   =====================                   |
     |               Approximate Normal Coordinate               |
     |                Rational Function Optimizer                |
      ----------------------------------------------------------- 

          ...................................................
          :                      SETUP                      :
          :.................................................:
          :   optimization level            normal          :
          :   max. optcycles                   200          :
          :   ANC micro-cycles                  20          :
          :   degrees of freedom                66          :
          :.................................................:
          :   RF solver                   davidson          :
          :   write xtbopt.log                true          :
          :   linear?                        false          :
          :   energy convergence         0.5000000E-05 Eh   :
          :   grad. convergence          0.1000000E-02 Eh/α :
          :   maximium RF displ.         1.0000000          :
          :   Hlow (freq-cutoff)         0.1000000E-01      :
          :   Hmax (freq-cutoff)         5.0000000          :
          :   S6 in model hess.         20.0000000          :
          ...................................................

generating ANC from model Hessian ...
Using Lindh-Hessian (1995)
 Shifting diagonal of input Hessian by    8.8222884818215906E-003
 Lowest  eigenvalues of input Hessian
    0.000000    0.000000    0.000000    0.000000    0.000000    0.000000
    0.010000    0.011151    0.013000    0.015361    0.021114    0.022010
    0.025253    0.029483    0.030102    0.030933    0.032395    0.040627
 Highest eigenvalues
    2.077385    2.281538    2.512097    4.441940   10.740655   22.488537


........................................................................
.............................. CYCLE    1 ..............................
........................................................................
   1    -39.1090931 -0.391091E+02  0.106E-04    2.07       0.0  T
   2    -39.1090931 -0.461640E-10  0.764E-05    2.07     267.3  T
   3    -39.1090931 -0.836735E-10  0.421E-05    2.07     484.8  T
     SCC iter.                  ...        0 min,  0.367 sec
     gradient                   ...        0 min,  0.148 sec
 * total energy  :   -38.5519973 Eh     change       -0.1300037E-08 Eh
   gradient norm :     0.0666038 Eh/α   predicted     0.0000000E+00 (-100.00%)
   displ. norm   :     0.3389122 α      lambda       -0.1258353E-01
   maximum displ.:     0.2104748 α      in ANC's #11, #6, #30, ...

........................................................................
.............................. CYCLE    2 ..............................
........................................................................
   1    -39.1691824 -0.391692E+02  0.211E-01    2.19       0.0  T
   2    -39.1693485 -0.166167E-03  0.130E-01    2.17       1.0  T
   3    -39.1693584 -0.990431E-05  0.720E-02    2.18       1.0  T
   4    -39.1693913 -0.329030E-04  0.176E-02    2.17       1.2  T
   5    -39.1693971 -0.571180E-05  0.552E-03    2.17       3.7  T
   6    -39.1693973 -0.213492E-06  0.264E-03    2.17       7.7  T
   7    -39.1693973 -0.342439E-07  0.104E-03    2.17      19.5  T
   8    -39.1693973 -0.549500E-08  0.511E-04    2.17      39.9  T
   9    -39.1693973 -0.230970E-08  0.219E-04    2.17      93.4  T
     SCC iter.                  ...        0 min,  1.186 sec
     gradient                   ...        0 min,  0.183 sec
 * total energy  :   -38.5603439 Eh     change       -0.8346588E-02 Eh
   gradient norm :     0.0206842 Eh/α   predicted    -0.7015504E-02 ( -15.95%)
   displ. norm   :     0.2766618 α      lambda       -0.2633075E-02
   maximum displ.:     0.1859726 α      in ANC's #11, #6, #10, ...

........................................................................
.............................. CYCLE    3 ..............................
........................................................................
   1    -39.1946668 -0.391947E+02  0.127E-01    2.23       0.0  T
   2    -39.1947164 -0.495467E-04  0.837E-02    2.22       1.0  T
   3    -39.1947144  0.198750E-05  0.447E-02    2.23       1.0  T
   4    -39.1947340 -0.195753E-04  0.161E-02    2.22       1.3  T
   5    -39.1947389 -0.489323E-05  0.460E-03    2.22       4.4  T
   6    -39.1947392 -0.302095E-06  0.199E-03    2.22      10.2  T
   7    -39.1947392 -0.199448E-07  0.788E-04    2.22      25.9  T
   8    -39.1947392 -0.643821E-08  0.258E-04    2.22      79.1  T
     SCC iter.                  ...        0 min,  1.094 sec
     gradient                   ...        0 min,  0.177 sec
 * total energy  :   -38.5617582 Eh     change       -0.1414222E-02 Eh
   gradient norm :     0.0512373 Eh/α   predicted    -0.1417788E-02 (   0.25%)
   displ. norm   :     0.1439108 α      lambda       -0.7933562E-03
   maximum displ.:     0.0955442 α      in ANC's #6, #11, #10, ...

........................................................................
.............................. CYCLE    4 ..............................
........................................................................
   1    -39.1998933 -0.391999E+02  0.638E-02    2.23       0.0  T
   2    -39.1999003 -0.697204E-05  0.424E-02    2.23       1.0  T
   3    -39.1998952  0.505910E-05  0.246E-02    2.23       1.0  T
   4    -39.1999052 -0.997159E-05  0.666E-03    2.23       3.1  T
   5    -39.1999061 -0.836232E-06  0.190E-03    2.23      10.7  T
   6    -39.1999061 -0.492199E-07  0.761E-04    2.23      26.8  T
   7    -39.1999061 -0.480178E-09  0.256E-04    2.23      79.7  T
     SCC iter.                  ...        0 min,  1.005 sec
     gradient                   ...        0 min,  0.185 sec
 * total energy  :   -38.5612838 Eh     change        0.4743519E-03 Eh
   gradient norm :     0.1713601 Eh/α   predicted    -0.4049316E-03 (-185.37%)
   displ. norm   :     0.0320172 α      lambda       -0.1403150E-02
   maximum displ.:     0.0183811 α      in ANC's #11, #30, #36, ...

........................................................................
.............................. CYCLE    5 ..............................
........................................................................
   1    -39.1948728 -0.391949E+02  0.217E-02    2.21       0.0  T
   2    -39.1948746 -0.188802E-05  0.136E-02    2.22       1.5  T
   3    -39.1948748 -0.160425E-06  0.737E-03    2.22       2.8  T
   4    -39.1948751 -0.313723E-06  0.185E-03    2.22      11.0  T
   5    -39.1948752 -0.566103E-07  0.570E-04    2.22      35.8  T
   6    -39.1948752 -0.241715E-08  0.282E-04    2.22      72.3  T
     SCC iter.                  ...        0 min,  0.927 sec
     gradient                   ...        0 min,  0.179 sec
 * total energy  :   -38.5619999 Eh     change       -0.7161453E-03 Eh
   gradient norm :     0.0125191 Eh/α   predicted    -0.7022981E-03 (  -1.93%)
   displ. norm   :     0.0321651 α      lambda       -0.5913505E-04
   maximum displ.:     0.0254042 α      in ANC's #2, #1, #3, ...

........................................................................
.............................. CYCLE    6 ..............................
........................................................................
   1    -39.1936068 -0.391936E+02  0.128E-02    2.21       0.0  T
   2    -39.1936071 -0.268011E-06  0.744E-03    2.21       2.7  T
   3    -39.1936070  0.130832E-06  0.454E-03    2.21       4.5  T
   4    -39.1936072 -0.209296E-06  0.110E-03    2.21      18.6  T
   5    -39.1936072 -0.262223E-07  0.374E-04    2.21      54.5  T
   6    -39.1936072 -0.234120E-08  0.137E-04    2.21     148.9  T
     SCC iter.                  ...        0 min,  0.822 sec
     gradient                   ...        0 min,  0.166 sec
 * total energy  :   -38.5620191 Eh     change       -0.1914856E-04 Eh
   gradient norm :     0.0152338 Eh/α   predicted    -0.2968159E-04 (  55.01%)
   displ. norm   :     0.0373759 α      lambda       -0.3391626E-04
   maximum displ.:     0.0306748 α      in ANC's #2, #6, #3, ...

........................................................................
.............................. CYCLE    7 ..............................
........................................................................
   1    -39.1932347 -0.391932E+02  0.121E-02    2.21       0.0  T
   2    -39.1932348 -0.980327E-07  0.683E-03    2.21       3.0  T
   3    -39.1932345  0.279567E-06  0.519E-03    2.21       3.9  T
   4    -39.1932349 -0.395117E-06  0.750E-04    2.21      27.2  T
   5    -39.1932349 -0.128385E-07  0.219E-04    2.21      93.4  T
     SCC iter.                  ...        0 min,  0.736 sec
     gradient                   ...        0 min,  0.170 sec
 * total energy  :   -38.5620430 Eh     change       -0.2394544E-04 Eh
   gradient norm :     0.0040025 Eh/α   predicted    -0.1698343E-04 ( -29.07%)
   displ. norm   :     0.0472561 α      lambda       -0.1633264E-04
   maximum displ.:     0.0403919 α      in ANC's #2, #3, #6, ...

........................................................................
.............................. CYCLE    8 ..............................
........................................................................
   1    -39.1933022 -0.391933E+02  0.131E-02    2.21       0.0  T
   2    -39.1933023 -0.119651E-06  0.734E-03    2.21       2.8  T
   3    -39.1933020  0.316471E-06  0.569E-03    2.21       3.6  T
   4    -39.1933025 -0.471423E-06  0.818E-04    2.21      24.9  T
   5    -39.1933025 -0.154602E-07  0.262E-04    2.21      77.9  T
     SCC iter.                  ...        0 min,  0.773 sec
     gradient                   ...        0 min,  0.183 sec
 * total energy  :   -38.5620548 Eh     change       -0.1171638E-04 Eh
   gradient norm :     0.0020055 Eh/α   predicted    -0.8190859E-05 ( -30.09%)
   displ. norm   :     0.0329137 α      lambda       -0.6810438E-05
   maximum displ.:     0.0290660 α      in ANC's #2, #3, #1, ...

........................................................................
.............................. CYCLE    9 ..............................
........................................................................
   1    -39.1933960 -0.391934E+02  0.799E-03    2.21       0.0  T
   2    -39.1933961 -0.456378E-07  0.452E-03    2.21       4.5  T
   3    -39.1933959  0.125482E-06  0.329E-03    2.21       6.2  T
   4    -39.1933961 -0.169360E-06  0.499E-04    2.21      40.9  T
   5    -39.1933961 -0.577640E-08  0.171E-04    2.21     119.4  T
     SCC iter.                  ...        0 min,  0.709 sec
     gradient                   ...        0 min,  0.166 sec
 * total energy  :   -38.5620604 Eh     change       -0.5633472E-05 Eh
   gradient norm :     0.0021896 Eh/α   predicted    -0.3410681E-05 ( -39.46%)
   displ. norm   :     0.0249117 α      lambda       -0.4522354E-05
   maximum displ.:     0.0222325 α      in ANC's #2, #1, #3, ...

........................................................................
.............................. CYCLE   10 ..............................
........................................................................
   1    -39.1934467 -0.391934E+02  0.584E-03    2.21       0.0  T
   2    -39.1934467 -0.150030E-07  0.339E-03    2.21       6.0  T
   3    -39.1934466  0.598666E-07  0.181E-03    2.21      11.3  T
   4    -39.1934467 -0.692920E-07  0.301E-04    2.21      67.9  T
   5    -39.1934467 -0.197274E-08  0.111E-04    2.21     184.1  T
     SCC iter.                  ...        0 min,  0.707 sec
     gradient                   ...        0 min,  0.183 sec
 * total energy  :   -38.5620642 Eh     change       -0.3788858E-05 Eh
   gradient norm :     0.0010886 Eh/α   predicted    -0.2263916E-05 ( -40.25%)
   displ. norm   :     0.0312715 α      lambda       -0.2898578E-05
   maximum displ.:     0.0280222 α      in ANC's #2, #1, #3, ...

........................................................................
.............................. CYCLE   11 ..............................
........................................................................
   1    -39.1934130 -0.391934E+02  0.746E-03    2.21       0.0  T
   2    -39.1934130 -0.122356E-07  0.437E-03    2.21       4.7  T
   3    -39.1934129  0.380540E-07  0.126E-03    2.21      16.1  T
   4    -39.1934130 -0.426776E-07  0.286E-04    2.21      71.4  T
   5    -39.1934130 -0.155270E-08  0.118E-04    2.21     172.5  T
     SCC iter.                  ...        0 min,  0.615 sec
     gradient                   ...        0 min,  0.154 sec
 * total energy  :   -38.5620675 Eh     change       -0.3279994E-05 Eh
   gradient norm :     0.0006966 Eh/α   predicted    -0.1454077E-05 ( -55.67%)
   displ. norm   :     0.0186970 α      lambda       -0.1174699E-05
   maximum displ.:     0.0169924 α      in ANC's #2, #1, #6, ...

   *** GEOMETRY OPTIMIZATION CONVERGED AFTER 11 ITERATIONS ***

------------------------------------------------------------------------
 total energy gain   :        -0.0100701 Eh       -6.3191 kcal/mol
 total RMSD          :         0.1597366 a0        0.0845 Å
 total power (kW/mol):        -2.4035535 (step)   -2.0801 (real)
------------------------------------------------------------------------

 ANCopt (total)                0 d,  0 h,  0 min, 12.711 sec
 optimizer setup                ...        0 min,  0.000 sec (  0.003%)
 model hessian                  ...        0 min,  0.007 sec (  0.059%)
 ANC generation                 ...        0 min,  0.110 sec (  0.865%)
 coordinate transformation      ...        0 min,  0.000 sec (  0.003%)
 single point calculation       ...        0 min, 12.239 sec ( 96.287%)
 optimization log               ...        0 min,  0.003 sec (  0.020%)
 hessian update                 ...        0 min,  0.333 sec (  2.617%)
 rational function              ...        0 min,  0.017 sec (  0.131%)

================
 final structure:
================
24
 xtb: 6.5.0 (97a52f5)
H            0.37336625558772        0.75734146953745       -0.69569900552137
N            0.23771451793558       -0.04103893838816       -0.06497673734369
C            1.30792257637733       -0.89281381315479        0.13170999888170
C            2.43209565600278       -0.72443828506135       -0.68111595599740
C           -0.98941607035787       -0.08761817575852        0.47294954241934
C            1.31134431650346       -1.91115747823741        1.08558057349960
C           -1.93013581314850        0.84516643478800        0.14523310562433
N           -2.83098240694732        2.66044940889864       -0.83982156087854
C           -3.27833377158181        1.01858047226596        0.61442111144234
C           -1.67337359594944        1.93526207787466       -0.79510507782267
C           -3.78238914595601        2.10828759944275        0.00372262221332
C            2.41409239383320       -2.73373890088557        1.21693280973841
C            3.52782431186379       -1.55105642287834       -0.54072316739485
C            3.52457147486929       -2.56186594398112        0.40803821531970
H            0.46041216845512       -2.06088678998135        1.73158568610025
H            2.43101390500038        0.06410211208646       -1.41951093294764
H           -2.96485237297667        3.48271317013302       -1.40386513770798
O           -0.64372727419568        2.18197389787457       -1.42177595382660
H            2.40450418125781       -3.51670105615403        1.96087919627408
H            4.38938056019996       -1.40924116996582       -1.17604106240163
H           -3.77713553413885        0.38369532261344        1.31911791182584
H           -4.75222107640959        2.55874509462729        0.09182486305248
H            4.38103837492589       -3.20935270285991        0.51644222691405
H           -1.20695962115044       -0.85742937283583        1.20147571853707

 Bond Distances (Angstroems)
 ---------------------------
H1-N2=1.0265         N2-H1=1.0265         N2-C3=1.3819         N2-C5=1.3407         C3-N2=1.3819         C3-C4=1.3974         
C3-C6=1.3953         C4-C3=1.3974         C4-C13=1.3797        C4-H16=1.0803        C5-N2=1.3407         C5-C7=1.3647         
C5-H24=1.0820        C6-C3=1.3953         C6-C12=1.3820        C6-H15=1.0788        C7-C5=1.3647         C7-C9=1.4380         
C7-C10=1.4624        N8-C10=1.3667        N8-C11=1.3862        N8-H17=1.0061        C9-C7=1.4380         C9-C11=1.3470        
C9-H21=1.0717        C10-C7=1.4624        C10-N8=1.3667        C10-O18=1.2303       C11-N8=1.3862        C11-C9=1.3470        
C11-H22=1.0730       C12-C6=1.3820        C12-C14=1.3846       C12-H19=1.0801       C13-C4=1.3797        C13-C14=1.3863       
C13-H20=1.0798       C14-C12=1.3846       C14-C13=1.3863       C14-H23=1.0791       H15-C6=1.0788        H16-C4=1.0803        
H17-N8=1.0061        O18-C10=1.2303       H19-C12=1.0801       H20-C13=1.0798       H21-C9=1.0717        H22-C11=1.0730       
H23-C14=1.0791       H24-C5=1.0820        
 C  H  Rav=1.0781 sigma=0.0035  Rmin=1.0717  Rmax=1.0820     8
 C  C  Rav=1.3937 sigma=0.0319  Rmin=1.3470  Rmax=1.4624    10
 N  H  Rav=1.0163 sigma=0.0102  Rmin=1.0061  Rmax=1.0265     2
 N  C  Rav=1.3689 sigma=0.0178  Rmin=1.3407  Rmax=1.3862     4
 O  C  Rav=1.2303 sigma=0.0000  Rmin=1.2303  Rmax=1.2303     1

 selected bond angles (degree)
 --------------------
C3-N2-H1=117.68                C5-N2-H1=113.24                C5-N2-C3=129.08                C4-C3-N2=117.77                
C6-C3-N2=123.30                C6-C3-C4=118.92                C13-C4-C3=120.50               H16-C4-C3=118.99               
H16-C4-C13=120.51              C7-C5-N2=120.72                H24-C5-N2=118.61               H24-C5-C7=120.62               
C12-C6-C3=120.09               H15-C6-C3=120.58               H15-C6-C12=119.33              C9-C7-C5=130.57                
C10-C7-C5=122.88               C10-C7-C9=106.53               C11-N8-C10=110.49              H17-N8-C10=124.38              
H17-N8-C11=125.13              C11-C9-C7=107.49               H21-C9-C7=125.41               H21-C9-C11=127.10              
N8-C10-C7=105.54               O18-C10-C7=128.60              O18-C10-N8=125.86              

 selected dihedral angles (degree)
 ---------------------------------
C4-C3-N2-H1=351.00            C4-C3-N2-C5=171.99            C6-C3-N2-H1=171.68            C6-C3-N2-C5=352.67            
C13-C4-C3-N2=180.56           C13-C4-C3-C6=359.91           H16-C4-C3-N2=  0.69           H16-C4-C3-C6=180.05           
C7-C5-N2-H1=  1.60            C7-C5-N2-C3=180.65            H24-C5-N2-H1=183.94           H24-C5-N2-C3=  2.99           
C12-C6-C3-N2=179.37           C12-C6-C3-C4=  0.05           H15-C6-C3-N2=358.91           H15-C6-C3-C4=179.59           
C9-C7-C5-N2=181.97            C9-C7-C5-H24=359.59           C10-C7-C5-N2=  0.08           C10-C7-C5-H24=177.70          
C11-C9-C7-C5=178.66           C11-C9-C7-C10=  0.32          H21-C9-C7-C5=358.41           H21-C9-C7-C10=180.07          
N8-C10-C7-C5=181.15           N8-C10-C7-C9=359.64           O18-C10-C7-C5=  0.66          O18-C10-C7-C9=179.15          
C7-C10-N8-C11=  0.27          C7-C10-N8-H17=179.89          O18-C10-N8-C11=180.74         O18-C10-N8-H17=  0.37         
           -------------------------------------------------
          |                Final Singlepoint                |
           -------------------------------------------------

          ...................................................
          :                      SETUP                      :
          :.................................................:
          :  # basis functions                  66          :
          :  # atomic orbitals                  66          :
          :  # shells                           38          :
          :  # electrons                        70          :
          :  max. iterations                   250          :
          :  Hamiltonian                  GFN2-xTB          :
          :  restarted?                      false          :
          :  GBSA solvation                  false          :
          :  PC potential                    false          :
          :  electronic temp.          300.0000000     K    :
          :  accuracy                    1.0000000          :
          :  -> integral cutoff          0.2500000E+02      :
          :  -> integral neglect         0.1000000E-07      :
          :  -> SCF convergence          0.1000000E-05 Eh   :
          :  -> wf. convergence          0.1000000E-03 e    :
          :  Broyden damping             0.4000000          :
          ...................................................

 iter      E             dE          RMSdq      gap      omega  full diag
   1    -39.1934130 -0.391934E+02  0.597E-05    2.21       0.0  T
   2    -39.1934130 -0.104876E-10  0.400E-05    2.21     509.9  T
   3    -39.1934130 -0.679989E-11  0.255E-05    2.21     800.2  T

   *** convergence criteria satisfied after 3 iterations ***

         #    Occupation            Energy/Eh            Energy/eV
      -------------------------------------------------------------
         1        2.0000           -0.6853350             -18.6489
       ...           ...                  ...                  ...
        29        2.0000           -0.4388441             -11.9416
        30        2.0000           -0.4284854             -11.6597
        31        2.0000           -0.4243563             -11.5473
        32        2.0000           -0.4105758             -11.1723
        33        2.0000           -0.3884518             -10.5703
        34        2.0000           -0.3833738             -10.4321
        35        2.0000           -0.3503514              -9.5335 (HOMO)
        36                         -0.2691195              -7.3231 (LUMO)
        37                         -0.2278164              -6.1992
        38                         -0.2077622              -5.6535
        39                         -0.1710826              -4.6554
        40                         -0.1141204              -3.1054
       ...                                ...                  ...
        66                          0.7384212              20.0935
      -------------------------------------------------------------
                  HL-Gap            0.0812319 Eh            2.2104 eV
             Fermi-level           -0.3097354 Eh           -8.4283 eV

 SCC (total)                   0 d,  0 h,  0 min,  0.663 sec
 SCC setup                      ...        0 min,  0.032 sec (  4.771%)
 Dispersion                     ...        0 min,  0.026 sec (  3.991%)
 classical contributions        ...        0 min,  0.013 sec (  1.930%)
 integral evaluation            ...        0 min,  0.032 sec (  4.849%)
 iterations                     ...        0 min,  0.379 sec ( 57.220%)
 molecular gradient             ...        0 min,  0.168 sec ( 25.316%)
 printout                       ...        0 min,  0.012 sec (  1.867%)

         :::::::::::::::::::::::::::::::::::::::::::::::::::::
         ::                     SUMMARY                     ::
         :::::::::::::::::::::::::::::::::::::::::::::::::::::
         :: total energy             -38.562067461601 Eh    ::
         :: gradient norm              0.000696747742 Eh/a0 ::
         :: HOMO-LUMO gap              2.210433250127 eV    ::
         ::.................................................::
         :: SCC energy               -39.193412973898 Eh    ::
         :: -> isotropic ES            0.045082324106 Eh    ::
         :: -> anisotropic ES          0.000916149480 Eh    ::
         :: -> anisotropic XC          0.017723556233 Eh    ::
         :: -> dispersion             -0.022213515512 Eh    ::
         :: repulsion energy           0.631523900259 Eh    ::
         :: add. restraining           0.000001166680 Eh    ::
         :: total charge               0.000000000000 e     ::
         :::::::::::::::::::::::::::::::::::::::::::::::::::::

           -------------------------------------------------
          |                Property Printout                |
           -------------------------------------------------

    * Orbital Energies and Occupations

         #    Occupation            Energy/Eh            Energy/eV
      -------------------------------------------------------------
         1        2.0000           -0.6853350             -18.6489
       ...           ...                  ...                  ...
        23        2.0000           -0.4832873             -13.1509
        24        2.0000           -0.4792774             -13.0418
        25        2.0000           -0.4729852             -12.8706
        26        2.0000           -0.4712048             -12.8221
        27        2.0000           -0.4615389             -12.5591
        28        2.0000           -0.4575273             -12.4500
        29        2.0000           -0.4388441             -11.9416
        30        2.0000           -0.4284854             -11.6597
        31        2.0000           -0.4243563             -11.5473
        32        2.0000           -0.4105758             -11.1723
        33        2.0000           -0.3884518             -10.5703
        34        2.0000           -0.3833738             -10.4321
        35        2.0000           -0.3503514              -9.5335 (HOMO)
        36                         -0.2691195              -7.3231 (LUMO)
        37                         -0.2278164              -6.1992
        38                         -0.2077622              -5.6535
        39                         -0.1710826              -4.6554
        40                         -0.1141204              -3.1054
        41                         -0.0880310              -2.3954
        42                          0.0238681               0.6495
        43                          0.0339030               0.9225
        44                          0.0948392               2.5807
        45                          0.1112207               3.0265
        46                          0.1270745               3.4579
       ...                                ...                  ...
        66                          0.7384212              20.0935
      -------------------------------------------------------------
                  HL-Gap            0.0812319 Eh            2.2104 eV
             Fermi-level           -0.3097354 Eh           -8.4283 eV

     #   Z          covCN         q      C6AA      α(0)
     1   1 H        0.859     0.227     0.977     1.549
     2   7 N        2.703    -0.104    23.282     7.166
     3   6 C        2.907     0.067    26.500     8.441
     4   6 C        2.927    -0.051    29.279     8.874
     5   6 C        2.830     0.039    27.112     8.532
     6   6 C        2.921    -0.049    29.213     8.863
     7   6 C        3.088    -0.067    29.548     8.910
     8   7 N        2.775    -0.146    24.148     7.298
     9   6 C        2.981    -0.071    29.774     8.951
    10   6 C        2.872     0.257    22.690     7.808
    11   6 C        2.991     0.003    27.938     8.670
    12   6 C        2.920    -0.028    28.706     8.786
    13   6 C        2.919    -0.026    28.660     8.779
    14   6 C        2.919    -0.037    28.932     8.821
    15   1 H        0.926     0.034     2.534     2.489
    16   1 H        0.926     0.042     2.428     2.437
    17   1 H        0.860     0.170     1.273     1.768
    18   8 O        0.857    -0.485    23.448     6.492
    19   1 H        0.926     0.034     2.524     2.484
    20   1 H        0.926     0.037     2.494     2.470
    21   1 H        0.926     0.034     2.536     2.490
    22   1 H        0.926     0.036     2.499     2.472
    23   1 H        0.926     0.034     2.537     2.491
    24   1 H        0.925     0.051     2.303     2.373

 Mol. C6AA /au·bohr⁶  :       7635.839535
 Mol. C8AA /au·bohr⁸  :     185887.329175
 Mol. α(0) /au        :        139.415546


Wiberg/Mayer (AO) data.
largest (>0.10) Wiberg bond orders for each atom

 ---------------------------------------------------------------------------
     #   Z sym  total        # sym  WBO       # sym  WBO       # sym  WBO
 ---------------------------------------------------------------------------
     1   1 H    0.948 --     2 N    0.877
     2   7 N    3.574 --     5 C    1.294     3 C    1.112     1 H    0.877
     3   6 C    3.964 --     6 C    1.355     4 C    1.346     2 N    1.112
     4   6 C    3.983 --    13 C    1.467     3 C    1.346    16 H    0.967
                            12 C    0.105
     5   6 C    3.972 --     7 C    1.499     2 N    1.294    24 H    0.954
     6   6 C    3.983 --    12 C    1.456     3 C    1.355    15 H    0.965
                            13 C    0.103
     7   6 C    3.962 --     5 C    1.499     9 C    1.157    10 C    1.067
     8   7 N    3.514 --    10 C    1.181    11 C    1.126    17 H    0.942
                            18 O    0.143
     9   6 C    3.977 --    11 C    1.696     7 C    1.157    21 H    0.972
    10   6 C    3.948 --    18 O    1.572     8 N    1.181     7 C    1.067
    11   6 C    3.933 --     9 C    1.696     8 N    1.126    22 H    0.970
    12   6 C    3.992 --     6 C    1.456    14 C    1.432    19 H    0.971
                             4 C    0.105
    13   6 C    3.991 --     4 C    1.467    14 C    1.423    20 H    0.971
                             6 C    0.103
    14   6 C    3.965 --    12 C    1.432    13 C    1.423    23 H    0.972
    15   1 H    0.999 --     6 C    0.965
    16   1 H    0.998 --     4 C    0.967
    17   1 H    0.971 --     8 N    0.942
    18   8 O    1.972 --    10 C    1.572     8 N    0.143
    19   1 H    0.998 --    12 C    0.971
    20   1 H    0.998 --    13 C    0.971
    21   1 H    0.999 --     9 C    0.972
    22   1 H    0.998 --    11 C    0.970
    23   1 H    0.999 --    14 C    0.972
    24   1 H    0.997 --     5 C    0.954
 ---------------------------------------------------------------------------

Topologies differ in total number of bonds
Writing topology from bond orders to xtbtopo.mol

molecular dipole:
                 x           y           z       tot (Debye)
 q only:       -0.164      -0.578       0.545
   full:       -0.427      -0.390       0.532       1.996
molecular quadrupole (traceless):
                xx          xy          yy          xz          yz          zz
 q only:        6.398      -5.715      -2.060      -0.204       1.197      -4.337
  q+dip:        7.053      -9.965      -0.547      -0.709      -3.797      -6.506
   full:        6.277      -8.409      -0.737       0.654      -0.695      -5.539

           -------------------------------------------------
          |                Geometry Summary                 |
           -------------------------------------------------

      molecular mass/u    :      186.2103137
   center of mass at/Å    :       -0.0562206       0.0700752      -0.0457325
  moments of inertia/u·Å² :        0.2137625E+03   0.1593450E+04   0.1805784E+04
rotational constants/cm⁻¹ :        0.7886152E-01   0.1057933E-01   0.9335355E-02

 * 24 selected distances

     #   Z          #   Z                                           value/Å
     1   1 H        2   7 N                                       1.0264616
     2   7 N        3   6 C                                       1.3818653
     3   6 C        4   6 C                                       1.3974269
     2   7 N        5   6 C                                       1.3406656
     3   6 C        6   6 C                                       1.3953154
     5   6 C        7   6 C                                       1.3647121
     7   6 C        9   6 C                                       1.4380014 (max)
     8   7 N       10   6 C                                       1.3667314
     8   7 N       11   6 C                                       1.3862267
     9   6 C       11   6 C                                       1.3470287
     6   6 C       12   6 C                                       1.3820084
     4   6 C       13   6 C                                       1.3797207
    12   6 C       14   6 C                                       1.3845631
    13   6 C       14   6 C                                       1.3863243
     6   6 C       15   1 H                                       1.0788082
     4   6 C       16   1 H                                       1.0802891
     8   7 N       17   1 H                                       1.0060737 (min)
    10   6 C       18   8 O                                       1.2303475
    12   6 C       19   1 H                                       1.0800825
    13   6 C       20   1 H                                       1.0798240
     9   6 C       21   1 H                                       1.0716717
    11   6 C       22   1 H                                       1.0729623
    14   6 C       23   1 H                                       1.0791322
     5   6 C       24   1 H                                       1.0819820

 * 5 distinct bonds (by element types)

   Z      Z             #   av. dist./Å        max./Å        min./Å
   1 H    6 C           8     1.0780940     1.0819820     1.0716717
   6 C    6 C           9     1.3861223     1.4380014     1.3470287
   1 H    7 N           2     1.0162676     1.0264616     1.0060737
   6 C    7 N           4     1.3688723     1.3862267     1.3406656
   6 C    8 O           1     1.2303475     1.2303475     1.2303475


optimized geometry written to: xtbopt.xyz


           -------------------------------------------------
          | TOTAL ENERGY              -38.562067461601 Eh   |
          | GRADIENT NORM               0.000696747742 Eh/α |
          | HOMO-LUMO GAP               2.210433250127 eV   |
           -------------------------------------------------
########################################################################
[WARNING] Runtime exception occurred
-1- restart_readRestart: Number of electron missmatch in restart file.
########################################################################

------------------------------------------------------------------------
 * finished run on 2023/11/18 at 08:35:07.826     
------------------------------------------------------------------------
 total:
 * wall-time:     0 d,  0 h,  0 min, 15.370 sec
 *  cpu-time:     0 d,  0 h, 10 min, 35.052 sec
 * ratio c/w:    41.318 speedup
 SCF:
 * wall-time:     0 d,  0 h,  0 min,  1.739 sec
 *  cpu-time:     0 d,  0 h,  1 min, 14.377 sec
 * ratio c/w:    42.762 speedup
 ANC optimizer:
 * wall-time:     0 d,  0 h,  0 min, 13.461 sec
 *  cpu-time:     0 d,  0 h,  9 min, 13.651 sec
 * ratio c/w:    41.130 speedup

