Generated by Psi4
        SP                        DF-MP2                      6-311G**
Number of atoms                            I                5
Charge                                     I                0
Multiplicity                               I                1
Number of electrons                        I               10
Number of alpha electrons                  I                5
Number of beta electrons                   I                5
Number of basis functions                  I               42
Number of independent functions            I               42
Atomic numbers                             I   N=           5
           6           1           1           1           1
Nuclear charges                            R   N=           5
  6.00000000e+00  1.00000000e+00  1.00000000e+00  1.00000000e+00  1.00000000e+00
Current cartesian coordinates              R   N=          15
 -1.58291176e-04  1.54298915e-04  1.79479152e-04 -1.27843374e+00  1.61245289e+00
 -1.61982217e-01 -7.44623813e-01 -1.58051345e+00 -1.09942653e+00  1.63096202e-01
 -5.55508743e-01  1.98148607e+00  1.86184610e+00  5.21732092e-01 -7.22214348e-01
Integer atomic weights                     I   N=           5
          12           1           1           1           1
Real atomic weights                        R   N=           5
  1.20000000e+01  1.00782503e+00  1.00782503e+00  1.00782503e+00  1.00782503e+00
Number of primitive shells                 I               41
Number of contracted shells                I               24
Pure/Cartesian d shells                    I                0
Pure/Cartesian f shells                    I                0
Highest angular momentum                   I                2
Largest degree of contraction              I                6
Shell types                                I   N=          24
           0           0           1           0           1           0
           1          -2           0           0           0           1
           0           0           0           1           0           0
           0           1           0           0           0           1
Number of primitives per shell             I   N=          24
           6           3           3           1           1           1
           1           1           3           1           1           1
           3           1           1           1           3           1
           1           1           3           1           1           1
Shell to atom map                          I   N=          24
           1           1           1           1           1           1
           1           1           2           2           2           2
           3           3           3           3           4           4
           4           4           5           5           5           5
Primitive exponents                        R   N=          41
  4.56324000e+03  6.82024000e+02  1.54973000e+02  4.44553000e+01  1.30290000e+01
  1.82773000e+00  2.09642000e+01  4.80331000e+00  1.45933000e+00  2.09642000e+01
  4.80331000e+00  1.45933000e+00  4.83456000e-01  4.83456000e-01  1.45585000e-01
  1.45585000e-01  6.26000000e-01  3.38650000e+01  5.09479000e+00  1.15879000e+00
  3.25840000e-01  1.02741000e-01  7.50000000e-01  3.38650000e+01  5.09479000e+00
  1.15879000e+00  3.25840000e-01  1.02741000e-01  7.50000000e-01  3.38650000e+01
  5.09479000e+00  1.15879000e+00  3.25840000e-01  1.02741000e-01  7.50000000e-01
  3.38650000e+01  5.09479000e+00  1.15879000e+00  3.25840000e-01  1.02741000e-01
  7.50000000e-01
Contraction coefficients                   R   N=          41
  1.96665025e-03  1.52306019e-02  7.61269097e-02  2.60801033e-01  6.16462078e-01
  2.21006028e-01  1.14660081e-01  9.19999648e-01 -3.03068213e-03  4.02486927e-02
  2.37593957e-01  8.15853851e-01  1.00000000e+00  1.00000000e+00  1.00000000e+00
  1.00000000e+00  1.00000000e+00  2.54938145e-02  1.90373109e-01  8.52161486e-01
  1.00000000e+00  1.00000000e+00  1.00000000e+00  2.54938145e-02  1.90373109e-01
  8.52161486e-01  1.00000000e+00  1.00000000e+00  1.00000000e+00  2.54938145e-02
  1.90373109e-01  8.52161486e-01  1.00000000e+00  1.00000000e+00  1.00000000e+00
  2.54938145e-02  1.90373109e-01  8.52161486e-01  1.00000000e+00  1.00000000e+00
  1.00000000e+00
Coordinates of each shell                  R   N=          72
 -1.58291176e-04  1.54298915e-04  1.79479152e-04 -1.58291176e-04  1.54298915e-04
  1.79479152e-04 -1.58291176e-04  1.54298915e-04  1.79479152e-04 -1.58291176e-04
  1.54298915e-04  1.79479152e-04 -1.58291176e-04  1.54298915e-04  1.79479152e-04
 -1.58291176e-04  1.54298915e-04  1.79479152e-04 -1.58291176e-04  1.54298915e-04
  1.79479152e-04 -1.58291176e-04  1.54298915e-04  1.79479152e-04 -1.27843374e+00
  1.61245289e+00 -1.61982217e-01 -1.27843374e+00  1.61245289e+00 -1.61982217e-01
 -1.27843374e+00  1.61245289e+00 -1.61982217e-01 -1.27843374e+00  1.61245289e+00
 -1.61982217e-01 -7.44623813e-01 -1.58051345e+00 -1.09942653e+00 -7.44623813e-01
 -1.58051345e+00 -1.09942653e+00 -7.44623813e-01 -1.58051345e+00 -1.09942653e+00
 -7.44623813e-01 -1.58051345e+00 -1.09942653e+00  1.63096202e-01 -5.55508743e-01
  1.98148607e+00  1.63096202e-01 -5.55508743e-01  1.98148607e+00  1.63096202e-01
 -5.55508743e-01  1.98148607e+00  1.63096202e-01 -5.55508743e-01  1.98148607e+00
  1.86184610e+00  5.21732092e-01 -7.22214348e-01  1.86184610e+00  5.21732092e-01
 -7.22214348e-01  1.86184610e+00  5.21732092e-01 -7.22214348e-01  1.86184610e+00
  5.21732092e-01 -7.22214348e-01
Total Energy                               R     -4.037920364543962e+01
Alpha Orbital Energies                     R   N=          42
 -1.12090008e+01 -9.41671415e-01 -5.44237900e-01 -5.43968398e-01 -5.43841217e-01
  1.61467813e-01  2.36838238e-01  2.36870550e-01  2.36889046e-01  4.26763025e-01
  4.26833994e-01  4.27000469e-01  7.50434023e-01  8.10922000e-01  8.10970558e-01
  8.11088324e-01  9.36839752e-01  1.20179436e+00  1.20205186e+00  1.72032135e+00
  1.72050992e+00  1.72065481e+00  1.72153471e+00  1.72177068e+00  1.72196127e+00
  2.17853458e+00  2.17888433e+00  2.17905788e+00  2.51708537e+00  2.61724375e+00
  2.61769791e+00  2.70234890e+00  2.70299272e+00  2.70316696e+00  2.89610075e+00
  2.89651262e+00  2.89667780e+00  3.18767595e+00  4.18568648e+00  4.18615767e+00
  4.18754213e+00  2.51501278e+01
Alpha MO coefficients                      R   N=        1764
  5.63338366e-01  4.66543531e-01  1.49695976e-07 -2.93224499e-07 -1.60166772e-07
  4.39519613e-03  1.65998949e-07  4.24167602e-07 -2.26592045e-07 -1.06970766e-03
 -2.85868194e-07  1.89995212e-07  3.29871920e-07 -7.03929494e-08  2.47788689e-07
 -2.67607313e-07  1.89551645e-07 -6.30974797e-07  3.64901918e-04  8.61616401e-05
  2.07879061e-04  3.87797253e-06 -4.72462330e-06  6.78210481e-07  3.64767564e-04
  8.72886530e-05  2.07546161e-04  2.33033310e-06  4.92753221e-06  3.63362175e-06
  3.64820917e-04  8.67373189e-05  2.07638172e-04 -7.64496281e-07  1.76218548e-06
 -6.11359682e-06  3.64831577e-04  8.68937775e-05  2.07761199e-04 -5.77931628e-06
 -1.43897304e-06  2.16927064e-06  1.02807711e-01  1.69430798e-01 -3.21731486e-05
  7.33443927e-06  3.80623876e-05 -4.24146675e-01 -4.10215426e-05  1.37115339e-05
  4.82291295e-05 -2.64777701e-01 -3.96417983e-06 -3.00670367e-06  4.94754439e-06
 -1.34036258e-06 -1.19628840e-05  5.69521023e-06 -6.49615403e-06  1.60899050e-05
 -8.32262488e-02 -1.12977920e-01 -7.64073689e-03 -1.20619523e-02  1.52110203e-02
 -1.52922793e-03 -8.32031722e-02 -1.12973353e-01 -7.65899636e-03 -7.02440388e-03
 -1.49103132e-02 -1.03721610e-02 -8.32007845e-02 -1.12957194e-01 -7.64446645e-03
  1.53983616e-03 -5.24080044e-03  1.86891753e-02 -8.32302367e-02 -1.13000480e-01
 -7.66037626e-03  1.75700719e-02  4.92133776e-03 -6.81477703e-03  9.98319135e-06
  1.65913952e-05  1.31833775e-01 -9.17034093e-02  9.92124246e-02 -4.78174229e-05
  2.07950646e-01 -1.44637799e-01  1.56496501e-01 -1.17609022e-05  1.36934704e-01
 -9.52521302e-02  1.03059937e-01  2.30686440e-02 -5.19903412e-03 -9.37172424e-03
  9.87494794e-03  1.82338148e-02 -1.47280953e-01 -2.32368535e-01 -1.01064422e-01
 -7.86350152e-03  1.43058319e-02  3.85115698e-03 -2.75916938e-02 -4.35434303e-02
 -1.89462967e-02  6.04265822e-03 -9.00092123e-03  3.31221922e-03  1.19129508e-01
  1.87953475e-01  8.17475668e-02  6.13592687e-03  1.04136332e-04 -1.37442967e-02
  5.57669834e-02  8.79828944e-02  3.82776371e-02 -8.64215292e-04 -7.79806667e-03
  9.17012840e-03 -3.72302084e-05 -6.26164301e-05 -6.40008227e-02  7.97033284e-02
  1.58683929e-01  1.76943218e-04 -1.00954508e-01  1.25731877e-01  2.50327624e-01
  1.10751171e-04 -6.65142317e-02  8.28421465e-02  1.64937418e-01  1.37825644e-02
  4.47408449e-03 -1.80192933e-02 -4.81109651e-03 -2.28278903e-02  8.18849095e-02
  1.29236409e-01  5.62917393e-02  4.91315457e-03 -6.25631381e-03  1.04263936e-02
 -1.11953264e-01 -1.76664356e-01 -7.69476376e-02 -1.06703185e-02 -9.98441897e-03
 -8.76909680e-04  1.15136248e-01  1.81719372e-01  7.91514681e-02 -5.31622562e-03
  9.98489217e-03 -9.57945487e-03 -8.51212412e-02 -1.34311565e-01 -5.85001230e-02
  9.37712801e-03  8.36626924e-03  4.23057365e-03 -5.82333642e-06 -1.01851360e-05
 -1.18973132e-01 -1.44461233e-01  2.45857302e-02  2.69271126e-05 -1.87696385e-01
 -2.27898078e-01  3.87782849e-02  5.27124981e-05 -1.23690917e-01 -1.50195033e-01
  2.55587055e-02  1.36736820e-02  1.74448753e-02  1.34725009e-02 -1.95167750e-02
  5.14890337e-03 -3.76000075e-02 -5.93375911e-02 -2.58523831e-02 -1.09807135e-02
 -3.46993950e-03  9.38928564e-04  1.28489631e-01  2.02805052e-01  8.84040774e-02
  9.30835398e-04  8.33850742e-03  1.31494151e-02  4.85825633e-02  7.66773469e-02
  3.34174894e-02 -7.65332159e-03 -6.25524786e-03 -6.53182061e-03 -1.39461681e-01
 -2.20110532e-01 -9.59436881e-02  1.45212999e-02 -2.46315783e-03 -6.90484732e-03
  4.89683047e-02  7.85537664e-02 -2.21710621e-05  3.77898576e-05  2.40881931e-05
 -6.66526582e-02 -3.71713997e-05  4.92272470e-05  4.12754102e-05 -2.15025861e+00
 -3.57620551e-04  3.84042969e-04  4.03158153e-04  2.38075175e-06 -1.23944782e-05
  7.39087074e-07 -1.37902494e-05  7.93156658e-06  9.28746587e-03 -7.35212338e-03
  7.82681486e-01  1.26532504e-03 -1.59494993e-03  1.49457522e-04  9.27056010e-03
 -7.29875514e-03  7.82716199e-01  7.46802978e-04  1.57060764e-03  1.08406041e-03
  9.29182643e-03 -7.34689483e-03  7.82710205e-01 -1.50314233e-04  5.44424769e-04
 -1.96224951e-03  9.25843058e-03 -7.28685142e-03  7.82689061e-01 -1.84959079e-03
 -5.26278789e-04  7.14485483e-04  3.34352678e-06  4.54379990e-06  8.66754638e-02
 -5.56912151e-02  9.17452128e-02  5.44831678e-06  4.12346614e-02 -2.64593400e-02
  4.36987237e-02 -1.92547308e-04  7.13133157e-01 -4.58324085e-01  7.54798985e-01
 -2.47388182e-02  4.26382567e-03  1.21904493e-02 -8.73470343e-03 -1.37339234e-02
  1.49265877e-02 -1.56174982e-01  1.77657666e+00 -1.78201176e-02  2.39567135e-02
 -4.39396554e-05  5.38060032e-03 -5.60393280e-02  6.37670991e-01 -1.83812217e-03
 -1.04789269e-02 -3.71277228e-03 -1.57385300e-02  1.64283277e-01 -1.86984033e+00
 -3.34444097e-04  7.71515033e-03 -3.04147043e-02 -4.56726255e-03  4.78870147e-02
 -5.44192621e-01 -6.63405597e-03 -4.04755385e-03  6.02026367e-03 -2.45783694e-05
 -3.96060795e-05 -4.72348047e-02  8.61081477e-02  9.69181770e-02  8.67822106e-05
 -2.24773670e-02  4.10706020e-02  4.62654628e-02  4.92276741e-04 -3.88585452e-01
  7.08223677e-01  7.97057789e-01 -6.93194812e-03 -2.23365171e-03  1.78604207e-02
  3.00915733e-03  2.57767303e-02 -1.28163036e-02  1.33071508e-01 -1.51513820e+00
  1.59247235e-02 -1.93463678e-02  4.85796954e-03  1.44440684e-02 -1.50028518e-01
  1.71005295e+00 -1.26112878e-02 -2.16365748e-02 -1.40279787e-02 -9.56558056e-03
  9.89125262e-02 -1.12679370e+00 -2.93163878e-03  7.93245188e-03 -1.71633824e-02
  7.83083256e-03 -8.17444339e-02  9.31239777e-01  1.41160469e-02  6.69424225e-03
 -3.29988954e-03 -5.63827920e-06 -1.09557179e-05 -9.64012356e-02 -9.23190960e-02
  3.50289989e-02  5.81480153e-05 -4.60424576e-02 -4.41078108e-02  1.67059516e-02
 -1.65650056e-04 -7.92645690e-01 -7.59108612e-01  2.88105529e-01 -1.48791241e-02
 -1.78005517e-02 -1.03495474e-02  2.00005941e-02 -7.00846662e-04  2.18208018e-03
 -2.25883897e-02  2.58191806e-01 -5.60069007e-03  1.13994968e-03  5.91531930e-04
 -1.25502638e-02  1.29700638e-01 -1.47830035e+00  7.10567373e-03  1.82035690e-02
  1.54059951e-02 -7.35186776e-03  7.60090971e-02 -8.66504759e-01 -3.92881138e-03
  1.72433480e-03 -1.42895050e-02  1.76663841e-02 -1.83106527e-01  2.08674944e+00
  3.18575424e-02  7.11692167e-03 -1.24293769e-02 -7.10382821e-06 -9.28420464e-06
 -3.10988324e-03 -3.99961718e-03  1.18270421e-03  1.36052961e-05 -2.67549726e-02
 -3.44807252e-02  1.02743285e-02 -4.35573452e-04 -9.27555846e-01 -1.19507292e+00
  3.55358224e-01  1.96029261e-02  2.07094417e-02  1.36902262e-02 -2.27777210e-02
  5.91186368e-03  1.63375922e-02  3.45502648e-01 -1.65991739e-02  6.92115862e-03
 -1.78474650e-02  2.76577310e-03 -4.48798801e-02 -9.47286172e-01  4.64823894e-02
 -2.02614368e-02 -4.01444733e-02 -2.33951581e-02 -2.49401250e-02 -5.26480389e-01
  2.56151301e-02 -1.46712448e-03 -1.15745431e-02  2.61282353e-02  5.34213387e-02
  1.12824801e+00 -5.49656377e-02 -5.34870525e-02 -1.85401306e-02  2.07491347e-02
 -2.19558629e-05 -3.92008152e-05 -1.79624445e-03  2.61906426e-03  4.10678328e-03
  1.40066820e-04 -1.56766507e-02  2.27116029e-02  3.55367858e-02  3.58983414e-04
 -5.40689125e-01  7.84988622e-01  1.22909517e+00  1.33893370e-02  4.49091709e-03
 -2.17870307e-02 -5.11802689e-03 -2.92777735e-02 -3.60540310e-02 -7.60824277e-01
  3.63943749e-02 -2.52292002e-02  3.21515311e-02  1.86235048e-03  4.46649170e-02
  9.45794556e-01 -4.51840700e-02  1.47241710e-02  3.85441409e-02  2.94441367e-02
 -3.91900975e-02 -8.27110068e-01  3.98820257e-02  1.12029238e-03 -7.82164916e-03
  4.36683875e-02  3.02570933e-02  6.41168237e-01 -3.03273071e-02 -3.05206055e-02
 -4.97106306e-03  1.56617435e-02  3.64297868e-06  7.80225511e-06  3.73797332e-03
 -2.01762728e-03  2.94300531e-03 -3.54597463e-05  3.28054788e-02 -1.78379245e-02
  2.57647498e-02 -2.69605797e-04  1.12690339e+00 -6.11692482e-01  8.86004303e-01
  2.74367915e-02 -7.58015329e-03 -1.40042654e-02  1.33700654e-02  1.95277816e-02
  5.23389043e-02  1.10935615e+00 -5.04266266e-02  3.81063139e-02 -4.49618279e-02
  7.75266756e-03  1.72655562e-02  3.65550535e-01 -1.70013597e-02  1.07468117e-02
  1.14053323e-02  1.29858863e-02 -4.63592324e-02 -9.83213075e-01  4.49225510e-02
  8.17974953e-03 -1.54187532e-02  4.97747190e-02 -2.31753634e-02 -4.91419114e-01
  2.24873350e-02  2.61088191e-02  3.73424476e-03 -5.11253998e-03  6.66051713e-02
  1.28148060e-01  1.45536062e-04  6.34964854e-05 -1.78361915e-04 -3.91844516e-01
  5.25494348e-04  1.63467092e-04 -6.39992755e-04 -2.12574960e+00 -3.24544924e-03
  1.30675748e-03  3.79998190e-03  7.51443151e-05  1.75821694e-04 -2.33657755e-05
  5.31729866e-05 -1.12870848e-04  4.92548937e-02  1.18997497e+00 -1.59111906e-01
 -1.37886961e-02  1.72096151e-02 -1.84380673e-03  4.91971421e-02  1.19145177e+00
 -1.57234963e-01 -8.00997124e-03 -1.67527550e-02 -1.18328776e-02  4.92875080e-02
  1.19038132e+00 -1.59924363e-01  1.93557498e-03 -5.91528802e-03  2.12860759e-02
  4.91310579e-02  1.19141851e+00 -1.55432577e-01  1.98243985e-02  5.47114936e-03
 -7.56379771e-03 -2.09180056e-05 -4.07814590e-05  1.48613328e-01  2.06700579e-01
  1.60649107e-02  2.21129142e-05  6.03580760e-01  8.39576710e-01  6.51718847e-02
  1.59685878e-03 -9.81335593e-01 -1.36497105e+00 -1.06091372e-01  1.98512999e-02
  3.40276501e-02  3.55802697e-02 -3.85360449e-02  1.80310620e-02 -1.66711344e-02
 -1.56123867e-01  4.73449207e-01  4.94413430e-02  1.71215959e-02  5.70448722e-03
  5.38210708e-02  5.01543924e-01 -1.52977032e+00 -6.74478714e-03 -3.62435168e-02
 -5.09460637e-02  6.95129391e-03  6.43622879e-02 -1.97979381e-01  3.09966068e-02
  3.81377943e-02  1.58391856e-02 -4.41543518e-02 -4.12484021e-01  1.25428307e+00
 -4.52487844e-02  2.06003701e-02  3.24195480e-02  9.43409604e-05  1.85797892e-04
 -9.27618434e-02  4.86339183e-02  2.32603678e-01 -1.04142583e-03 -3.76851077e-01
  1.97530152e-01  9.44752231e-01  5.62176663e-04  6.12550329e-01 -3.21169390e-01
 -1.53610398e+00 -3.97667364e-02 -1.48331223e-02  3.31417200e-02  1.51038216e-02
  3.87002111e-02 -1.88168681e-02 -1.75445924e-01  5.36062460e-01  3.28898034e-03
 -1.79377283e-02  4.96982806e-02  3.11871385e-02  2.91307714e-01 -8.85405899e-01
 -3.99960268e-02 -3.53883095e-02  1.54706492e-02 -4.94734728e-02 -4.61560866e-01
  1.40757346e+00 -2.60816723e-02  3.49746997e-02 -4.28694945e-02  3.73412641e-02
  3.48825606e-01 -1.06035103e+00  4.49673868e-02  2.76563345e-02  2.22129686e-02
 -2.35318923e-05 -4.66187621e-05  1.85442130e-01 -1.41354595e-01  1.03528359e-01
  3.97025810e-04  7.53224119e-01 -5.74238304e-01  4.20460755e-01 -1.27183360e-03
 -1.22470357e+00  9.33583963e-01 -6.83773282e-01 -4.38733472e-02  1.12714129e-02
  1.35163012e-02 -2.08763996e-02 -4.41681097e-02  5.68887606e-02  5.31985800e-01
 -1.61877376e+00 -2.92511369e-02  5.55717221e-02  1.24532773e-02  3.34496815e-03
  3.14660809e-02 -9.52880556e-02  3.51213011e-02 -3.33739286e-02  1.75060578e-02
 -3.70546714e-02 -3.46016695e-01  1.05405778e+00  3.18711240e-02 -9.61842548e-03
 -4.65160434e-02 -2.32381024e-02 -2.16894189e-01  6.60852970e-01 -2.30138639e-03
 -3.96563545e-02  3.63006100e-02  1.03017593e-01  2.18502176e-01  2.75247470e-05
 -4.91201847e-05 -2.95867798e-05 -1.92954930e+00  4.68873385e-04 -3.31346331e-04
 -5.38625420e-04  5.67825991e+00  1.12347025e-03 -7.28602376e-04 -1.29863200e-03
  3.15200117e-06 -7.47827568e-05 -1.03806248e-04 -1.17770319e-04 -1.55196204e-04
  1.43003420e-02 -7.29353578e-01 -7.36509401e-01 -9.39497857e-02  1.18868191e-01
 -1.18189929e-02  1.42887166e-02 -7.30984440e-01 -7.35349397e-01 -5.46461021e-02
 -1.16536284e-01 -8.08301996e-02  1.42981593e-02 -7.29623337e-01 -7.35977631e-01
  1.17603978e-02 -4.09943927e-02  1.45825632e-01  1.42876148e-02 -7.31197170e-01
 -7.35669145e-01  1.37045003e-01  3.85217353e-02 -5.34180275e-02 -5.73987778e-05
 -1.49049491e-04 -2.30840777e-06  3.14370769e-06  7.82198406e-06  1.79762330e-03
 -9.22152469e-05  1.33177575e-04  3.19878182e-04 -6.75957495e-03 -1.10924663e-05
  5.03939313e-05  4.35351837e-05  5.65420176e-02 -3.72209063e-01  3.79762970e-02
 -2.69990891e-01 -1.19316538e-02  1.29027053e-04  1.28671802e-03  6.50270381e-04
  1.68241766e-01  1.54322224e-01  2.07091731e-01  3.89830777e-05  1.66667494e-03
  5.12475668e-04  2.57035499e-01 -1.60603978e-01  5.70874892e-02  1.52108497e-04
  1.19143795e-03  7.08187504e-04 -3.06941022e-01 -2.31216710e-02  1.89432564e-02
  6.18364297e-05  1.57053191e-03  5.35335553e-04 -1.18239447e-01  2.92059835e-02
 -2.83476442e-01  1.85829859e-05  4.82574055e-05 -5.24597262e-06  6.41402528e-06
  8.18858225e-06 -5.81956202e-04 -2.19585214e-04  2.55078907e-04  3.41627232e-04
  2.18848916e-03 -5.16009452e-05 -1.83965264e-05  7.99487699e-05  1.75157977e-01
 -8.57242001e-02  3.09569512e-01  2.07204613e-01 -1.99137335e-01  3.24945796e-05
 -7.26758099e-04 -6.53108340e-05 -1.74186019e-01 -1.15138967e-01  2.26518554e-01
 -9.19715852e-05 -2.08698899e-04 -3.19879543e-04  1.29875932e-01  1.16218068e-01
 -2.54736865e-01  2.97675531e-05 -7.17958231e-04 -1.09165027e-04 -1.64683819e-02
  2.95821238e-01  8.44711509e-02 -9.40857434e-05 -1.97246043e-04 -2.84543440e-04
  6.10606408e-02 -2.97103408e-01 -5.66909432e-02  5.60460637e-06  1.82771593e-05
  1.63173279e-02 -4.14798946e-02  3.52313740e-02 -1.63594116e-04  4.46686636e-02
 -1.13155973e-01  9.60065033e-02 -3.71718166e-04  2.72225110e-01 -6.87725501e-01
  5.84731986e-01  6.84637938e-01  9.52891945e-02 -1.01322653e-01 -1.92210098e-02
  3.83544932e-01 -2.54540314e-01  1.14191352e+00 -1.36333479e-01  3.82219298e-02
  7.97608543e-02 -3.50648307e-01  4.01273828e-02 -1.79339050e-01  2.21948001e-02
 -2.39566162e-02  1.09553463e-01 -1.21597577e-01  2.60080130e-01 -1.16629688e+00
  1.39573019e-01 -2.04022530e-01  2.88189218e-01  2.69185739e-02 -4.57639527e-02
  2.04396088e-01 -2.53755887e-02 -4.74517263e-02  1.24796128e-01 -6.65097910e-02
 -3.19125786e-06 -1.88800398e-05 -2.48602666e-02  2.88689664e-02  4.46002188e-02
  4.13744858e-04 -6.81048858e-02  7.88502837e-02  1.21594923e-01 -8.59233003e-04
 -4.12287831e-01  4.78594094e-01  7.38968902e-01  2.60459700e-01  1.24066133e-01
 -4.19108659e-01 -1.48019913e-01 -6.30685380e-01  1.94459018e-01 -8.70600194e-01
  1.05089748e-01  1.19674437e-01  8.15807844e-03 -2.20315946e-01 -2.07531117e-01
  9.30017840e-01 -1.11983707e-01  1.32256543e-01  1.49712890e-02 -2.12669827e-01
  1.86676870e-01 -8.35304915e-01  1.01086760e-01  3.61785718e-02 -2.23409074e-01
 -1.16358209e-01 -1.72932272e-01  7.75282579e-01 -9.32776413e-02  7.29004622e-02
 -2.19095066e-01 -9.86277497e-02 -3.43532489e-06 -9.23900655e-06  5.03854709e-02
  2.72286878e-02  1.09123276e-02  2.58373664e-05  1.37765616e-01  7.41946635e-02
  2.97137260e-02  4.76089420e-04  8.35709842e-01  4.50041409e-01  1.81740206e-01
 -4.53705408e-03 -4.36553686e-01 -4.33557262e-01  5.36771214e-01  6.86075807e-02
 -6.07515352e-02  2.72646427e-01 -3.21364907e-02 -2.95752767e-01 -2.14853143e-01
 -4.38992207e-03 -2.53006604e-01  1.13209733e+00 -1.37128804e-01 -8.66676564e-02
 -1.06725551e-02 -4.97724933e-02  3.99075921e-02 -1.79525247e-01  2.07549076e-02
 -2.39281057e-01 -2.06078830e-01 -4.88845708e-02  2.73766883e-01 -1.22558084e+00
  1.48254785e-01 -1.10577588e-01  3.60410717e-02 -5.58184263e-02  2.20024471e-06
  7.14692476e-06 -8.97246927e-04 -1.66056781e-02  8.25726137e-03 -6.24760401e-05
 -2.38237736e-03 -4.61378741e-02  2.28122901e-02 -1.53910810e-04 -1.43526026e-02
 -2.75868044e-01  1.37284378e-01  2.02416999e-01  8.15962681e-02  3.38433037e-02
 -7.07078822e-02  1.21921414e-01 -7.42382231e-02  3.31725565e-01 -4.01594751e-02
 -3.47552643e-02  5.03429637e-02  5.35646155e-01  4.92113238e-02 -2.19470256e-01
  2.70060656e-02 -7.14067386e-02  3.33906178e-01 -4.08120280e-01  6.99139699e-02
 -3.12344414e-01  3.78200285e-02  2.28258895e-01 -4.67683436e-01 -1.68470123e-01
 -4.49211763e-02  2.00353804e-01 -2.46371184e-02 -1.09096254e-01  3.25073052e-01
 -7.92207885e-02  4.98043296e-08 -1.63352586e-06 -8.25679919e-03  4.31688989e-04
  9.50702699e-03  6.60709034e-05 -2.29030966e-02  1.25059274e-03  2.65399068e-02
 -2.28092038e-04 -1.37105387e-01  7.29910570e-03  1.58009232e-01  9.13597121e-02
  6.90272580e-02 -4.57716778e-02 -7.80659339e-02 -1.01888761e-01  2.68152843e-02
 -1.19575811e-01  1.45802077e-02 -4.12049103e-01 -3.37582186e-01 -2.22295494e-02
 -1.37423275e-02  6.14513852e-02 -7.44267942e-03  3.18723139e-01 -2.82860996e-01
  1.84347720e-01  4.77081512e-02 -2.12642600e-01  2.60864728e-02  4.32421678e-01
  1.98485698e-01  7.47390493e-03 -6.06518176e-02  2.70725833e-01 -3.30241753e-02
 -2.18931060e-01  4.15657249e-01 -3.08018540e-01 -6.73025424e-08 -3.30639433e-07
  8.72187297e-03  1.05311624e-03  8.03743949e-03  6.13755511e-06  2.42844459e-02
  2.83325603e-03  2.24887326e-02 -9.50840682e-06  1.45249862e-01  1.72284815e-02
  1.33935977e-01  9.17855717e-02 -5.32043263e-02 -1.02983070e-01  7.69947524e-02
  2.36249079e-02 -2.96424301e-02  1.32446350e-01 -1.59170918e-02  1.64977725e-01
  1.55467444e-01  1.50860664e-01 -4.69326165e-02  2.09272414e-01 -2.55616881e-02
 -5.38711548e-01  3.37262351e-02  2.93955412e-01  4.62953224e-02 -2.06594459e-01
  2.50572076e-02  3.77166511e-01  1.28118286e-01 -7.26905729e-03  3.02890303e-02
 -1.35135502e-01  1.64333435e-02 -1.30508136e-01 -3.32641498e-01 -5.54693763e-01
  1.37953575e-05  3.40392498e-05  2.39411390e-01  9.26203771e-02  4.74452868e-02
 -3.03047716e-04 -4.62727449e-01 -1.77382176e-01 -9.22032376e-02  7.29164218e-04
  6.55525347e-01  2.54024222e-01  1.29720718e-01 -3.76297844e-02  4.01716585e-01
  3.76202518e-01 -5.02257388e-01 -1.44243977e-01  1.30416570e-01 -2.92866975e-01
  2.39348919e-01 -5.35712884e-01 -2.98345778e-01 -1.09992223e-01  2.97967528e-01
 -6.67610929e-01  5.48722529e-01 -5.16084811e-01 -7.08528278e-02 -6.99618195e-03
 -6.45697769e-02  1.44815733e-01 -1.18460618e-01 -5.87152228e-01 -2.40704460e-01
 -7.47487204e-02 -3.63377959e-01  8.14462406e-01 -6.69621877e-01 -3.63955685e-01
 -1.65283217e-01 -2.04883227e-01 -5.17614751e-05 -1.01467379e-04 -8.76052960e-02
  1.14780160e-01  2.17784104e-01  7.40976579e-04  1.69881465e-01 -2.22196654e-01
 -4.21424349e-01 -3.27715757e-03 -2.39633635e-01  3.14004888e-01  5.95808616e-01
 -3.09089822e-01 -9.75534160e-02  4.19631612e-01  1.06077660e-01  5.34486942e-01
 -2.08035211e-01  4.67011679e-01 -3.81830753e-01  1.27872957e-01 -1.71858710e-01
 -5.48092090e-01  2.81065798e-01 -6.29393774e-01  5.17669418e-01  2.85338517e-01
 -1.34722857e-01 -4.33480199e-01 -2.80597660e-01  6.29312259e-01 -5.15168716e-01
  2.31064274e-01 -3.34643466e-01 -3.52193884e-01  2.05798548e-01 -4.61039292e-01
  3.79354898e-01  8.82945680e-02 -3.18447861e-01 -4.87046495e-01  8.07103853e-06
  3.13376089e-06  5.66368606e-02 -2.15767715e-01  1.36476875e-01  7.62938432e-05
 -1.11601400e-01  4.18831521e-01 -2.65404292e-01  7.70366854e-04  1.54366754e-01
 -5.89829669e-01  3.72909889e-01 -6.25905286e-01 -1.29346003e-01  1.12381352e-02
  6.67674261e-02 -4.07697310e-01  3.51252648e-01 -7.88226160e-01  6.44666336e-01
  8.59538837e-03  3.44817657e-01 -3.17175160e-01 -1.17739534e-01  2.63653375e-01
 -2.16976118e-01 -1.68233607e-01  4.69026810e-01 -3.79014542e-01 -3.16880479e-01
  7.10486630e-01 -5.81926928e-01 -1.21979768e-01  4.73179776e-01 -1.28741040e-01
  8.37068574e-02 -1.87501021e-01  1.54241415e-01 -1.91334501e-01  5.16373062e-01
 -3.15508614e-01  6.25448535e-02  1.19705884e-01 -5.70042363e-04  6.88990665e-04
  6.36913697e-04 -6.15477145e-01  1.18078432e-03 -6.52099376e-05 -1.39909603e-03
  7.41959567e-01  5.21662088e-04  1.52880582e-04 -6.32110879e-04 -5.79621645e-04
  3.79493390e-03  9.77179622e-04  4.58363726e-03 -1.77735570e-04  6.94922642e-01
 -8.24657040e-01  1.79704072e-01  1.71060592e-01 -2.11794512e-01  2.25801295e-02
  6.96605220e-01 -8.27342085e-01  1.81171952e-01  1.00527761e-01  2.07664840e-01
  1.46921786e-01  6.95131788e-01 -8.24033128e-01  1.80077752e-01 -2.42447851e-02
  7.26418679e-02 -2.63228051e-01  6.96930766e-01 -8.29203823e-01  1.81188458e-01
 -2.46770012e-01 -6.78530359e-02  9.30013930e-02 -1.06004312e-04 -2.09563535e-04
 -2.30238254e-04  4.85526575e-05  3.57836124e-04  1.07565375e-03  4.54405008e-03
 -3.05416064e-03 -7.08177682e-03 -3.58936126e-04  1.33597810e-03 -1.07964895e-03
 -2.08606072e-03  4.68683975e-01 -2.41094753e-01  8.28969805e-01  5.45706379e-01
 -5.30869742e-01 -4.16116450e-03  8.78275097e-03 -2.09168610e-03  3.20378779e-01
  2.07658461e-01 -4.22463867e-01  1.93441435e-03 -6.59064369e-03  1.41705689e-03
 -2.48231913e-01 -2.14470567e-01  4.69035866e-01 -4.80929464e-03  1.04378646e-02
 -2.59406194e-03  3.59927364e-02 -5.45368772e-01 -1.59840250e-01  2.81702897e-03
 -8.84881402e-03  2.06040724e-03 -1.06199321e-01  5.51339483e-01  1.10252950e-01
 -3.37276747e-04 -6.66859651e-04  5.92150571e-05 -1.90209832e-04 -2.36250632e-04
  3.43543693e-03 -1.47134591e-03  3.20916822e-03  5.55935250e-03 -1.20077361e-03
 -4.64669567e-04  9.01987877e-04  1.71730379e-03 -1.45158025e-01  9.92535257e-01
 -9.28512311e-02  7.28222467e-01  2.46453012e-02 -1.36681756e-03 -2.01455802e-03
  2.58058975e-04  3.12918745e-01  2.91032907e-01  3.77323188e-01 -6.62114583e-03
  1.12681845e-02 -2.92289099e-03  4.74106487e-01 -2.98220676e-01  1.11617165e-01
 -4.52630384e-04 -4.32331947e-03  7.44883613e-04 -5.67142788e-01 -5.11584975e-02
  3.75306689e-02 -5.00376512e-03  7.17373887e-03 -1.90774692e-03 -2.20426375e-01
  5.98159234e-02 -5.24299790e-01 -1.09579304e-05 -1.96406416e-05  8.35706129e-02
 -3.72715736e-03  4.96331369e-02 -1.89623477e-05  1.43397034e+00 -5.06413981e-02
  8.39819818e-01  5.52080889e-04  5.19242781e-01 -2.02919028e-02  3.05472303e-01
  2.40693206e-01 -1.83582740e-01 -2.52649609e-01  2.58622529e-01  1.67889270e-01
 -4.65016758e-01  1.55129551e+00 -2.34738349e-01  3.91922663e-01 -8.17103842e-01
 -7.17504506e-02 -4.35724227e-01  1.44825475e+00 -2.21394399e-01  9.23766369e-02
  7.65158704e-01  3.70338892e-01  4.36746085e-01 -1.45705057e+00  2.20245611e-01
 -1.84096266e-01 -2.57234450e-01  7.99706558e-01  4.63764330e-01 -1.54288598e+00
  2.35621138e-01  6.84857555e-01  2.75451403e-01 -5.21385201e-01  5.94608871e-05
  1.04378858e-04 -4.32424912e-02  4.39054186e-02  7.67561520e-02  1.48498659e-04
 -7.33043883e-01  7.39277773e-01  1.29436313e+00 -3.02521355e-03 -2.65675996e-01
  2.68413905e-01  4.69541467e-01  1.80152180e-01  8.20715687e-02 -2.44230478e-01
 -1.01704859e-01 -3.78254945e-01  4.36798920e-01 -1.45509990e+00  2.21362462e-01
 -4.79202817e-01  6.39359971e-01 -3.19470669e-01 -4.64565779e-01  1.55010735e+00
 -2.34907803e-01  5.12145431e-01  6.73723608e-01  3.27765779e-01  4.63532931e-01
 -1.54299024e+00  2.34987228e-01  2.20059159e-01 -4.21883853e-01  7.70846005e-01
 -4.34530185e-01  1.45008554e+00 -2.19989121e-01 -7.56940185e-01 -3.82696309e-01
  1.11636072e-01  2.82000758e-05  9.03450312e-05 -2.36259912e-02 -8.84330000e-02
  3.69754866e-02 -9.82904041e-04 -4.12117477e-01 -1.48644866e+00  6.15494613e-01
  1.66959058e-04 -1.47446445e-01 -5.39453709e-01  2.24223918e-01  3.51017001e-01
  2.02594422e-01  1.13662486e-01 -1.97643588e-01  1.90730213e-01 -4.46374982e-01
  1.49201173e+00 -2.25257395e-01  7.06196745e-01 -5.22874212e-01 -3.37276136e-02
  4.51418521e-01 -1.50201801e+00  2.29195218e-01 -2.94045597e-01 -5.10721047e-01
 -6.57538935e-01  4.49253433e-01 -1.49889270e+00  2.26755113e-01  1.55305588e-01
 -2.60085246e-03  8.68159217e-01 -4.52873641e-01  1.50817157e+00 -2.30370324e-01
 -8.51941814e-01  1.32680770e-02  2.46311461e-01 -5.24295286e-06 -1.80517565e-06
  6.25592264e-01  2.99347934e-01  4.77390578e-01 -5.60802262e-06 -1.94984886e-01
 -9.41481202e-02 -1.49818666e-01 -4.97082129e-04  3.96151708e-01  1.89705212e-01
  3.01579608e-01  3.16851755e-01 -3.84853989e-01 -6.31726276e-01  5.09513981e-01
 -6.72721691e-03  1.64726148e-01 -2.04240994e-02  1.41483047e-01  2.21023046e-01
 -1.52984624e-02  1.25402216e-01  6.14277149e-01 -7.93529461e-02  5.27479274e-01