
    -----------------------------------------------------------------------
          Psi4: An Open-Source Ab Initio Electronic Structure Package
                               Psi4 1.3.2 release

                         Git: Rev {HEAD} ecbda83 


    R. M. Parrish, L. A. Burns, D. G. A. Smith, A. C. Simmonett,
    A. E. DePrince III, E. G. Hohenstein, U. Bozkaya, A. Yu. Sokolov,
    R. Di Remigio, R. M. Richard, J. F. Gonthier, A. M. James,
    H. R. McAlexander, A. Kumar, M. Saitow, X. Wang, B. P. Pritchard,
    P. Verma, H. F. Schaefer III, K. Patkowski, R. A. King, E. F. Valeev,
    F. A. Evangelista, J. M. Turney, T. D. Crawford, and C. D. Sherrill,
    J. Chem. Theory Comput. 13(7) pp 3185--3197 (2017).
    (doi: 10.1021/acs.jctc.7b00174)


                         Additional Contributions by
    P. Kraus, H. Kruse, M. H. Lechner, M. C. Schieber, R. A. Shaw,
    A. Alenaizan, R. Galvelis, Z. L. Glick, S. Lehtola, and J. P. Misiewicz

    -----------------------------------------------------------------------


    Psi4 started on: Tuesday, 08 December 2020 02:47PM

    Process ID: 51969
    Host:       g2-node38.bme.utexas.edu
    PSIDATADIR: /home/bdw2292/miniconda3/envs/p4env/share/psi4
    Memory:     500.0 MiB
    Threads:    1
    
  ==> Input File <==

--------------------------------------------------------------------------
molecule { 
0 1
C           -0.000083863354     0.000081788773     0.000094927784
H           -0.676517863354     0.853272788773    -0.085717072216
H           -0.394037863354    -0.836372211227    -0.581791072216
H            0.086307136646    -0.293963211227     1.048556927784
H            0.985247136646     0.276088788773    -0.382179072216
}
memory 700MB
set_num_threads(1)
psi4_io.set_default_path("/scratch/bdw2292/Psi4-methane")
set maxiter 300
set freeze_core True
set PROPERTIES_ORIGIN ["COM"]
E, wfn = properties('mp2/aug-cc-pVTZ',properties=['dipole'],return_wfn=True)
oeprop(wfn,"GRID_ESP","WIBERG_LOWDIN_INDICES","MULLIKEN_CHARGES")
clean()
--------------------------------------------------------------------------

  Memory set to 667.572 MiB by Python driver.
  Threads set to 1 by Python driver.
    SCF Algorithm Type (re)set to DF.

*** tstart() called on g2-node38.bme.utexas.edu
*** at Tue Dec  8 14:47:13 2020

   => Loading Basis Set <=

    Name: AUG-CC-PVTZ
    Role: ORBITAL
    Keyword: BASIS
    atoms 1   entry C          line   235 file /home/bdw2292/miniconda3/envs/p4env/share/psi4/basis/aug-cc-pvtz.gbs 
    atoms 2-5 entry H          line    36 file /home/bdw2292/miniconda3/envs/p4env/share/psi4/basis/aug-cc-pvtz.gbs 


         ---------------------------------------------------------
                                   SCF
               by Justin Turney, Rob Parrish, Andy Simmonett
                          and Daniel G. A. Smith
                              RHF Reference
                        1 Threads,    667 MiB Core
         ---------------------------------------------------------

  ==> Geometry <==

    Molecular point group: c1
    Full point group: C1

    Geometry (in Angstrom), charge = 0, multiplicity = 1:

       Center              X                  Y                   Z               Mass       
    ------------   -----------------  -----------------  -----------------  -----------------
         C           -0.000083863354     0.000081788773     0.000094927784    12.000000000000
         H           -0.676517863354     0.853272788773    -0.085717072216     1.007825032230
         H           -0.394037863354    -0.836372211227    -0.581791072216     1.007825032230
         H            0.086307136646    -0.293963211227     1.048556927784     1.007825032230
         H            0.985247136646     0.276088788773    -0.382179072216     1.007825032230

  Running in c1 symmetry.

  Rotational constants: A =      5.26012  B =      5.25636  C =      5.25455 [cm^-1]
  Rotational constants: A = 157694.57190  B = 157581.62380  C = 157527.48099 [MHz]
  Nuclear repulsion =   13.406791146670454

  Charge       = 0
  Multiplicity = 1
  Electrons    = 10
  Nalpha       = 5
  Nbeta        = 5

  ==> Algorithm <==

  SCF Algorithm Type is DF.
  DIIS enabled.
  MOM disabled.
  Fractional occupation disabled.
  Guess Type is SAD.
  Energy threshold   = 1.00e-10
  Density threshold  = 1.00e-10
  Integral threshold = 0.00e+00

  ==> Primary Basis <==

  Basis Set: AUG-CC-PVTZ
    Blend: AUG-CC-PVTZ
    Number of shells: 50
    Number of basis function: 138
    Number of Cartesian functions: 155
    Spherical Harmonics?: true
    Max angular momentum: 3

   => Loading Basis Set <=

    Name: (AUG-CC-PVTZ AUX)
    Role: JKFIT
    Keyword: DF_BASIS_SCF
    atoms 1   entry C          line   162 file /home/bdw2292/miniconda3/envs/p4env/share/psi4/basis/aug-cc-pvtz-jkfit.gbs 
    atoms 2-5 entry H          line    70 file /home/bdw2292/miniconda3/envs/p4env/share/psi4/basis/aug-cc-pvtz-jkfit.gbs 

  ==> Pre-Iterations <==

   -------------------------------------------------------
    Irrep   Nso     Nmo     Nalpha   Nbeta   Ndocc  Nsocc
   -------------------------------------------------------
     A        138     138       0       0       0       0
   -------------------------------------------------------
    Total     138     138       5       5       5       0
   -------------------------------------------------------

  ==> Integral Setup <==

  DFHelper Memory: AOs need 0.045 GiB; user supplied 0.489 GiB. Using in-core AOs.

  ==> MemDFJK: Density-Fitted J/K Matrices <==

    J tasked:                   Yes
    K tasked:                   Yes
    wK tasked:                   No
    OpenMP threads:               1
    Memory [MiB]:               500
    Algorithm:                 Core
    Schwarz Cutoff:           1E-12
    Mask sparsity (%):       0.0000
    Fitting Condition:        1E-10

   => Auxiliary Basis Set <=

  Basis Set: (AUG-CC-PVTZ AUX)
    Blend: AUG-CC-PVTZ-JKFIT
    Number of shells: 86
    Number of basis function: 288
    Number of Cartesian functions: 351
    Spherical Harmonics?: true
    Max angular momentum: 4

  Minimum eigenvalue in the overlap matrix is 8.3917177071E-05.
  Using Symmetric Orthogonalization.

  SCF Guess: Superposition of Atomic Densities via on-the-fly atomic UHF.

  ==> Iterations <==

                           Total Energy        Delta E     RMS |[F,P]|

   @DF-RHF iter SAD:   -39.62333808372833   -3.96233e+01   0.00000e+00 
   @DF-RHF iter   1:   -40.13766965974525   -5.14332e-01   2.64932e-03 DIIS
   @DF-RHF iter   2:   -40.20115161653196   -6.34820e-02   1.11145e-03 DIIS
   @DF-RHF iter   3:   -40.21266433120331   -1.15127e-02   1.71531e-04 DIIS
   @DF-RHF iter   4:   -40.21341480121461   -7.50470e-04   2.09767e-05 DIIS
   @DF-RHF iter   5:   -40.21342527639470   -1.04752e-05   1.88309e-06 DIIS
   @DF-RHF iter   6:   -40.21342536984994   -9.34552e-08   1.64999e-07 DIIS
   @DF-RHF iter   7:   -40.21342537043751   -5.87576e-10   1.48053e-08 DIIS
   @DF-RHF iter   8:   -40.21342537044133   -3.81561e-12   8.87574e-10 DIIS
   @DF-RHF iter   9:   -40.21342537044148   -1.56319e-13   7.83138e-11 DIIS
  Energy and wave function converged.


  ==> Post-Iterations <==

    Orbital Energies [Eh]
    ---------------------

    Doubly Occupied:                                                      

       1A    -11.208481     2A     -0.941391     3A     -0.544128  
       4A     -0.543859     5A     -0.543732  

    Virtual:                                                              

       6A      0.030820     7A      0.050539     8A      0.050558  
       9A      0.050567    10A      0.123888    11A      0.123908  
      12A      0.123946    13A      0.141874    14A      0.222780  
      15A      0.222863    16A      0.227860    17A      0.227870  
      18A      0.227893    19A      0.329826    20A      0.329852  
      21A      0.329915    22A      0.336578    23A      0.353727  
      24A      0.353755    25A      0.353775    26A      0.391998  
      27A      0.392107    28A      0.392159    29A      0.401147  
      30A      0.462146    31A      0.462162    32A      0.462196  
      33A      0.500026    34A      0.500042    35A      0.676823  
      36A      0.676894    37A      0.677150    38A      0.794120  
      39A      0.831034    40A      0.831128    41A      0.831179  
      42A      0.892214    43A      0.892315    44A      0.892387  
      45A      0.968214    46A      0.968223    47A      0.968262  
      48A      0.970983    49A      0.971391    50A      0.979613  
      51A      1.069672    52A      1.069874    53A      1.069999  
      54A      1.085167    55A      1.085248    56A      1.085534  
      57A      1.117958    58A      1.117994    59A      1.214282  
      60A      1.214406    61A      1.214490    62A      1.262540  
      63A      1.262877    64A      1.316109    65A      1.589221  
      66A      1.589271    67A      1.589416    68A      1.617208  
      69A      1.617475    70A      1.617544    71A      1.630630  
      72A      1.728751    73A      1.728821    74A      1.729030  
      75A      1.861774    76A      1.861888    77A      1.862109  
      78A      1.926745    79A      1.927061    80A      1.927247  
      81A      2.114913    82A      2.115045    83A      2.115181  
      84A      2.237806    85A      2.237977    86A      2.581427  
      87A      2.911497    88A      3.249864    89A      3.249923  
      90A      3.250113    91A      3.492348    92A      3.492803  
      93A      3.573013    94A      3.573203    95A      3.573425  
      96A      3.574238    97A      3.574304    98A      3.574401  
      99A      3.905799   100A      3.905869   101A      3.906094  
     102A      4.049854   103A      4.050147   104A      4.050308  
     105A      4.064332   106A      4.064940   107A      4.065317  
     108A      4.116666   109A      4.116698   110A      4.247113  
     111A      4.564104   112A      4.564869   113A      4.565438  
     114A      4.754805   115A      4.755138   116A      4.793211  
     117A      4.793443   118A      4.794041   119A      4.851917  
     120A      4.852427   121A      4.852557   122A      5.178392  
     123A      5.178600   124A      5.178968   125A      5.292500  
     126A      5.627359   127A      5.629057   128A      5.631046  
     129A      5.797461   130A      5.799131   131A      5.812517  
     132A      6.208973   133A      6.209445   134A      6.210581  
     135A      6.605599   136A      6.606408   137A      6.606833  
     138A     17.608012  

    Final Occupation by Irrep:
              A 
    DOCC [     5 ]

  @DF-RHF Final Energy:   -40.21342537044148

   => Energetics <=

    Nuclear Repulsion Energy =             13.4067911466704537
    One-Electron Energy =                 -79.6772501040981496
    Two-Electron Energy =                  26.0570335869862078
    Total Energy =                        -40.2134253704414846

Computation Completed

*** tstop() called on g2-node38.bme.utexas.edu at Tue Dec  8 14:47:16 2020
Module time:
	user time   =       2.38 seconds =       0.04 minutes
	system time =       0.11 seconds =       0.00 minutes
	total time  =          3 seconds =       0.05 minutes
Total time:
	user time   =       2.38 seconds =       0.04 minutes
	system time =       0.11 seconds =       0.00 minutes
	total time  =          3 seconds =       0.05 minutes
   => Loading Basis Set <=

    Name: (AUG-CC-PVTZ AUX)
    Role: RIFIT
    Keyword: DF_BASIS_MP2
    atoms 1   entry C          line   148 file /home/bdw2292/miniconda3/envs/p4env/share/psi4/basis/aug-cc-pvtz-ri.gbs 
    atoms 2-5 entry H          line    30 file /home/bdw2292/miniconda3/envs/p4env/share/psi4/basis/aug-cc-pvtz-ri.gbs 


*** tstart() called on g2-node38.bme.utexas.edu
*** at Tue Dec  8 14:47:16 2020


  //>>>>>>>>>>>>>>>>>>>>>>>>>>>>>>>>>>>//
  //               DFMP2               //
  //<<<<<<<<<<<<<<<<<<<<<<<<<<<<<<<<<<<//

	 --------------------------------------------------------
	                          DF-MP2                         
	      2nd-Order Density-Fitted Moller-Plesset Theory     
	              RMP2 Wavefunction,   1 Threads             
	                                                         
	        Rob Parrish, Justin Turney, Andy Simmonett,      
	           Ed Hohenstein, and C. David Sherrill          
	 --------------------------------------------------------

   => Auxiliary Basis Set <=

  Basis Set: (AUG-CC-PVTZ AUX)
    Blend: AUG-CC-PVTZ-RI
    Number of shells: 84
    Number of basis function: 290
    Number of Cartesian functions: 356
    Spherical Harmonics?: true
    Max angular momentum: 4

	 --------------------------------------------------------
	                 NBF =   138, NAUX =   290
	 --------------------------------------------------------
	   CLASS    FOCC     OCC    AOCC    AVIR     VIR    FVIR
	   PAIRS       1       5       4     133     133       0
	 --------------------------------------------------------

  DFHelper Memory: AOs need 0.045 GiB; user supplied 0.489 GiB. Using in-core AOs.


         ------------------------------------------------------------
                                     CPHF                           
                                  Rob Parrish                       
         ------------------------------------------------------------

  ==> Geometry <==

    Molecular point group: c1
    Full point group: C1

    Geometry (in Angstrom), charge = 0, multiplicity = 1:

       Center              X                  Y                   Z               Mass       
    ------------   -----------------  -----------------  -----------------  -----------------
         C           -0.000083863354     0.000081788773     0.000094927784    12.000000000000
         H           -0.676517863354     0.853272788773    -0.085717072216     1.007825032230
         H           -0.394037863354    -0.836372211227    -0.581791072216     1.007825032230
         H            0.086307136646    -0.293963211227     1.048556927784     1.007825032230
         H            0.985247136646     0.276088788773    -0.382179072216     1.007825032230

  Nuclear repulsion =   13.406791146670454
  Reference energy  =  -40.213425370441485

  ==> Basis Set <==

  Basis Set: AUG-CC-PVTZ
    Blend: AUG-CC-PVTZ
    Number of shells: 50
    Number of basis function: 138
    Number of Cartesian functions: 155
    Spherical Harmonics?: true
    Max angular momentum: 3

  ==> CGRSolver (by Rob Parrish) <==

   Number of roots    =         1
   Preconditioning    =    JACOBI
   Convergence cutoff =     1E-06
   Maximum iterations =       100

  ==> CPHFRHamiltonian (by Rob Parrish) <== 

  ==> MemDFJK: Density-Fitted J/K Matrices <==

    J tasked:                   Yes
    K tasked:                   Yes
    wK tasked:                   No
    OpenMP threads:               1
    Memory [MiB]:               500
    Algorithm:                 Core
    Schwarz Cutoff:           1E-12
    Mask sparsity (%):       0.0000
    Fitting Condition:        1E-10

   => Auxiliary Basis Set <=

  Basis Set: (AUG-CC-PVTZ AUX)
    Blend: AUG-CC-PVTZ-JKFIT
    Number of shells: 86
    Number of basis function: 288
    Number of Cartesian functions: 351
    Spherical Harmonics?: true
    Max angular momentum: 4

  ==> CPHF Iterations <==

  => Iterations <=

             Iter  Converged  Remaining    Residual
  CGR           1          0          1   8.189E-02
  CGR           2          0          1   1.114E-02
  CGR           3          0          1   1.087E-03
  CGR           4          0          1   7.713E-05
  CGR           5          0          1   7.254E-06
  CGR           6          1          0   7.520E-07

    CGRSolver converged.

	-----------------------------------------------------------
	 ==================> DF-MP2 Energies <==================== 
	-----------------------------------------------------------
	 Reference Energy          =     -40.2134253704414846 [Eh]
	 Singles Energy            =      -0.0000000000000000 [Eh]
	 Same-Spin Energy          =      -0.0366151130481007 [Eh]
	 Opposite-Spin Energy      =      -0.1642864279307728 [Eh]
	 Correlation Energy        =      -0.2009015409788735 [Eh]
	 Total Energy              =     -40.4143269114203605 [Eh]
	-----------------------------------------------------------
	 ================> DF-SCS-MP2 Energies <================== 
	-----------------------------------------------------------
	 SCS Same-Spin Scale       =       0.3333333333333333 [-]
	 SCS Opposite-Spin Scale   =       1.2000000000000000 [-]
	 SCS Same-Spin Energy      =      -0.0122050376827002 [Eh]
	 SCS Opposite-Spin Energy  =      -0.1971437135169274 [Eh]
	 SCS Correlation Energy    =      -0.2093487511996276 [Eh]
	 SCS Total Energy          =     -40.4227741216411118 [Eh]
	-----------------------------------------------------------



Properties will be evaluated at   0.000000,   0.000000,  -0.000000 [a0]

Properties computed using the MP2 density matrix

  Nuclear Dipole Moment: [e a0]
     X:     0.0009      Y:    -0.0009      Z:    -0.0011

  Electronic Dipole Moment: [e a0]
     X:    -0.0008      Y:     0.0008      Z:     0.0009

  Dipole Moment: [e a0]
     X:     0.0001      Y:    -0.0001      Z:    -0.0002     Total:     0.0002

  Dipole Moment: [D]
     X:     0.0003      Y:    -0.0002      Z:    -0.0004     Total:     0.0006


*** tstop() called on g2-node38.bme.utexas.edu at Tue Dec  8 14:47:20 2020
Module time:
	user time   =       3.51 seconds =       0.06 minutes
	system time =       0.13 seconds =       0.00 minutes
	total time  =          4 seconds =       0.07 minutes
Total time:
	user time   =       5.95 seconds =       0.10 minutes
	system time =       0.24 seconds =       0.00 minutes
	total time  =          7 seconds =       0.12 minutes


Properties will be evaluated at   0.000000,   0.000000,  -0.000000 [a0]
OEProp: No title given, name of density matrix used for the following properties is 'DF-MP2 relaxed density'
  Mulliken Charges: (a.u.)
   Center  Symbol    Alpha    Beta     Spin     Total
       1     C     3.62203  3.62203  0.00000 -1.24405
       2     H     0.34438  0.34438  0.00000  0.31124
       3     H     0.34458  0.34458  0.00000  0.31084
       4     H     0.34444  0.34444  0.00000  0.31112
       5     H     0.34457  0.34457  0.00000  0.31085

   Total alpha =  5.00000, Total beta =  5.00000, Total charge = -0.00000



  Wiberg Bond Indices using Orthogonal Lowdin Orbitals:

  Irrep: 1 Size: 5 x 5

                 1                   2                   3                   4                   5

    1     0.00000000000000     0.93739904802009     0.93715518278000     0.93724498136849     0.93728067248504
    2     0.93739904802009     0.00000000000000     0.29720709821112     0.29700100782978     0.29712510767775
    3     0.93715518278000     0.29720709821112     0.00000000000000     0.29705200642083     0.29723493140804
    4     0.93724498136849     0.29700100782978     0.29705200642083     0.00000000000000     0.29724312465674
    5     0.93728067248504     0.29712510767775     0.29723493140804     0.29724312465674     0.00000000000000



  Atomic Valences: 

 #  #
 Irrep: 1
      1:  3.7490799
      2:  1.8287323
      3:  1.8286492
      4:  1.8285411
      5:  1.8288838


 Electrostatic potential computed on the grid and written to grid_esp.dat

    Psi4 stopped on: Tuesday, 08 December 2020 02:47PM
    Psi4 wall time for execution: 0:00:26.18

*** Psi4 exiting successfully. Buy a developer a beer!
