
    -----------------------------------------------------------------------
          Psi4: An Open-Source Ab Initio Electronic Structure Package
                               Psi4 1.5 release

                         Git: Rev {HEAD} e9f4d6d 


    D. G. A. Smith, L. A. Burns, A. C. Simmonett, R. M. Parrish,
    M. C. Schieber, R. Galvelis, P. Kraus, H. Kruse, R. Di Remigio,
    A. Alenaizan, A. M. James, S. Lehtola, J. P. Misiewicz, M. Scheurer,
    R. A. Shaw, J. B. Schriber, Y. Xie, Z. L. Glick, D. A. Sirianni,
    J. S. O'Brien, J. M. Waldrop, A. Kumar, E. G. Hohenstein,
    B. P. Pritchard, B. R. Brooks, H. F. Schaefer III, A. Yu. Sokolov,
    K. Patkowski, A. E. DePrince III, U. Bozkaya, R. A. King,
    F. A. Evangelista, J. M. Turney, T. D. Crawford, C. D. Sherrill,
    J. Chem. Phys. 152(18) 184108 (2020). https://doi.org/10.1063/5.0006002

                            Additional Code Authors
    E. T. Seidl, C. L. Janssen, E. F. Valeev, M. L. Leininger,
    J. F. Gonthier, R. M. Richard, H. R. McAlexander, M. Saitow, X. Wang,
    P. Verma, M. H. Lechner, and A. Jiang

             Previous Authors, Complete List of Code Contributors,
                       and Citations for Specific Modules
    https://github.com/psi4/psi4/blob/master/codemeta.json
    https://github.com/psi4/psi4/graphs/contributors
    http://psicode.org/psi4manual/master/introduction.html#citing-psifour

    -----------------------------------------------------------------------


    Psi4 started on: Wednesday, 08 June 2022 01:16PM

    Process ID: 1115178
    Host:       node74.bme.utexas.edu
    PSIDATADIR: /home/bdw2292/miniconda3/envs/newamoebamdpoltype/share/psi4
    Memory:     500.0 MiB
    Threads:    1
    
  ==> Input File <==

--------------------------------------------------------------------------
molecule { 
0 1
 N   -0.151115    0.544455   -0.483231
 C    0.949203    0.633912    0.404099
 C    2.329587    0.903589   -0.256164
 N    3.076406   -0.320113   -0.611531
 O    0.819572    0.534379    1.624765
 H    2.269991    1.567299   -1.135403
 H    2.952669    1.464706    0.462749
 C   -1.493067    0.401703    0.050146
 C   -4.127843    0.129456    1.037548
 C   -3.129325   -0.767028    1.440448
 C   -3.812839    1.162496    0.144850
 C   -1.819771   -0.640316    0.957404
 C   -2.509138    1.306392   -0.351094
 C    0.009233    0.261957   -1.931395
 C    4.210441   -0.025951   -1.507926
 C    3.551047   -1.039356    0.591761
 H   -3.368196   -1.573817    2.135688
 H   -4.585957    1.864365   -0.173306
 H   -1.051396   -1.342911    1.284315
 H   -2.282135    2.117547   -1.046162
 H   -0.881175   -0.220651   -2.336601
 H    0.175149    1.190685   -2.477415
 H    0.849706   -0.411440   -2.104280
 H    3.835934    0.437291   -2.435720
 H    4.935373    0.651575   -1.025617
 H    4.279226   -0.435412    1.158915
 H    2.695450   -1.269469    1.247496
 H   -5.145694    0.023127    1.417875
 H    4.714982   -0.965329   -1.787419
 H    4.013757   -1.994669    0.295081
}
set optking { 
  frozen_dihedral = ("
    1 2 3 4
    2 1 8 12
    8 1 2 3
    2 3 4 15
  ")
}
set {
  geom_maxiter 400
  g_convergence GAU_LOOSE
  dynamic_level 1
}
memory 8.166666666666666GB
set_num_threads(2)
psi4_io.set_default_path("/scratch/bdw2292/Psi4-25_27_Index_0-farH_in17")
for _ in range(1):
  try:
    set opt_coordinates both
    optimize('wb97x-d/6-311G')
    break
  except OptimizationConvergenceError:
    break
  else:
    try:
      set opt_coordinates cartesian
      optimize('wb97x-d/6-311G')
      break
    except OptimizationConvergenceError:
      pass
clean()
--------------------------------------------------------------------------

  Memory set to   7.606 GiB by Python driver.
  Threads set to 2 by Python driver.

Scratch directory: /scratch/bdw2292/Psi4-25_27_Index_0-farH_in17/

Scratch directory: /scratch/bdw2292/Psi4-25_27_Index_0-farH_in17/
gradient() will perform analytic gradient computation.

*** tstart() called on node74.bme.utexas.edu
*** at Wed Jun  8 13:16:26 2022

   => Loading Basis Set <=

    Name: 6-311G
    Role: ORBITAL
    Keyword: BASIS
    atoms 1, 4       entry N          line   109 file /home/bdw2292/miniconda3/envs/newamoebamdpoltype/share/psi4/basis/6-311g.gbs 
    atoms 2-3, 8-16  entry C          line    92 file /home/bdw2292/miniconda3/envs/newamoebamdpoltype/share/psi4/basis/6-311g.gbs 
    atoms 5          entry O          line   126 file /home/bdw2292/miniconda3/envs/newamoebamdpoltype/share/psi4/basis/6-311g.gbs 
    atoms 6-7, 17-30 entry H          line    21 file /home/bdw2292/miniconda3/envs/newamoebamdpoltype/share/psi4/basis/6-311g.gbs 

   => WB97X-D: Empirical Dispersion <=

    Chai and Head-Gordon Dispersion Correction
    Chai, J.-D.; Head-Gordon, M. (2010), J. Chem. Phys., 132: 6615-6620

        s6 =       1.000000


         ---------------------------------------------------------
                                   SCF
               by Justin Turney, Rob Parrish, Andy Simmonett
                          and Daniel G. A. Smith
                              RKS Reference
                        2 Threads,   7788 MiB Core
         ---------------------------------------------------------

  ==> Geometry <==

    Molecular point group: c1
    Full point group: C1

    Geometry (in Angstrom), charge = 0, multiplicity = 1:

       Center              X                  Y                   Z               Mass       
    ------------   -----------------  -----------------  -----------------  -----------------
         N           -0.137972528600     0.332497516177    -0.540710109266    14.003074004430
         C            0.962345471400     0.421954516177     0.346619890734    12.000000000000
         C            2.342729471400     0.691631516177    -0.313643109266    12.000000000000
         N            3.089548471400    -0.532070483823    -0.669010109266    14.003074004430
         O            0.832714471400     0.322421516177     1.567285890734    15.994914619570
         H            2.283133471400     1.355341516177    -1.192882109266     1.007825032230
         H            2.965811471400     1.252748516177     0.405269890734     1.007825032230
         C           -1.479924528600     0.189745516177    -0.007333109266    12.000000000000
         C           -4.114700528600    -0.082501483823     0.980068890734    12.000000000000
         C           -3.116182528600    -0.978985483823     1.382968890734    12.000000000000
         C           -3.799696528600     0.950538516177     0.087370890734    12.000000000000
         C           -1.806628528600    -0.852273483823     0.899924890734    12.000000000000
         C           -2.495995528600     1.094434516177    -0.408573109266    12.000000000000
         C            0.022375471400     0.049999516177    -1.988874109266    12.000000000000
         C            4.223583471400    -0.237908483823    -1.565405109266    12.000000000000
         C            3.564189471400    -1.251313483823     0.534281890734    12.000000000000
         H           -3.355053528600    -1.785774483823     2.078208890734     1.007825032230
         H           -4.572814528600     1.652407516177    -0.230785109266     1.007825032230
         H           -1.038253528600    -1.554868483823     1.226835890734     1.007825032230
         H           -2.268992528600     1.905589516177    -1.103641109266     1.007825032230
         H           -0.868032528600    -0.432608483823    -2.394080109266     1.007825032230
         H            0.188291471400     0.978727516177    -2.534894109266     1.007825032230
         H            0.862848471400    -0.623397483823    -2.161759109266     1.007825032230
         H            3.849076471400     0.225333516177    -2.493199109266     1.007825032230
         H            4.948515471400     0.439617516177    -1.083096109266     1.007825032230
         H            4.292368471400    -0.647369483823     1.101435890734     1.007825032230
         H            2.708592471400    -1.481426483823     1.190016890734     1.007825032230
         H           -5.132551528600    -0.188830483823     1.360395890734     1.007825032230
         H            4.728124471400    -1.177286483823    -1.844898109266     1.007825032230
         H            4.026899471400    -2.206626483823     0.237601890734     1.007825032230

  Running in c1 symmetry.

  Rotational constants: A =      0.05906  B =      0.01106  C =      0.01016 [cm^-1]
  Rotational constants: A =   1770.66061  B =    331.66392  C =    304.73624 [MHz]
  Nuclear repulsion =  877.583165595865580

  Charge       = 0
  Multiplicity = 1
  Electrons    = 104
  Nalpha       = 52
  Nbeta        = 52

  ==> Algorithm <==

  SCF Algorithm Type is DF.
  DIIS enabled.
  MOM disabled.
  Fractional occupation disabled.
  Guess Type is SAD.
  Energy threshold   = 1.00e-08
  Density threshold  = 1.00e-08
  Integral threshold = 1.00e-12

  ==> Primary Basis <==

  Basis Set: 6-311G
    Blend: 6-311G
    Number of shells: 146
    Number of basis functions: 230
    Number of Cartesian functions: 230
    Spherical Harmonics?: true
    Max angular momentum: 1

  ==> DFT Potential <==

   => LibXC <=

    Version 5.1.5
    S. Lehtola, C. Steigemann, M. J. Oliveira, and M. A. Marques, SoftwareX 7, 1 (2018) (10.1016/j.softx.2017.11.002)

   => Composite Functional: WB97X-D <= 

    wB97X-D Hyb-GGA Exchange-Correlation Functional

    J.-D. Chai and M. Head-Gordon, Phys. Chem. Chem. Phys. 10, 6615 (2008) (10.1039/B810189B)

    Deriv               =              1
    GGA                 =           TRUE
    Meta                =          FALSE

    Exchange Hybrid     =           TRUE
    MP2 Hybrid          =          FALSE

   => Exchange-Correlation Functionals <=

    1.0000   wB97X-D range-separated functional

   => Exact (HF) Exchange <=

    0.7780            HF,LR [omega = 0.2000]
    0.2220               HF 

   => LibXC Density Thresholds  <==

    XC_HYB_GGA_XC_WB97X_D:  1.00E-14 

   => Molecular Quadrature <=

    Radial Scheme          =       TREUTLER
    Pruning Scheme         =           NONE
    Nuclear Scheme         =       TREUTLER

    BS radius alpha        =              1
    Pruning alpha          =              1
    Radial Points          =             75
    Spherical Points       =            302
    Total Points           =         623759
    Total Blocks           =           4516
    Max Points             =            256
    Max Functions          =            185
    Weights Tolerance      =       1.00E-15

   => Loading Basis Set <=

    Name: (6-311G AUX)
    Role: JKFIT
    Keyword: DF_BASIS_SCF
    atoms 1, 4       entry N          line   177 file /home/bdw2292/miniconda3/envs/newamoebamdpoltype/share/psi4/basis/cc-pvtz-jkfit.gbs 
    atoms 2-3, 8-16  entry C          line   125 file /home/bdw2292/miniconda3/envs/newamoebamdpoltype/share/psi4/basis/cc-pvtz-jkfit.gbs 
    atoms 5          entry O          line   229 file /home/bdw2292/miniconda3/envs/newamoebamdpoltype/share/psi4/basis/cc-pvtz-jkfit.gbs 
    atoms 6-7, 17-30 entry H          line    51 file /home/bdw2292/miniconda3/envs/newamoebamdpoltype/share/psi4/basis/cc-pvtz-jkfit.gbs 

  ==> Integral Setup <==

  DFHelper Memory: AOs need 1.537 GiB; user supplied 3.524 GiB. Using in-core AOs.

  ==> MemDFJK: Density-Fitted J/K Matrices <==

    J tasked:                   Yes
    K tasked:                   Yes
    wK tasked:                  Yes
    Omega:                2.000E-01
    OpenMP threads:               2
    Memory [MiB]:              3609
    Algorithm:                 Core
    Schwarz Cutoff:           1E-12
    Mask sparsity (%):      19.6446
    Fitting Condition:        1E-10

   => Auxiliary Basis Set <=

  Basis Set: (6-311G AUX)
    Blend: CC-PVTZ-JKFIT
    Number of shells: 510
    Number of basis functions: 1586
    Number of Cartesian functions: 1904
    Spherical Harmonics?: true
    Max angular momentum: 4

  Cached 100.0% of DFT collocation blocks in 2.180 [GiB].

  Minimum eigenvalue in the overlap matrix is 2.6667061337E-04.
  Reciprocal condition number of the overlap matrix is 3.7456527716E-05.
    Using symmetric orthogonalization.

  ==> Pre-Iterations <==

  SCF Guess: Superposition of Atomic Densities via on-the-fly atomic UHF (no occupation information).

   -------------------------
    Irrep   Nso     Nmo    
   -------------------------
     A        230     230 
   -------------------------
    Total     230     230
   -------------------------

  ==> Iterations <==

                           Total Energy        Delta E     RMS |[F,P]|

   @DF-RKS iter SAD:  -612.17122179552314   -6.12171e+02   0.00000e+00 
   @DF-RKS iter   1:  -612.78190964822386   -6.10688e-01   4.36567e-03 DIIS
   @DF-RKS iter   2:  -612.89752737258016   -1.15618e-01   4.23021e-03 DIIS
   @DF-RKS iter   3:  -613.25042477997692   -3.52897e-01   1.14002e-03 DIIS
   @DF-RKS iter   4:  -613.27599610208063   -2.55713e-02   2.38936e-04 DIIS
   @DF-RKS iter   5:  -613.27714940927171   -1.15331e-03   9.87914e-05 DIIS
   @DF-RKS iter   6:  -613.27737165344854   -2.22244e-04   1.95640e-05 DIIS
   @DF-RKS iter   7:  -613.27738153930181   -9.88585e-06   5.93230e-06 DIIS
   @DF-RKS iter   8:  -613.27738283388680   -1.29458e-06   1.68580e-06 DIIS
   @DF-RKS iter   9:  -613.27738298052407   -1.46637e-07   8.96131e-07 DIIS
   @DF-RKS iter  10:  -613.27738301450154   -3.39775e-08   2.39445e-07 DIIS
   @DF-RKS iter  11:  -613.27738301816441   -3.66288e-09   9.26613e-08 DIIS
   @DF-RKS iter  12:  -613.27738301850093   -3.36513e-10   2.67961e-08 DIIS
   @DF-RKS iter  13:  -613.27738301855243   -5.15001e-11   9.00223e-09 DIIS
  Energy and wave function converged.


  ==> Post-Iterations <==

   Electrons on quadrature grid:
      Ntotal   =  104.0000141325 ; deviation = 1.413e-05 

    Orbital Energies [Eh]
    ---------------------

    Doubly Occupied:                                                      

       1A    -19.220896     2A    -14.473004     3A    -14.440654  
       4A    -10.407346     5A    -10.340200     6A    -10.328700  
       7A    -10.320446     8A    -10.312175     9A    -10.301908  
      10A    -10.299342    11A    -10.296959    12A    -10.295842  
      13A    -10.295102    14A    -10.294535    15A     -1.157589  
      16A     -1.040689    17A     -1.030761    18A     -0.954486  
      19A     -0.857251    20A     -0.851606    21A     -0.830877  
      22A     -0.809001    23A     -0.801035    24A     -0.727434  
      25A     -0.706569    26A     -0.694977    27A     -0.650282  
      28A     -0.601499    29A     -0.594898    30A     -0.575815  
      31A     -0.573303    32A     -0.558051    33A     -0.553237  
      34A     -0.531135    35A     -0.527708    36A     -0.518730  
      37A     -0.510776    38A     -0.492262    39A     -0.490513  
      40A     -0.487845    41A     -0.478521    42A     -0.461497  
      43A     -0.457862    44A     -0.452631    45A     -0.447324  
      46A     -0.439866    47A     -0.432706    48A     -0.348493  
      49A     -0.343449    50A     -0.328730    51A     -0.305520  
      52A     -0.297212  

    Virtual:                                                              

      53A      0.052925    54A      0.063132    55A      0.077406  
      56A      0.109861    57A      0.125684    58A      0.137314  
      59A      0.157042    60A      0.160188    61A      0.163337  
      62A      0.169406    63A      0.173813    64A      0.181803  
      65A      0.192090    66A      0.193329    67A      0.201869  
      68A      0.208444    69A      0.215080    70A      0.225717  
      71A      0.228618    72A      0.233524    73A      0.240260  
      74A      0.255969    75A      0.276451    76A      0.301616  
      77A      0.306773    78A      0.315593    79A      0.343479  
      80A      0.349506    81A      0.357493    82A      0.371324  
      83A      0.372771    84A      0.379006    85A      0.385606  
      86A      0.403606    87A      0.418108    88A      0.434569  
      89A      0.445945    90A      0.455018    91A      0.465630  
      92A      0.476289    93A      0.485941    94A      0.486785  
      95A      0.492030    96A      0.508343    97A      0.517710  
      98A      0.531488    99A      0.540678   100A      0.546483  
     101A      0.549841   102A      0.550817   103A      0.560016  
     104A      0.584412   105A      0.588403   106A      0.609567  
     107A      0.615049   108A      0.616176   109A      0.628553  
     110A      0.640114   111A      0.644024   112A      0.653308  
     113A      0.655271   114A      0.665882   115A      0.671352  
     116A      0.673991   117A      0.681891   118A      0.688269  
     119A      0.690739   120A      0.694790   121A      0.704358  
     122A      0.706467   123A      0.713041   124A      0.720885  
     125A      0.742280   126A      0.750682   127A      0.754568  
     128A      0.764416   129A      0.770742   130A      0.781816  
     131A      0.812218   132A      0.836325   133A      0.852553  
     134A      0.862487   135A      0.871490   136A      0.887679  
     137A      0.893927   138A      0.908943   139A      0.918377  
     140A      0.946737   141A      0.952504   142A      0.973236  
     143A      1.005294   144A      1.006803   145A      1.041102  
     146A      1.056829   147A      1.089680   148A      1.092394  
     149A      1.126627   150A      1.158604   151A      1.165404  
     152A      1.225535   153A      1.275213   154A      1.315066  
     155A      1.377063   156A      1.476958   157A      1.548632  
     158A      1.740347   159A      2.279921   160A      2.298988  
     161A      2.315668   162A      2.338397   163A      2.344234  
     164A      2.357351   165A      2.363064   166A      2.372738  
     167A      2.377643   168A      2.393713   169A      2.408882  
     170A      2.425857   171A      2.431064   172A      2.453758  
     173A      2.465594   174A      2.629858   175A      2.637461  
     176A      2.670415   177A      2.701209   178A      2.706613  
     179A      2.784842   180A      2.793628   181A      2.846950  
     182A      2.852775   183A      2.893470   184A      2.903509  
     185A      2.922692   186A      2.941094   187A      2.950080  
     188A      2.968942   189A      2.986103   190A      3.006572  
     191A      3.021236   192A      3.033839   193A      3.069456  
     194A      3.082021   195A      3.098595   196A      3.122751  
     197A      3.154581   198A      3.159845   199A      3.179236  
     200A      3.200218   201A      3.237841   202A      3.282144  
     203A      3.297692   204A      3.325966   205A      3.352537  
     206A      3.375908   207A      3.510348   208A      3.932783  
     209A      3.948499   210A      4.077096   211A      4.106014  
     212A      4.132886   213A      4.256963   214A      5.006823  
     215A      5.069303   216A      5.107709   217A     23.245653  
     218A     23.451095   219A     23.477742   220A     23.491342  
     221A     23.524975   222A     23.567451   223A     23.583675  
     224A     23.677626   225A     23.719586   226A     23.750602  
     227A     23.992533   228A     35.533561   229A     35.569488  
     230A     50.048650  

    Final Occupation by Irrep:
              A 
    DOCC [    52 ]

  @DF-RKS Final Energy:  -613.27738301855243

   => Energetics <=

    Nuclear Repulsion Energy =            877.5831655958655801
    One-Electron Energy =               -2571.6460402946904651
    Two-Electron Energy =                1141.2003901267157744
    DFT Exchange-Correlation Energy =     -60.3948116971086293
    Empirical Dispersion Energy =          -0.0200867493346120
    VV10 Nonlocal Energy =                  0.0000000000000000
    Total Energy =                       -613.2773830185524275

Computation Completed


Properties will be evaluated at   0.000000,   0.000000,   0.000000 [a0]

Properties computed using the SCF density matrix

  Nuclear Dipole Moment: [e a0]
     X:    12.7619      Y:    -2.1432      Z:    -6.9632

  Electronic Dipole Moment: [e a0]
     X:   -12.5288      Y:     2.1140      Z:     5.6364

  Dipole Moment: [e a0]
     X:     0.2330      Y:    -0.0292      Z:    -1.3268     Total:     1.3475

  Dipole Moment: [D]
     X:     0.5923      Y:    -0.0742      Z:    -3.3725     Total:     3.4249


*** tstop() called on node74.bme.utexas.edu at Wed Jun  8 13:17:36 2022
Module time:
	user time   =     131.70 seconds =       2.20 minutes
	system time =       5.97 seconds =       0.10 minutes
	total time  =         70 seconds =       1.17 minutes
Total time:
	user time   =     131.70 seconds =       2.20 minutes
	system time =       5.97 seconds =       0.10 minutes
	total time  =         70 seconds =       1.17 minutes

*** tstart() called on node74.bme.utexas.edu
*** at Wed Jun  8 13:17:36 2022


         ------------------------------------------------------------
                                   SCF GRAD                          
                          Rob Parrish, Justin Turney,                
                       Andy Simmonett, and Alex Sokolov              
         ------------------------------------------------------------

  ==> Geometry <==

    Molecular point group: c1
    Full point group: C1

    Geometry (in Angstrom), charge = 0, multiplicity = 1:

       Center              X                  Y                   Z               Mass       
    ------------   -----------------  -----------------  -----------------  -----------------
         N           -0.137972528600     0.332497516177    -0.540710109266    14.003074004430
         C            0.962345471400     0.421954516177     0.346619890734    12.000000000000
         C            2.342729471400     0.691631516177    -0.313643109266    12.000000000000
         N            3.089548471400    -0.532070483823    -0.669010109266    14.003074004430
         O            0.832714471400     0.322421516177     1.567285890734    15.994914619570
         H            2.283133471400     1.355341516177    -1.192882109266     1.007825032230
         H            2.965811471400     1.252748516177     0.405269890734     1.007825032230
         C           -1.479924528600     0.189745516177    -0.007333109266    12.000000000000
         C           -4.114700528600    -0.082501483823     0.980068890734    12.000000000000
         C           -3.116182528600    -0.978985483823     1.382968890734    12.000000000000
         C           -3.799696528600     0.950538516177     0.087370890734    12.000000000000
         C           -1.806628528600    -0.852273483823     0.899924890734    12.000000000000
         C           -2.495995528600     1.094434516177    -0.408573109266    12.000000000000
         C            0.022375471400     0.049999516177    -1.988874109266    12.000000000000
         C            4.223583471400    -0.237908483823    -1.565405109266    12.000000000000
         C            3.564189471400    -1.251313483823     0.534281890734    12.000000000000
         H           -3.355053528600    -1.785774483823     2.078208890734     1.007825032230
         H           -4.572814528600     1.652407516177    -0.230785109266     1.007825032230
         H           -1.038253528600    -1.554868483823     1.226835890734     1.007825032230
         H           -2.268992528600     1.905589516177    -1.103641109266     1.007825032230
         H           -0.868032528600    -0.432608483823    -2.394080109266     1.007825032230
         H            0.188291471400     0.978727516177    -2.534894109266     1.007825032230
         H            0.862848471400    -0.623397483823    -2.161759109266     1.007825032230
         H            3.849076471400     0.225333516177    -2.493199109266     1.007825032230
         H            4.948515471400     0.439617516177    -1.083096109266     1.007825032230
         H            4.292368471400    -0.647369483823     1.101435890734     1.007825032230
         H            2.708592471400    -1.481426483823     1.190016890734     1.007825032230
         H           -5.132551528600    -0.188830483823     1.360395890734     1.007825032230
         H            4.728124471400    -1.177286483823    -1.844898109266     1.007825032230
         H            4.026899471400    -2.206626483823     0.237601890734     1.007825032230

  Nuclear repulsion =  877.583165595865694

  ==> Basis Set <==

  Basis Set: 6-311G
    Blend: 6-311G
    Number of shells: 146
    Number of basis functions: 230
    Number of Cartesian functions: 230
    Spherical Harmonics?: true
    Max angular momentum: 1

  ==> DFJKGrad: Density-Fitted SCF Gradients <==

    Gradient:                    1
    J tasked:                  Yes
    K tasked:                  Yes
    wK tasked:                 Yes
    Omega:               2.000E-01
    OpenMP threads:              2
    Integrals threads:           2
    Memory [MiB]:             5841
    Schwarz Cutoff:          1E-12
    Fitting Condition:       1E-10

   => Auxiliary Basis Set <=

  Basis Set: (6-311G AUX)
    Blend: CC-PVTZ-JKFIT
    Number of shells: 510
    Number of basis functions: 1586
    Number of Cartesian functions: 1904
    Spherical Harmonics?: true
    Max angular momentum: 4

  ==> DFT Potential <==

   => LibXC <=

    Version 5.1.5
    S. Lehtola, C. Steigemann, M. J. Oliveira, and M. A. Marques, SoftwareX 7, 1 (2018) (10.1016/j.softx.2017.11.002)

   => Composite Functional: WB97X-D <= 

    wB97X-D Hyb-GGA Exchange-Correlation Functional

    J.-D. Chai and M. Head-Gordon, Phys. Chem. Chem. Phys. 10, 6615 (2008) (10.1039/B810189B)

    Deriv               =              1
    GGA                 =           TRUE
    Meta                =          FALSE

    Exchange Hybrid     =           TRUE
    MP2 Hybrid          =          FALSE

   => Exchange-Correlation Functionals <=

    1.0000   wB97X-D range-separated functional

   => Exact (HF) Exchange <=

    0.7780            HF,LR [omega = 0.2000]
    0.2220               HF 

   => LibXC Density Thresholds  <==

    XC_HYB_GGA_XC_WB97X_D:  1.00E-14 

   => Molecular Quadrature <=

    Radial Scheme          =       TREUTLER
    Pruning Scheme         =           NONE
    Nuclear Scheme         =       TREUTLER

    BS radius alpha        =              1
    Pruning alpha          =              1
    Radial Points          =             75
    Spherical Points       =            302
    Total Points           =         623759
    Total Blocks           =           4516
    Max Points             =            256
    Max Functions          =            185
    Weights Tolerance      =       1.00E-15


  -Total Gradient:
     Atom            X                  Y                   Z
    ------   -----------------  -----------------  -----------------
       1       -0.003801998908     0.011628783168    -0.012501723552
       2        0.005562734814    -0.001075610449     0.037626608186
       3       -0.006493407077    -0.005293040799    -0.004503585250
       4       -0.000997728669     0.005713133552     0.000674962921
       5       -0.001690788051    -0.001819799148    -0.008331015923
       6        0.006788574667     0.009886053284    -0.003430058206
       7        0.008323405396    -0.001914582542    -0.004935066837
       8        0.009696331940     0.000786311773    -0.008273449318
       9       -0.001544012951    -0.000681482572     0.000697422413
      10       -0.001872363666    -0.001553219154     0.001452054665
      11       -0.000933181963     0.001159979644     0.001311823448
      12       -0.001909984297    -0.006945329740     0.007509938928
      13       -0.007260197902     0.008364374459    -0.003783009730
      14       -0.006518085132    -0.005995341789    -0.003204181277
      15        0.008182831572     0.002751165081     0.005727924202
      16        0.011310769810     0.006484133899     0.002022804548
      17       -0.001599344900    -0.005040064595     0.004176978234
      18       -0.004725513139     0.004163869671    -0.002108490540
      19        0.004458295451    -0.006706191802     0.003084923420
      20       -0.000908782340     0.005449162035    -0.004865199811
      21        0.000611688128    -0.002239291992    -0.006060400317
      22       -0.000401297205    -0.000087058669     0.003096030280
      23       -0.001355923269    -0.001599869451    -0.002935172945
      24       -0.003400708303     0.001928670395    -0.006644392096
      25       -0.001496235440     0.000618937127     0.002286411222
      26        0.000311216537     0.001207787234    -0.000240152583
      27       -0.007696984850    -0.002993437096     0.004210049160
      28       -0.006545865770    -0.000991989684     0.002397990936
      29        0.003318141531    -0.007118381590    -0.003836737981
      30        0.002337096365    -0.007988120948    -0.001211012917


*** tstop() called on node74.bme.utexas.edu at Wed Jun  8 13:18:09 2022
Module time:
	user time   =      63.59 seconds =       1.06 minutes
	system time =       1.13 seconds =       0.02 minutes
	total time  =         33 seconds =       0.55 minutes
Total time:
	user time   =     195.30 seconds =       3.26 minutes
	system time =       7.10 seconds =       0.12 minutes
	total time  =        103 seconds =       1.72 minutes

			-----------------------------------------
			 OPTKING 2.0: for geometry optimizations 
			  - R.A. King,  Bethel University        
			-----------------------------------------
	At level 1: Red. Int., RFO, no backsteps, dynamic trust

	Internal coordinates to be generated automatically.
	Detected frag 1 with atoms:  1 2 3 4 5 6 7 8 9 10 11 12 13 14 15 16 17 18 19 20
	 21 22 23 24 25 26 27 28 29 30
	---Fragment 1 Bond Connectivity---
	 1 : 2 8 14
	 2 : 1 3 5
	 3 : 2 4 6 7
	 4 : 3 15 16
	 5 : 2
	 6 : 3
	 7 : 3
	 8 : 1 12 13
	 9 : 10 11 28
	 10 : 9 12 17
	 11 : 9 13 18
	 12 : 8 10 19
	 13 : 8 11 20
	 14 : 1 21 22 23
	 15 : 4 24 25 29
	 16 : 4 26 27 30
	 17 : 10
	 18 : 11
	 19 : 12
	 20 : 13
	 21 : 14
	 22 : 14
	 23 : 14
	 24 : 15
	 25 : 15
	 26 : 16
	 27 : 16
	 28 : 9
	 29 : 15
	 30 : 16

	Assuming in current code that numbering for constraints corresponds to unified fragment.
	Frozen dihedral atom list: 
	     1     2     3     4
	     2     1     8    12
	     8     1     2     3
	     2     3     4    15
	---Fragment 1 Geometry and Gradient---
	 N          -0.2607302919        0.6283292430       -1.0217940198
	 C           1.8185693790        0.7973784730        0.6550166631
	 C           4.4271170870        1.3069941453       -0.5926995777
	 N           5.8384004623       -1.0054674939       -1.2642458817
	 O           1.5736022917        0.6092883625        2.9617410938
	 H           4.3144969688        2.5612242720       -2.2542204865
	 H           5.6045714207        2.3673515996        0.7658491004
	 C          -2.7966520454        0.3585670591       -0.0138575682
	 C          -7.7756570873       -0.1559052094        1.8520617876
	 C          -5.8887315360       -1.8500144452        2.6134324435
	 C          -7.1803857989        1.7962574673        0.1651070548
	 C          -3.4140331295       -1.6105634684        1.7006115770
	 C          -4.7167479594        2.0681814978       -0.7720912787
	 C           0.0422835129        0.0944853920       -3.7584273645
	 C           7.9814160290       -0.4495818773       -2.9581869319
	 C           6.7353419602       -2.3646397815        1.0096464473
	 H          -6.3401323053       -3.3746246963        3.9272456350
	 H          -8.6413670816        3.1225976532       -0.4361206503
	 H          -1.9620148178       -2.9382755955        2.3183838344
	 H          -4.2877744598        3.6010422931       -2.0855794373
	 H          -1.6403437470       -0.8175115540       -4.5241557289
	 H           0.3558193127        1.8495269570       -4.7902556235
	 H           1.6305472987       -1.1780505117       -4.0851326657
	 H           7.2737003669        0.4258186325       -4.7114634927
	 H           9.3513389685        0.8307567055       -2.0467550141
	 H           8.1114008405       -1.2233510264        2.0814121782
	 H           5.1184979564       -2.7994903294        2.2488060082
	 H          -9.6991167139       -0.3568378986        2.5707756557
	 H           8.9348603380       -2.2247490256       -3.4863521559
	 H           7.6097371357       -4.1699197156        0.4490025004
	            -0.0038019989        0.0116287832       -0.0125017236
	             0.0055627348       -0.0010756104        0.0376266082
	            -0.0064934071       -0.0052930408       -0.0045035853
	            -0.0009977287        0.0057131336        0.0006749629
	            -0.0016907881       -0.0018197991       -0.0083310159
	             0.0067885747        0.0098860533       -0.0034300582
	             0.0083234054       -0.0019145825       -0.0049350668
	             0.0096963319        0.0007863118       -0.0082734493
	            -0.0015440130       -0.0006814826        0.0006974224
	            -0.0018723637       -0.0015532192        0.0014520547
	            -0.0009331820        0.0011599796        0.0013118234
	            -0.0019099843       -0.0069453297        0.0075099389
	            -0.0072601979        0.0083643745       -0.0037830097
	            -0.0065180851       -0.0059953418       -0.0032041813
	             0.0081828316        0.0027511651        0.0057279242
	             0.0113107698        0.0064841339        0.0020228045
	            -0.0015993449       -0.0050400646        0.0041769782
	            -0.0047255131        0.0041638697       -0.0021084905
	             0.0044582955       -0.0067061918        0.0030849234
	            -0.0009087823        0.0054491620       -0.0048651998
	             0.0006116881       -0.0022392920       -0.0060604003
	            -0.0004012972       -0.0000870587        0.0030960303
	            -0.0013559233       -0.0015998695       -0.0029351729
	            -0.0034007083        0.0019286704       -0.0066443921
	            -0.0014962354        0.0006189371        0.0022864112
	             0.0003112165        0.0012077872       -0.0002401526
	            -0.0076969848       -0.0029934371        0.0042100492
	            -0.0065458658       -0.0009919897        0.0023979909
	             0.0033181415       -0.0071183816       -0.0038367380
	             0.0023370964       -0.0079881209       -0.0012110129

	Previous optimization step data not found.  Starting new optimization.

	---Fragment 1 Intrafragment Coordinates---
	 - Coordinate -           - BOHR/RAD -       - ANG/DEG -
	 R(1,2)           =         2.676520	       1.416353
	 R(1,8)           =         2.742190	       1.451105
	 R(1,14)          =         2.804633	       1.484148
	 R(2,3)           =         2.936158	       1.553748
	 R(2,5)           =         2.327308	       1.231559
	 R(3,4)           =         2.791088	       1.476980
	 R(3,6)           =         2.084809	       1.103233
	 R(3,7)           =         2.087202	       1.104500
	 R(4,15)          =         2.787644	       1.475158
	 R(4,16)          =         2.796862	       1.480036
	 R(8,12)          =         2.682916	       1.419738
	 R(8,13)          =         2.680386	       1.418399
	 R(9,10)          =         2.647674	       1.401089
	 R(9,11)          =         2.647849	       1.401181
	 R(9,28)          =         2.063158	       1.091776
	 R(10,12)         =         2.648530	       1.401542
	 R(10,17)         =         2.062596	       1.091479
	 R(11,13)         =         2.649867	       1.402249
	 R(11,18)         =         2.062794	       1.091584
	 R(12,19)         =         2.062236	       1.091289
	 R(13,20)         =         2.063718	       1.092072
	 R(14,21)         =         2.061386	       1.090839
	 R(14,22)         =         2.059890	       1.090047
	 R(14,23)         =         2.061229	       1.090756
	 R(15,24)         =         2.083547	       1.102565
	 R(15,25)         =         2.084865	       1.103263
	 R(15,29)         =         2.083083	       1.102320
	 R(16,26)         =         2.084409	       1.103022
	 R(16,27)         =         2.082978	       1.102264
	 R(16,30)         =         2.082768	       1.102154
	 B(1,2,3)         =         2.020748	     115.780357
	 B(1,2,5)         =         2.134207	     122.281027
	 B(1,8,12)        =         2.117525	     121.325219
	 B(1,8,13)        =         2.089486	     119.718739
	 B(1,14,21)       =         1.937434	     111.006819
	 B(1,14,22)       =         1.920948	     110.062200
	 B(1,14,23)       =         1.934159	     110.819120
	 B(2,1,8)         =         2.087904	     119.628073
	 B(2,1,14)        =         2.140507	     122.642029
	 B(2,3,4)         =         1.990690	     114.058135
	 B(2,3,6)         =         1.976968	     113.271905
	 B(2,3,7)         =         1.888899	     108.225966
	 B(3,2,5)         =         2.127901	     121.919732
	 B(3,4,15)        =         1.949486	     111.697310
	 B(3,4,16)        =         1.948912	     111.664440
	 B(4,3,6)         =         1.911341	     109.511759
	 B(4,3,7)         =         1.867397	     106.993956
	 B(4,15,24)       =         1.911339	     109.511632
	 B(4,15,25)       =         1.941150	     111.219706
	 B(4,15,29)       =         1.913467	     109.633576
	 B(4,16,26)       =         1.942999	     111.325661
	 B(4,16,27)       =         1.913658	     109.644514
	 B(4,16,30)       =         1.914530	     109.694472
	 B(6,3,7)         =         1.816854	     104.098091
	 B(8,1,14)        =         2.026220	     116.093861
	 B(8,12,10)       =         2.096257	     120.106698
	 B(8,12,19)       =         2.096637	     120.128480
	 B(8,13,11)       =         2.094978	     120.033422
	 B(8,13,20)       =         2.100058	     120.324437
	 B(9,10,12)       =         2.104750	     120.593315
	 B(9,10,17)       =         2.094576	     120.010342
	 B(9,11,13)       =         2.105980	     120.663792
	 B(9,11,18)       =         2.094990	     120.034068
	 B(10,9,11)       =         2.088315	     119.651642
	 B(10,9,28)       =         2.096623	     120.127621
	 B(10,12,19)      =         2.090282	     119.764350
	 B(11,9,28)       =         2.098248	     120.220735
	 B(11,13,20)      =         2.088149	     119.642140
	 B(12,8,13)       =         2.076084	     118.950857
	 B(12,10,17)      =         2.083859	     119.396309
	 B(13,11,18)      =         2.082213	     119.302012
	 B(15,4,16)       =         1.922404	     110.145607
	 B(21,14,22)      =         1.891376	     108.367844
	 B(21,14,23)      =         1.872294	     107.274536
	 B(22,14,23)      =         1.906382	     109.227662
	 B(24,15,25)      =         1.910323	     109.453422
	 B(24,15,29)      =         1.875651	     107.466877
	 B(25,15,29)      =         1.910733	     109.476922
	 B(26,16,27)      =         1.897427	     108.714542
	 B(26,16,30)      =         1.913296	     109.623760
	 B(27,16,30)      =         1.880798	     107.761785
	*D(1,2,3,4)       =        -1.585935	     -90.867404
	 D(1,2,3,6)       =         0.616142	      35.302335
	 D(1,2,3,7)       =         2.621246	     150.186334
	 D(1,8,12,10)     =        -3.124021	    -178.993246
	 D(1,8,12,19)     =         0.021946	       1.257404
	 D(1,8,13,11)     =         3.125074	     179.053543
	 D(1,8,13,20)     =        -0.016760	      -0.960255
	*D(2,1,8,12)      =        -0.949476	     -54.400984
	 D(2,1,8,13)      =         2.206728	     126.436214
	 D(2,1,14,21)     =         2.673202	     153.163174
	 D(2,1,14,22)     =        -1.516058	     -86.863726
	 D(2,1,14,23)     =         0.594525	      34.063769
	*D(2,3,4,15)      =         2.906505	     166.530483
	 D(2,3,4,16)      =        -1.215238	     -69.627989
	*D(3,2,1,8)       =        -3.055782	    -175.083405
	 D(3,2,1,14)      =         0.350342	      20.073100
	 D(3,4,15,24)     =        -1.043278	     -59.775428
	 D(3,4,15,25)     =         1.070407	      61.329820
	 D(3,4,15,29)     =        -3.097155	    -177.453906
	 D(3,4,16,26)     =        -1.119200	     -64.125423
	 D(3,4,16,27)     =         0.981072	      56.211302
	 D(3,4,16,30)     =         3.043210	     174.363117
	 D(4,3,2,5)       =         1.582659	      90.679706
	 D(5,2,1,8)       =         0.058702	       3.363352
	 D(5,2,1,14)      =        -2.818360	    -161.480143
	 D(5,2,3,6)       =        -2.498449	    -143.150555
	 D(5,2,3,7)       =        -0.493344	     -28.266557
	 D(6,3,4,15)      =         0.670479	      38.415608
	 D(6,3,4,16)      =         2.831921	     162.257136
	 D(7,3,4,15)      =        -1.288511	     -73.826240
	 D(7,3,4,16)      =         0.872931	      50.015288
	 D(8,1,14,21)     =        -0.212543	     -12.177833
	 D(8,1,14,22)     =         1.881382	     107.795267
	 D(8,1,14,23)     =        -2.291220	    -131.277238
	 D(8,12,10,9)     =        -0.001312	      -0.075177
	 D(8,12,10,17)    =         3.139106	     179.857521
	 D(8,13,11,9)     =        -0.000329	      -0.018871
	 D(8,13,11,18)    =        -3.139654	    -179.888901
	 D(9,10,12,19)    =         3.135922	     179.675089
	 D(9,11,13,20)    =         3.141502	     179.994832
	 D(10,9,11,13)    =         0.002125	       0.121756
	 D(10,9,11,18)    =         3.141433	     179.990837
	 D(10,12,8,13)    =         0.003069	       0.175838
	 D(11,9,10,12)    =        -0.001299	      -0.074433
	 D(11,9,10,17)    =         3.141475	     179.993282
	 D(11,13,8,12)    =        -0.002254	      -0.129166
	 D(12,8,1,14)     =         1.944444	     111.408432
	 D(12,8,13,20)    =         3.139097	     179.857036
	 D(12,10,9,28)    =         3.140608	     179.943562
	 D(13,8,1,14)     =        -1.182537	     -67.754371
	 D(13,8,12,19)    =        -3.134149	    -179.573512
	 D(13,11,9,28)    =        -3.139782	    -179.896256
	 D(15,4,16,26)    =         1.057434	      60.586505
	 D(15,4,16,27)    =        -3.125479	    -179.076771
	 D(15,4,16,30)    =        -1.063341	     -60.924956
	 D(16,4,15,24)    =         3.063603	     175.531515
	 D(16,4,15,25)    =        -1.105897	     -63.363237
	 D(16,4,15,29)    =         1.009726	      57.853037
	 D(17,10,9,28)    =         0.000197	       0.011277
	 D(17,10,12,19)   =        -0.006845	      -0.392213
	 D(18,11,9,28)    =        -0.000474	      -0.027175
	 D(18,11,13,20)   =         0.002178	       0.124802
	 R(4,14)          =         6.405139	       3.389454
	 R(5,12)          =         5.603097	       2.965031
	 R(5,16)          =         6.268850	       3.317332

	Current energy   :      -613.2773830186

	Generating empirical Hessian (Schlegel '84) for each fragment.
	Taking RFO optimization step.
	Going to follow RFO solution 1.
	Using RFO vector 1.
	Norm of target step-size    0.40513
	Projected energy change by RFO approximation:        -0.0221296053

	Back-transformation to cartesian coordinates...
	Successfully converged to displaced geometry.

	Back-transformation to cartesian coordinates to adjust frozen coordinates...
	Successfully converged to displaced geometry.

	--- Internal Coordinate Step in ANG or DEG, aJ/ANG or AJ/DEG ---
	 ---------------------------------------------------------------------------
	   Coordinate                Previous        Force       Change         New 
	   ----------                --------       ------       ------       ------
	    1 R(1,2)          =      1.416353    -0.167823    -0.032113     1.384240
	    2 R(1,8)          =      1.451105    -0.082488    -0.016889     1.434215
	    3 R(1,14)         =      1.484148    -0.064193    -0.011317     1.472831
	    4 R(2,3)          =      1.553748    -0.126650    -0.035350     1.518398
	    5 R(2,5)          =      1.231559     0.077138     0.006563     1.238121
	    6 R(3,4)          =      1.476980     0.017289    -0.001300     1.475680
	    7 R(3,6)          =      1.103233    -0.068332    -0.010914     1.092319
	    8 R(3,7)          =      1.104500    -0.004313     0.000756     1.105255
	    9 R(4,15)         =      1.475158    -0.050689    -0.008112     1.467046
	   10 R(4,16)         =      1.480036    -0.056831    -0.008545     1.471491
	   11 R(8,12)         =      1.419738    -0.164565    -0.024353     1.395385
	   12 R(8,13)         =      1.418399    -0.170615    -0.024706     1.393693
	   13 R(9,10)         =      1.401089    -0.065304    -0.007141     1.393948
	   14 R(9,11)         =      1.401181    -0.075843    -0.007522     1.393660
	   15 R(9,28)         =      1.091776    -0.057924    -0.010130     1.081646
	   16 R(10,12)        =      1.401542    -0.078616    -0.010524     1.391017
	   17 R(10,17)        =      1.091479    -0.055466    -0.008253     1.083226
	   18 R(11,13)        =      1.402249    -0.078647    -0.010612     1.391638
	   19 R(11,18)        =      1.091584    -0.054693    -0.008956     1.082627
	   20 R(12,19)        =      1.091289    -0.069051    -0.011517     1.079771
	   21 R(13,20)        =      1.092072    -0.057330    -0.008611     1.083461
	   22 R(14,21)        =      1.090839    -0.022518    -0.003042     1.087796
	   23 R(14,22)        =      1.090047     0.014071     0.004157     1.094204
	   24 R(14,23)        =      1.090756    -0.003512    -0.000296     1.090459
	   25 R(15,24)        =      1.102565    -0.061924    -0.009808     1.092757
	   26 R(15,25)        =      1.103263    -0.003309     0.000680     1.103943
	   27 R(15,29)        =      1.102320    -0.070662    -0.011929     1.090390
	   28 R(16,26)        =      1.103022    -0.006277     0.000149     1.103171
	   29 R(16,27)        =      1.102264    -0.075180    -0.013263     1.089002
	   30 R(16,30)        =      1.102154    -0.067779    -0.011333     1.090820
	   31 B(1,2,3)        =    115.780357     0.000414    -0.176317   115.604040
	   32 B(1,2,5)        =    122.281027     0.000164     0.619928   122.900955
	   33 B(1,8,12)       =    121.325219     0.000346     0.219218   121.544437
	   34 B(1,8,13)       =    119.718739    -0.000620    -1.200178   118.518561
	   35 B(1,14,21)      =    111.006819    -0.000647    -2.959409   108.047409
	   36 B(1,14,22)      =    110.062200     0.000451     2.054844   112.117044
	   37 B(1,14,23)      =    110.819120    -0.000278    -1.217146   109.601974
	   38 B(2,1,8)        =    119.628073     0.000290     0.336647   119.964720
	   39 B(2,1,14)       =    122.642029    -0.000000    -0.802522   121.839507
	   40 B(2,3,4)        =    114.058135     0.000233    -1.432344   112.625791
	   41 B(2,3,6)        =    113.271905    -0.000323    -2.573727   110.698178
	   42 B(2,3,7)        =    108.225966    -0.000624    -2.395114   105.830852
	   43 B(3,2,5)        =    121.919732    -0.000583    -0.636720   121.283012
	   44 B(3,4,15)       =    111.697310    -0.000269    -0.751426   110.945883
	   45 B(3,4,16)       =    111.664440     0.000235     0.671654   112.336095
	   46 B(4,3,6)        =    109.511759    -0.000095    -0.971647   108.540112
	   47 B(4,3,7)        =    106.993956     0.000527     4.935604   111.929560
	   48 B(4,15,24)      =    109.511632     0.000068     0.505592   110.017224
	   49 B(4,15,25)      =    111.219706     0.000284     1.139735   112.359441
	   50 B(4,15,29)      =    109.633576    -0.000133    -0.724190   108.909386
	   51 B(4,16,26)      =    111.325661     0.000084     0.193441   111.519102
	   52 B(4,16,27)      =    109.644514     0.000098     0.626595   110.271109
	   53 B(4,16,30)      =    109.694472    -0.000132    -0.574601   109.119871
	   54 B(6,3,7)        =    104.098091     0.000332     2.978631   107.076722
	   55 B(8,1,14)       =    116.093861    -0.000252     1.324885   117.418746
	   56 B(8,12,10)      =    120.106698    -0.000015    -0.276451   119.830246
	   57 B(8,12,19)      =    120.128480    -0.000144    -0.391831   119.736649
	   58 B(8,13,11)      =    120.033422     0.000118     0.026606   120.060028
	   59 B(8,13,20)      =    120.324437    -0.000239    -0.729821   119.594616
	   60 B(9,10,12)      =    120.593315    -0.000079    -0.237081   120.356234
	   61 B(9,10,17)      =    120.010342     0.000048     0.217309   120.227651
	   62 B(9,11,13)      =    120.663792    -0.000179    -0.521786   120.142006
	   63 B(9,11,18)      =    120.034068     0.000086     0.327821   120.361890
	   64 B(10,9,11)      =    119.651642    -0.000118     0.026396   119.678038
	   65 B(10,9,28)      =    120.127621     0.000075    -0.002217   120.125403
	   66 B(10,12,19)     =    119.764350     0.000159     0.660892   120.425242
	   67 B(11,9,28)      =    120.220735     0.000043    -0.024660   120.196075
	   68 B(11,13,20)     =    119.642140     0.000121     0.703168   120.345308
	   69 B(12,8,13)      =    118.950857     0.000274     0.977681   119.928537
	   70 B(12,10,17)     =    119.396309     0.000031     0.019775   119.416085
	   71 B(13,11,18)     =    119.302012     0.000094     0.190111   119.492123
	   72 B(15,4,16)      =    110.145607     0.000074     1.102508   111.248115
	   73 B(21,14,22)     =    108.367844     0.000099     0.507711   108.875555
	   74 B(21,14,23)     =    107.274536     0.000408     1.397073   108.671609
	   75 B(22,14,23)     =    109.227662    -0.000023     0.227503   109.455165
	   76 B(24,15,25)     =    109.453422    -0.000160    -0.654654   108.798768
	   77 B(24,15,29)     =    107.466877     0.000070     0.407423   107.874301
	   78 B(25,15,29)     =    109.476922    -0.000136    -0.703968   108.772954
	   79 B(26,16,27)     =    108.714542    -0.000100    -0.482187   108.232355
	   80 B(26,16,30)     =    109.623760    -0.000043    -0.349516   109.274244
	   81 B(27,16,30)     =    107.761785     0.000093     0.600906   108.362691
	   82 *D(1,2,3,4)     =    -90.867404    -0.000000     0.000000   -90.867404
	   83 D(1,2,3,6)      =     35.302335    -0.000049    -4.452663    30.849672
	   84 D(1,2,3,7)      =    150.186334    -0.000087    -3.651565   146.534769
	   85 D(1,8,12,10)    =   -178.993246     0.000000     0.106673  -178.886574
	   86 D(1,8,12,19)    =      1.257404     0.000007     0.871636     2.129039
	   87 D(1,8,13,11)    =    179.053543    -0.000005    -0.731164   178.322379
	   88 D(1,8,13,20)    =     -0.960255    -0.000006    -0.796872    -1.757127
	   89 *D(2,1,8,12)    =    -54.400984     0.000000     0.000000   -54.400984
	   90 D(2,1,8,13)     =    126.436214    -0.000001     0.222335   126.658549
	   91 D(2,1,14,21)    =    153.163174     0.000011     0.931392   154.094566
	   92 D(2,1,14,22)    =    -86.863726     0.000012     0.938475   -85.925251
	   93 D(2,1,14,23)    =     34.063769     0.000032     1.771611    35.835380
	   94 *D(2,3,4,15)    =    166.530483     0.000000     0.000000   166.530483
	   95 D(2,3,4,16)     =    -69.627989     0.000016     1.384177   -68.243812
	   96 *D(3,2,1,8)     =   -175.083405    -0.000000     0.000000  -175.083405
	   97 D(3,2,1,14)     =     20.073100    -0.000031    -4.797760    15.275340
	   98 D(3,4,15,24)    =    -59.775428     0.000021     0.664451   -59.110976
	   99 D(3,4,15,25)    =     61.329820     0.000027     0.938564    62.268384
	  100 D(3,4,15,29)    =   -177.453906     0.000010     0.302358  -177.151548
	  101 D(3,4,16,26)    =    -64.125423     0.000007    -0.656261   -64.781684
	  102 D(3,4,16,27)    =     56.211302     0.000005    -0.718193    55.493108
	  103 D(3,4,16,30)    =    174.363117     0.000027     0.042737   174.405854
	  104 D(4,3,2,5)      =     90.679706     0.000053     3.595946    94.275652
	  105 D(5,2,1,8)      =      3.363352    -0.000056    -3.681962    -0.318610
	  106 D(5,2,1,14)     =   -161.480143    -0.000087    -8.479722  -169.959866
	  107 D(5,2,3,6)      =   -143.150555     0.000005    -0.856717  -144.007272
	  108 D(5,2,3,7)      =    -28.266557    -0.000033    -0.055619   -28.322176
	  109 D(6,3,4,15)     =     38.415608     0.000076     5.182018    43.597626
	  110 D(6,3,4,16)     =    162.257136     0.000092     6.566194   168.823330
	  111 D(7,3,4,15)     =    -73.826240    -0.000063    -0.539413   -74.365653
	  112 D(7,3,4,16)     =     50.015288    -0.000047     0.844764    50.860051
	  113 D(8,1,14,21)    =    -12.177833    -0.000036    -3.620438   -15.798271
	  114 D(8,1,14,22)    =    107.795267    -0.000035    -3.613355   104.181912
	  115 D(8,1,14,23)    =   -131.277238    -0.000015    -2.780219  -134.057457
	  116 D(8,12,10,9)    =     -0.075177     0.000005     0.485961     0.410784
	  117 D(8,12,10,17)   =    179.857521     0.000005     0.490160   180.347681
	  118 D(8,13,11,9)    =     -0.018871     0.000009     0.803556     0.784685
	  119 D(8,13,11,18)   =   -179.888901    -0.000000    -0.049507  -179.938408
	  120 D(9,10,12,19)   =    179.675089    -0.000003    -0.287014   179.388075
	  121 D(9,11,13,20)   =    179.994832     0.000009     0.869962   180.864794
	  122 D(10,9,11,13)   =      0.121756    -0.000005    -0.456867    -0.335111
	  123 D(10,9,11,18)   =    179.990837     0.000004     0.403493   180.394329
	  124 D(10,12,8,13)   =      0.175838    -0.000000    -0.136634     0.039204
	  125 D(11,9,10,12)   =     -0.074433    -0.000002    -0.189010    -0.263443
	  126 D(11,9,10,17)   =    179.993282    -0.000002    -0.193107   179.800175
	  127 D(11,13,8,12)   =     -0.129166    -0.000006    -0.506546    -0.635712
	  128 D(12,8,1,14)    =    111.408432     0.000036     4.281465   115.689897
	  129 D(12,8,13,20)   =    179.857036    -0.000007    -0.572254   179.284782
	  130 D(12,10,9,28)   =    179.943562     0.000000     0.045393   179.988956
	  131 D(13,8,1,14)    =    -67.754371     0.000035     4.503800   -63.250571
	  132 D(13,8,12,19)   =   -179.573512     0.000007     0.628329  -178.945183
	  133 D(13,11,9,28)   =   -179.896256    -0.000007    -0.691435  -180.587691
	  134 D(15,4,16,26)   =     60.586505    -0.000022    -0.308131    60.278374
	  135 D(15,4,16,27)   =   -179.076771    -0.000023    -0.370063  -179.446834
	  136 D(15,4,16,30)   =    -60.924956    -0.000002     0.390868   -60.534088
	  137 D(16,4,15,24)   =    175.531515    -0.000017    -0.477356   175.054159
	  138 D(16,4,15,25)   =    -63.363237    -0.000011    -0.203243   -63.566481
	  139 D(16,4,15,29)   =     57.853037    -0.000028    -0.839450    57.013587
	  140 D(17,10,9,28)   =      0.011277     0.000000     0.041297     0.052573
	  141 D(17,10,12,19)  =     -0.392213    -0.000003    -0.282815    -0.675028
	  142 D(18,11,9,28)   =     -0.027175     0.000002     0.168925     0.141750
	  143 D(18,11,13,20)  =      0.124802     0.000000     0.016899     0.141701
	  144 R(4,14)         =      3.389454    -0.069414    -0.072391     3.317063
	  145 R(5,12)         =      2.965031    -0.030521    -0.001436     2.963596
	  146 R(5,16)         =      3.317332    -0.025053    -0.028787     3.288546
	 ---------------------------------------------------------------------------
	Successfully symmetrized geometry.

  ==> Convergence Check <==

  Measures of convergence in internal coordinates in au.
  Criteria marked as inactive (o), active & met (*), and active & unmet ( ).
  --------------------------------------------------------------------------------------------- ~
   Step     Total Energy     Delta E     MAX Force     RMS Force      MAX Disp      RMS Disp    ~
  --------------------------------------------------------------------------------------------- ~
    Convergence Criteria             o    2.50e-03 *    1.70e-03 *    1.00e-02 *    6.70e-03 *  ~
  --------------------------------------------------------------------------------------------- ~
      1    -613.27738302   -6.13e+02 o    2.07e-02      5.02e-03      1.48e-01      3.33e-02    ~
  ---------------------------------------------------------------------------------------------

	Writing optimization data to binary file.
	Structure for next step:
	Cartesian Geometry (in Angstrom)
	    N    -0.1310809132   0.2766753408  -0.5413574065
	    C     0.9638959767   0.4852643144   0.2793967278
	    C     2.2822492580   0.7267912806  -0.4341454605
	    N     3.0340587979  -0.5199338241  -0.6751642908
	    O     0.8742425168   0.5720099524   1.5112173402
	    H     2.1170223685   1.2235935873  -1.3928154166
	    H     2.8456870762   1.4317918808   0.2038992341
	    C    -1.4398503273   0.1444539313   0.0301436305
	    C    -4.0223482849  -0.0946912558   1.0575063124
	    C    -2.9980854228  -0.9084811087   1.5388827643
	    C    -3.7499732131   0.8404904451   0.0607445825
	    C    -1.7100963643  -0.7949514359   1.0259261194
	    C    -2.4600631936   0.9657629992  -0.4462998697
	    C     0.0192320053  -0.0387272627  -1.9721468415
	    C     4.1254063166  -0.2979707838  -1.6301071830
	    C     3.5308505354  -1.1233044054   0.5716030004
	    H    -3.1991331781  -1.6360986187   2.3157557880
	    H    -4.5357095518   1.4825480546  -0.3166971052
	    H    -0.9137134134  -1.4179103302   1.4048754870
	    H    -2.2416575076   1.7012705542  -1.2112942300
	    H    -0.8612958894  -0.5931243979  -2.2893462999
	    H     0.1098056703   0.8628978851  -2.5854580575
	    H     0.8985485989  -0.6669551112  -2.1178642125
	    H     3.7240627894   0.0677397605  -2.5784202966
	    H     4.8699732213   0.4261707379  -1.2560354055
	    H     4.2730286465  -0.4748692030   1.0672737605
	    H     2.7073297650  -1.2899639208   1.2643964812
	    H    -5.0225635625  -0.1862504392   1.4589343971
	    H     4.6253903510  -1.2477181059  -1.8223235652
	    H     3.9891360244  -2.0867630271   0.3444227658
			--------------------------
			 OPTKING Finished Execution 
			--------------------------

    Structure for next step:
    Molecular point group: c1
    Full point group: C1

    Geometry (in Angstrom), charge = 0, multiplicity = 1:

    N           -0.144714201340     0.265349065450    -0.544195782889
    C            0.950262692852     0.473938039831     0.276558354562
    C            2.268615979318     0.715465006994    -0.436983836500
    N            3.020425522177    -0.531260102655    -0.678002667798
    O            0.860609232603     0.560683678166     1.508378971848
    H            2.103389089220     1.212267315644    -1.395653796408
    H            2.832053799749     1.420465609920     0.201060860652
    C           -1.453483620562     0.133127655393     0.027305256324
    C           -4.035981588306    -0.106017532632     1.054667942287
    C           -3.011718722227    -0.919807388777     1.536044396067
    C           -3.763606515434     0.829164171969     0.057906208468
    C           -1.723729658633    -0.806277715538     1.023087749101
    C           -2.473696490867     0.954436726513    -0.449138245730
    C            0.005598717760    -0.050053539354    -1.974985223598
    C            4.111773045218    -0.309297061441    -1.632945563723
    C            3.517217261668    -1.134630686288     0.568764628398
    H           -3.212766478247    -1.647424901645     2.312917422777
    H           -4.549342857290     1.471221783977    -0.319535480776
    H           -0.927346704604    -1.429236612258     1.402037118183
    H           -2.255290804077     1.689944284456    -1.214132609054
    H           -0.874929180451    -0.604450676752    -2.292184683222
    H            0.096172383132     0.851571611999    -2.588296441996
    H            0.884915314769    -0.678281390316    -2.120702595100
    H            3.710429516404     0.056413484315    -2.581258681026
    H            4.856339952814     0.414844463125    -1.258873784730
    H            4.259395375645    -0.486195481333     1.064435390360
    H            2.693696488041    -1.301290202325     1.261558111833
    H           -5.036196869872    -0.197576716387     1.456096028564
    H            4.611757081563    -1.259044387293    -1.825161946662
    H            3.975502752454    -2.098089311802     0.341584392867


Scratch directory: /scratch/bdw2292/Psi4-25_27_Index_0-farH_in17/

Scratch directory: /scratch/bdw2292/Psi4-25_27_Index_0-farH_in17/
gradient() will perform analytic gradient computation.

*** tstart() called on node74.bme.utexas.edu
*** at Wed Jun  8 13:18:10 2022

   => Loading Basis Set <=

    Name: 6-311G
    Role: ORBITAL
    Keyword: BASIS
    atoms 1, 4       entry N          line   109 file /home/bdw2292/miniconda3/envs/newamoebamdpoltype/share/psi4/basis/6-311g.gbs 
    atoms 2-3, 8-16  entry C          line    92 file /home/bdw2292/miniconda3/envs/newamoebamdpoltype/share/psi4/basis/6-311g.gbs 
    atoms 5          entry O          line   126 file /home/bdw2292/miniconda3/envs/newamoebamdpoltype/share/psi4/basis/6-311g.gbs 
    atoms 6-7, 17-30 entry H          line    21 file /home/bdw2292/miniconda3/envs/newamoebamdpoltype/share/psi4/basis/6-311g.gbs 

   => WB97X-D: Empirical Dispersion <=

    Chai and Head-Gordon Dispersion Correction
    Chai, J.-D.; Head-Gordon, M. (2010), J. Chem. Phys., 132: 6615-6620

        s6 =       1.000000


         ---------------------------------------------------------
                                   SCF
               by Justin Turney, Rob Parrish, Andy Simmonett
                          and Daniel G. A. Smith
                              RKS Reference
                        2 Threads,   7788 MiB Core
         ---------------------------------------------------------

  ==> Geometry <==

    Molecular point group: c1
    Full point group: C1

    Geometry (in Angstrom), charge = 0, multiplicity = 1:

       Center              X                  Y                   Z               Mass       
    ------------   -----------------  -----------------  -----------------  -----------------
         N           -0.144714201340     0.265349065450    -0.544195782889    14.003074004430
         C            0.950262692852     0.473938039831     0.276558354562    12.000000000000
         C            2.268615979318     0.715465006994    -0.436983836500    12.000000000000
         N            3.020425522177    -0.531260102655    -0.678002667798    14.003074004430
         O            0.860609232603     0.560683678166     1.508378971848    15.994914619570
         H            2.103389089220     1.212267315644    -1.395653796408     1.007825032230
         H            2.832053799749     1.420465609920     0.201060860652     1.007825032230
         C           -1.453483620562     0.133127655393     0.027305256324    12.000000000000
         C           -4.035981588306    -0.106017532632     1.054667942287    12.000000000000
         C           -3.011718722227    -0.919807388777     1.536044396067    12.000000000000
         C           -3.763606515434     0.829164171969     0.057906208468    12.000000000000
         C           -1.723729658633    -0.806277715538     1.023087749101    12.000000000000
         C           -2.473696490867     0.954436726513    -0.449138245730    12.000000000000
         C            0.005598717760    -0.050053539354    -1.974985223598    12.000000000000
         C            4.111773045218    -0.309297061441    -1.632945563723    12.000000000000
         C            3.517217261668    -1.134630686288     0.568764628398    12.000000000000
         H           -3.212766478247    -1.647424901645     2.312917422777     1.007825032230
         H           -4.549342857290     1.471221783977    -0.319535480776     1.007825032230
         H           -0.927346704604    -1.429236612258     1.402037118183     1.007825032230
         H           -2.255290804077     1.689944284456    -1.214132609054     1.007825032230
         H           -0.874929180451    -0.604450676752    -2.292184683222     1.007825032230
         H            0.096172383132     0.851571611999    -2.588296441996     1.007825032230
         H            0.884915314769    -0.678281390316    -2.120702595100     1.007825032230
         H            3.710429516404     0.056413484315    -2.581258681026     1.007825032230
         H            4.856339952814     0.414844463125    -1.258873784730     1.007825032230
         H            4.259395375645    -0.486195481333     1.064435390360     1.007825032230
         H            2.693696488041    -1.301290202325     1.261558111833     1.007825032230
         H           -5.036196869872    -0.197576716387     1.456096028564     1.007825032230
         H            4.611757081563    -1.259044387293    -1.825161946662     1.007825032230
         H            3.975502752454    -2.098089311802     0.341584392867     1.007825032230

  Running in c1 symmetry.

  Rotational constants: A =      0.05933  B =      0.01146  C =      0.01051 [cm^-1]
  Rotational constants: A =   1778.54531  B =    343.54438  C =    314.96452 [MHz]
  Nuclear repulsion =  888.120428962589585

  Charge       = 0
  Multiplicity = 1
  Electrons    = 104
  Nalpha       = 52
  Nbeta        = 52

  ==> Algorithm <==

  SCF Algorithm Type is DF.
  DIIS enabled.
  MOM disabled.
  Fractional occupation disabled.
  Guess Type is READ.
  Energy threshold   = 1.00e-08
  Density threshold  = 1.00e-08
  Integral threshold = 1.00e-12

  ==> Primary Basis <==

  Basis Set: 6-311G
    Blend: 6-311G
    Number of shells: 146
    Number of basis functions: 230
    Number of Cartesian functions: 230
    Spherical Harmonics?: true
    Max angular momentum: 1

  ==> DFT Potential <==

   => LibXC <=

    Version 5.1.5
    S. Lehtola, C. Steigemann, M. J. Oliveira, and M. A. Marques, SoftwareX 7, 1 (2018) (10.1016/j.softx.2017.11.002)

   => Composite Functional: WB97X-D <= 

    wB97X-D Hyb-GGA Exchange-Correlation Functional

    J.-D. Chai and M. Head-Gordon, Phys. Chem. Chem. Phys. 10, 6615 (2008) (10.1039/B810189B)

    Deriv               =              1
    GGA                 =           TRUE
    Meta                =          FALSE

    Exchange Hybrid     =           TRUE
    MP2 Hybrid          =          FALSE

   => Exchange-Correlation Functionals <=

    1.0000   wB97X-D range-separated functional

   => Exact (HF) Exchange <=

    0.7780            HF,LR [omega = 0.2000]
    0.2220               HF 

   => LibXC Density Thresholds  <==

    XC_HYB_GGA_XC_WB97X_D:  1.00E-14 

   => Molecular Quadrature <=

    Radial Scheme          =       TREUTLER
    Pruning Scheme         =           NONE
    Nuclear Scheme         =       TREUTLER

    BS radius alpha        =              1
    Pruning alpha          =              1
    Radial Points          =             75
    Spherical Points       =            302
    Total Points           =         622925
    Total Blocks           =           4487
    Max Points             =            256
    Max Functions          =            186
    Weights Tolerance      =       1.00E-15

   => Loading Basis Set <=

    Name: (6-311G AUX)
    Role: JKFIT
    Keyword: DF_BASIS_SCF
    atoms 1, 4       entry N          line   177 file /home/bdw2292/miniconda3/envs/newamoebamdpoltype/share/psi4/basis/cc-pvtz-jkfit.gbs 
    atoms 2-3, 8-16  entry C          line   125 file /home/bdw2292/miniconda3/envs/newamoebamdpoltype/share/psi4/basis/cc-pvtz-jkfit.gbs 
    atoms 5          entry O          line   229 file /home/bdw2292/miniconda3/envs/newamoebamdpoltype/share/psi4/basis/cc-pvtz-jkfit.gbs 
    atoms 6-7, 17-30 entry H          line    51 file /home/bdw2292/miniconda3/envs/newamoebamdpoltype/share/psi4/basis/cc-pvtz-jkfit.gbs 

   => Loading Basis Set <=

    Name: 6-311G
    Role: ORBITAL
    Keyword: BASIS
    atoms 1, 4       entry N          line   109 file /home/bdw2292/miniconda3/envs/newamoebamdpoltype/share/psi4/basis/6-311g.gbs 
    atoms 2-3, 8-16  entry C          line    92 file /home/bdw2292/miniconda3/envs/newamoebamdpoltype/share/psi4/basis/6-311g.gbs 
    atoms 5          entry O          line   126 file /home/bdw2292/miniconda3/envs/newamoebamdpoltype/share/psi4/basis/6-311g.gbs 
    atoms 6-7, 17-30 entry H          line    21 file /home/bdw2292/miniconda3/envs/newamoebamdpoltype/share/psi4/basis/6-311g.gbs 

  Reading orbitals from file /scratch/bdw2292/Psi4-25_27_Index_0-farH_in17/25_27_Index_0-opt-1_2-3-269.default.1115178.180.npy, no projection.

  ==> Integral Setup <==

  DFHelper Memory: AOs need 1.549 GiB; user supplied 3.499 GiB. Using in-core AOs.

  ==> MemDFJK: Density-Fitted J/K Matrices <==

    J tasked:                   Yes
    K tasked:                   Yes
    wK tasked:                  Yes
    Omega:                2.000E-01
    OpenMP threads:               2
    Memory [MiB]:              3583
    Algorithm:                 Core
    Schwarz Cutoff:           1E-12
    Mask sparsity (%):      19.0095
    Fitting Condition:        1E-10

   => Auxiliary Basis Set <=

  Basis Set: (6-311G AUX)
    Blend: CC-PVTZ-JKFIT
    Number of shells: 510
    Number of basis functions: 1586
    Number of Cartesian functions: 1904
    Spherical Harmonics?: true
    Max angular momentum: 4

  Cached 100.0% of DFT collocation blocks in 2.205 [GiB].

  Minimum eigenvalue in the overlap matrix is 2.4372305041E-04.
  Reciprocal condition number of the overlap matrix is 3.3824150690E-05.
    Using symmetric orthogonalization.

  ==> Pre-Iterations <==

  SCF Guess: Orbitals guess was supplied from a previous computation.

   -------------------------------------------------------
    Irrep   Nso     Nmo     Nalpha   Nbeta   Ndocc  Nsocc
   -------------------------------------------------------
     A        230     230      52      52      52       0
   -------------------------------------------------------
    Total     230     230      52      52      52       0
   -------------------------------------------------------

  ==> Iterations <==

                           Total Energy        Delta E     RMS |[F,P]|

   @DF-RKS iter   0:  -613.31424091446900   -6.13314e+02   2.01547e-03 
   @DF-RKS iter   1:  -613.28066888603962    3.35720e-02   3.04035e-04 DIIS
   @DF-RKS iter   2:  -613.28363449781830   -2.96561e-03   2.95571e-04 DIIS
   @DF-RKS iter   3:  -613.28521540253257   -1.58090e-03   9.77799e-05 DIIS
   @DF-RKS iter   4:  -613.28546724573357   -2.51843e-04   3.78654e-05 DIIS
   @DF-RKS iter   5:  -613.28551355487116   -4.63091e-05   6.36776e-06 DIIS
   @DF-RKS iter   6:  -613.28551507129237   -1.51642e-06   3.11002e-06 DIIS
   @DF-RKS iter   7:  -613.28551540043713   -3.29145e-07   9.05342e-07 DIIS
   @DF-RKS iter   8:  -613.28551543399658   -3.35594e-08   3.31552e-07 DIIS
   @DF-RKS iter   9:  -613.28551543839353   -4.39695e-09   7.16251e-08 DIIS
   @DF-RKS iter  10:  -613.28551543877438   -3.80851e-10   4.04529e-08 DIIS
   @DF-RKS iter  11:  -613.28551543888045   -1.06070e-10   1.30947e-08 DIIS
   @DF-RKS iter  12:  -613.28551543889387   -1.34150e-11   5.63670e-09 DIIS
  Energy and wave function converged.


  ==> Post-Iterations <==

   Electrons on quadrature grid:
      Ntotal   =  104.0000215841 ; deviation = 2.158e-05 

    Orbital Energies [Eh]
    ---------------------

    Doubly Occupied:                                                      

       1A    -19.212251     2A    -14.472875     3A    -14.440593  
       4A    -10.397986     5A    -10.334255     6A    -10.322564  
       7A    -10.321461     8A    -10.309021     9A    -10.298909  
      10A    -10.294383    11A    -10.293809    12A    -10.292383  
      13A    -10.291525    14A    -10.290826    15A     -1.152418  
      16A     -1.050600    17A     -1.033590    18A     -0.962419  
      19A     -0.865855    20A     -0.856322    21A     -0.834610  
      22A     -0.812585    23A     -0.806708    24A     -0.731980  
      25A     -0.711999    26A     -0.697861    27A     -0.653958  
      28A     -0.605126    29A     -0.598552    30A     -0.581987  
      31A     -0.576068    32A     -0.558404    33A     -0.557908  
      34A     -0.533631    35A     -0.530475    36A     -0.519405  
      37A     -0.512698    38A     -0.494078    39A     -0.492452  
      40A     -0.485696    41A     -0.476354    42A     -0.463534  
      43A     -0.460582    44A     -0.455681    45A     -0.448409  
      46A     -0.440701    47A     -0.434099    48A     -0.352155  
      49A     -0.340464    50A     -0.328492    51A     -0.305763  
      52A     -0.298319  

    Virtual:                                                              

      53A      0.055743    54A      0.064688    55A      0.084162  
      56A      0.110745    57A      0.127793    58A      0.138160  
      59A      0.157679    60A      0.160498    61A      0.165149  
      62A      0.171740    63A      0.175292    64A      0.182612  
      65A      0.192913    66A      0.196114    67A      0.203477  
      68A      0.211283    69A      0.217383    70A      0.227463  
      71A      0.232254    72A      0.241628    73A      0.248327  
      74A      0.264595    75A      0.282949    76A      0.303753  
      77A      0.311275    78A      0.321998    79A      0.349929  
      80A      0.351852    81A      0.363102    82A      0.373629  
      83A      0.375729    84A      0.384984    85A      0.389313  
      86A      0.415654    87A      0.425325    88A      0.441378  
      89A      0.455278    90A      0.463723    91A      0.468397  
      92A      0.480937    93A      0.488410    94A      0.491239  
      95A      0.496382    96A      0.513549    97A      0.521849  
      98A      0.533233    99A      0.543631   100A      0.549320  
     101A      0.550166   102A      0.553122   103A      0.558154  
     104A      0.584344   105A      0.592738   106A      0.612457  
     107A      0.616890   108A      0.622755   109A      0.629711  
     110A      0.643423   111A      0.652226   112A      0.654784  
     113A      0.658885   114A      0.671670   115A      0.678166  
     116A      0.680511   117A      0.685463   118A      0.691662  
     119A      0.694865   120A      0.699679   121A      0.711219  
     122A      0.712166   123A      0.715294   124A      0.728665  
     125A      0.746591   126A      0.751271   127A      0.754523  
     128A      0.771749   129A      0.774276   130A      0.784104  
     131A      0.823945   132A      0.840231   133A      0.856672  
     134A      0.866361   135A      0.880632   136A      0.894809  
     137A      0.908406   138A      0.911311   139A      0.924954  
     140A      0.950468   141A      0.962136   142A      0.982583  
     143A      1.013239   144A      1.015565   145A      1.037936  
     146A      1.061289   147A      1.091295   148A      1.104553  
     149A      1.129479   150A      1.157786   151A      1.172251  
     152A      1.223192   153A      1.280202   154A      1.324436  
     155A      1.381376   156A      1.474034   157A      1.557089  
     158A      1.765389   159A      2.287148   160A      2.305351  
     161A      2.321028   162A      2.343461   163A      2.352574  
     164A      2.363260   165A      2.367457   166A      2.376860  
     167A      2.381328   168A      2.394455   169A      2.416379  
     170A      2.426705   171A      2.444669   172A      2.457321  
     173A      2.471468   174A      2.637007   175A      2.641554  
     176A      2.673229   177A      2.704341   178A      2.713573  
     179A      2.769617   180A      2.779402   181A      2.846498  
     182A      2.851489   183A      2.890064   184A      2.908389  
     185A      2.923977   186A      2.937478   187A      2.960004  
     188A      2.986242   189A      2.994005   190A      3.012776  
     191A      3.027647   192A      3.036854   193A      3.083064  
     194A      3.085205   195A      3.122044   196A      3.130747  
     197A      3.153833   198A      3.169404   199A      3.187900  
     200A      3.224270   201A      3.253773   202A      3.288276  
     203A      3.312592   204A      3.336643   205A      3.379566  
     206A      3.395960   207A      3.523580   208A      3.938429  
     209A      3.955212   210A      4.087539   211A      4.111596  
     212A      4.142305   213A      4.274665   214A      5.014605  
     215A      5.076554   216A      5.113815   217A     23.246012  
     218A     23.454963   219A     23.483794   220A     23.496767  
     221A     23.529690   222A     23.585688   223A     23.589650  
     224A     23.695742   225A     23.736874   226A     23.765817  
     227A     24.020462   228A     35.534428   229A     35.577665  
     230A     50.062378  

    Final Occupation by Irrep:
              A 
    DOCC [    52 ]

  @DF-RKS Final Energy:  -613.28551543889387

   => Energetics <=

    Nuclear Repulsion Energy =            888.1204289625895854
    One-Electron Energy =               -2592.5736887147718335
    Two-Electron Energy =                1151.6916343236605371
    DFT Exchange-Correlation Energy =     -60.5035044757187066
    Empirical Dispersion Energy =          -0.0203855346535768
    VV10 Nonlocal Energy =                  0.0000000000000000
    Total Energy =                       -613.2855154388939809

Computation Completed


Properties will be evaluated at   0.000000,   0.000000,   0.000000 [a0]

Properties computed using the SCF density matrix

  Nuclear Dipole Moment: [e a0]
     X:    12.3402      Y:    -2.4198      Z:    -7.0728

  Electronic Dipole Moment: [e a0]
     X:   -12.1891      Y:     2.2410      Z:     5.7013

  Dipole Moment: [e a0]
     X:     0.1510      Y:    -0.1788      Z:    -1.3715     Total:     1.3913

  Dipole Moment: [D]
     X:     0.3839      Y:    -0.4544      Z:    -3.4860     Total:     3.5364


*** tstop() called on node74.bme.utexas.edu at Wed Jun  8 13:19:16 2022
Module time:
	user time   =     124.70 seconds =       2.08 minutes
	system time =       4.73 seconds =       0.08 minutes
	total time  =         66 seconds =       1.10 minutes
Total time:
	user time   =     320.90 seconds =       5.35 minutes
	system time =      11.87 seconds =       0.20 minutes
	total time  =        170 seconds =       2.83 minutes

*** tstart() called on node74.bme.utexas.edu
*** at Wed Jun  8 13:19:16 2022


         ------------------------------------------------------------
                                   SCF GRAD                          
                          Rob Parrish, Justin Turney,                
                       Andy Simmonett, and Alex Sokolov              
         ------------------------------------------------------------

  ==> Geometry <==

    Molecular point group: c1
    Full point group: C1

    Geometry (in Angstrom), charge = 0, multiplicity = 1:

       Center              X                  Y                   Z               Mass       
    ------------   -----------------  -----------------  -----------------  -----------------
         N           -0.144714201340     0.265349065450    -0.544195782889    14.003074004430
         C            0.950262692852     0.473938039831     0.276558354562    12.000000000000
         C            2.268615979318     0.715465006994    -0.436983836500    12.000000000000
         N            3.020425522177    -0.531260102655    -0.678002667798    14.003074004430
         O            0.860609232603     0.560683678166     1.508378971848    15.994914619570
         H            2.103389089220     1.212267315644    -1.395653796408     1.007825032230
         H            2.832053799749     1.420465609920     0.201060860652     1.007825032230
         C           -1.453483620562     0.133127655393     0.027305256324    12.000000000000
         C           -4.035981588306    -0.106017532632     1.054667942287    12.000000000000
         C           -3.011718722227    -0.919807388777     1.536044396067    12.000000000000
         C           -3.763606515434     0.829164171969     0.057906208468    12.000000000000
         C           -1.723729658633    -0.806277715538     1.023087749101    12.000000000000
         C           -2.473696490867     0.954436726513    -0.449138245730    12.000000000000
         C            0.005598717760    -0.050053539354    -1.974985223598    12.000000000000
         C            4.111773045218    -0.309297061441    -1.632945563723    12.000000000000
         C            3.517217261668    -1.134630686288     0.568764628398    12.000000000000
         H           -3.212766478247    -1.647424901645     2.312917422777     1.007825032230
[...]
	 D(10,9,11,18)    =        -3.135065	    -179.625994
	 D(10,12,8,13)    =        -0.008937	      -0.512033
	 D(11,9,10,12)    =        -0.005670	      -0.324847
	 D(11,9,10,17)    =         3.138736	     179.836310
	 D(11,13,8,12)    =        -0.001826	      -0.104620
	 D(12,8,1,14)     =         2.106247	     120.679048
	 D(12,8,13,20)    =         3.129466	     179.305194
	 D(12,10,9,28)    =         3.139472	     179.878519
	 D(13,8,1,14)     =        -0.996537	     -57.097346
	 D(13,8,12,19)    =        -3.126194	    -179.117730
	 D(13,11,9,28)    =         3.132868	     179.500120
	 D(15,4,16,26)    =         1.073799	      61.524149
	 D(15,4,16,27)    =        -3.113179	    -178.372042
	 D(15,4,16,30)    =        -1.026435	     -58.810412
	 D(16,4,15,24)    =         3.044658	     174.446044
	 D(16,4,15,25)    =        -1.125497	     -64.486247
	 D(16,4,15,29)    =         0.974700	      55.846220
	 D(17,10,9,28)    =         0.000692	       0.039676
	 D(17,10,12,19)   =        -0.014702	      -0.842383
	 D(18,11,9,28)    =         0.002978	       0.170640
	 D(18,11,13,20)   =         0.007669	       0.439383
	 R(4,14)          =         6.330687	       3.350055
	 R(5,12)          =         5.573546	       2.949394
	 R(5,16)          =         6.029067	       3.190445

	Current energy   :      -613.2864640379

	Energy change for the previous step:
		Projected    :        -0.0000042783
		Actual       :        -0.0000111338

	Performing BFGS update.
	Previous computed or guess Hessian on step 1.
	Steps to be used in Hessian update: 2 1
	Taking RFO optimization step.
	Going to follow RFO solution 1.
	Using RFO vector 1.
	Norm of target step-size    0.01318
	Projected energy change by RFO approximation:        -0.0000026025

	Back-transformation to cartesian coordinates...
	Successfully converged to displaced geometry.

	Back-transformation to cartesian coordinates to adjust frozen coordinates...
	Successfully converged to displaced geometry.

	--- Internal Coordinate Step in ANG or DEG, aJ/ANG or AJ/DEG ---
	 ---------------------------------------------------------------------------
	   Coordinate                Previous        Force       Change         New 
	   ----------                --------       ------       ------       ------
	    1 R(1,2)          =      1.372934     0.000184     0.000008     1.372942
	    2 R(1,8)          =      1.434356     0.000501     0.000073     1.434429
	    3 R(1,14)         =      1.469170     0.000291     0.000045     1.469215
	    4 R(2,3)          =      1.519142     0.000427     0.000103     1.519245
	    5 R(2,5)          =      1.245367     0.000707     0.000044     1.245412
	    6 R(3,4)          =      1.467364     0.000557     0.000114     1.467478
	    7 R(3,6)          =      1.088428    -0.000318    -0.000045     1.088384
	    8 R(3,7)          =      1.100875    -0.000421    -0.000048     1.100827
	    9 R(4,15)         =      1.461897    -0.000538    -0.000069     1.461828
	   10 R(4,16)         =      1.464205     0.000049     0.000015     1.464219
	   11 R(8,12)         =      1.394367     0.000693     0.000077     1.394444
	   12 R(8,13)         =      1.395271     0.000585     0.000069     1.395341
	   13 R(9,10)         =      1.393949     0.000487     0.000050     1.393999
	   14 R(9,11)         =      1.393006     0.000172     0.000017     1.393023
	   15 R(9,28)         =      1.081323     0.000051     0.000007     1.081330
	   16 R(10,12)        =      1.392055     0.000201     0.000023     1.392078
	   17 R(10,17)        =      1.081410    -0.000066    -0.000009     1.081401
	   18 R(11,13)        =      1.392220     0.000660     0.000068     1.392287
	   19 R(11,18)        =      1.081507     0.000034     0.000005     1.081512
	   20 R(12,19)        =      1.078511     0.000141     0.000014     1.078525
	   21 R(13,20)        =      1.081854    -0.000022    -0.000002     1.081852
	   22 R(14,21)        =      1.086840     0.002063     0.000272     1.087112
	   23 R(14,22)        =      1.092652     0.001390     0.000186     1.092838
	   24 R(14,23)        =      1.088396     0.002375     0.000326     1.088722
	   25 R(15,24)        =      1.090697    -0.000042    -0.000007     1.090690
	   26 R(15,25)        =      1.103753    -0.000086    -0.000013     1.103740
	   27 R(15,29)        =      1.089697     0.000260     0.000038     1.089736
	   28 R(16,26)        =      1.102928     0.000313     0.000045     1.102973
	   29 R(16,27)        =      1.086659     0.000220     0.000026     1.086685
	   30 R(16,30)        =      1.089641     0.000490     0.000070     1.089711
	   31 B(1,2,3)        =    116.946247    -0.000000    -0.012602   116.933644
	   32 B(1,2,5)        =    122.657023     0.000001     0.005001   122.662024
	   33 B(1,8,12)       =    121.320529    -0.000002    -0.001864   121.318665
	   34 B(1,8,13)       =    118.691670     0.000004     0.009319   118.700988
	   35 B(1,14,21)      =    108.357735     0.000004     0.019733   108.377467
	   36 B(1,14,22)      =    112.287893    -0.000006    -0.023004   112.264889
	   37 B(1,14,23)      =    109.627326     0.000001     0.001062   109.628388
	   38 B(2,1,8)        =    120.714550    -0.000001     0.005279   120.719829
	   39 B(2,1,14)       =    121.630954    -0.000003    -0.013581   121.617374
	   40 B(2,3,4)        =    111.266708    -0.000001     0.013688   111.280397
	   41 B(2,3,6)        =    111.479182    -0.000001    -0.001036   111.478146
	   42 B(2,3,7)        =    106.021152     0.000004     0.013235   106.034387
	   43 B(3,2,5)        =    120.369120    -0.000000     0.012826   120.381946
	   44 B(3,4,15)       =    112.065805     0.000005     0.017712   112.083518
	   45 B(3,4,16)       =    113.443631     0.000001     0.031798   113.475428
	   46 B(4,3,6)        =    108.595246     0.000002    -0.001250   108.593996
	   47 B(4,3,7)        =    111.675750    -0.000005    -0.026833   111.648916
	   48 B(4,15,24)      =    110.027240    -0.000004    -0.011596   110.015645
	   49 B(4,15,25)      =    112.549040    -0.000002    -0.007883   112.541157
	   50 B(4,15,29)      =    109.438640     0.000001     0.004820   109.443460
	   51 B(4,16,26)      =    111.830573     0.000001     0.000453   111.831026
	   52 B(4,16,27)      =    110.491450    -0.000007    -0.026162   110.465287
	   53 B(4,16,30)      =    109.122170     0.000003     0.012323   109.134493
	   54 B(6,3,7)        =    107.757931     0.000001     0.001611   107.759542
	   55 B(8,1,14)       =    117.465167     0.000005     0.017245   117.482412
	   56 B(8,12,10)      =    119.673135     0.000001     0.001895   119.675031
	   57 B(8,12,19)      =    119.578178     0.000000     0.000997   119.579175
	   58 B(8,13,11)      =    120.146426     0.000000     0.001844   120.148270
	   59 B(8,13,20)      =    119.444741     0.000001     0.004768   119.449509
	   60 B(9,10,12)      =    120.508864     0.000001     0.001576   120.510441
	   61 B(9,10,17)      =    119.988875    -0.000000    -0.000204   119.988670
	   62 B(9,11,13)      =    120.028651     0.000000     0.000288   120.028939
	   63 B(9,11,18)      =    120.235882    -0.000000     0.000121   120.236003
	   64 B(10,9,11)      =    119.687781     0.000000    -0.000841   119.686939
	   65 B(10,9,28)      =    120.155964     0.000000     0.000623   120.156588
	   66 B(10,12,19)     =    120.733772    -0.000001    -0.002298   120.731474
	   67 B(11,9,28)      =    120.155941    -0.000000     0.000142   120.156084
	   68 B(11,13,20)     =    120.406179    -0.000002    -0.006466   120.399713
	   69 B(12,8,13)      =    119.950481    -0.000002    -0.004526   119.945955
	   70 B(12,10,17)     =    119.502067    -0.000000    -0.001391   119.500676
	   71 B(13,11,18)     =    119.732087    -0.000000    -0.000237   119.731851
	   72 B(15,4,16)      =    112.119809    -0.000005    -0.022589   112.097219
	   73 B(21,14,22)     =    108.500106     0.000001     0.004338   108.504443
	   74 B(21,14,23)     =    108.278154    -0.000000     0.007948   108.286101
	   75 B(22,14,23)     =    109.692488     0.000001    -0.008624   109.683863
	   76 B(24,15,25)     =    108.448509     0.000002     0.006804   108.455313
	   77 B(24,15,29)     =    108.067350     0.000002     0.007688   108.075038
	   78 B(25,15,29)     =    108.192102     0.000000     0.001008   108.193110
	   79 B(26,16,27)     =    107.816002     0.000002     0.005577   107.821579
	   80 B(26,16,30)     =    108.732173    -0.000001     0.001629   108.733803
	   81 B(27,16,30)     =    108.781834     0.000002     0.006611   108.788445
	   82 *D(1,2,3,4)     =    -90.867404    -0.000000    -0.000000   -90.867404
	   83 D(1,2,3,6)      =     30.523415     0.000000     0.007240    30.530655
	   84 D(1,2,3,7)      =    147.523528     0.000001     0.016407   147.539935
	   85 D(1,8,12,10)    =   -178.260803    -0.000000    -0.021732  -178.282535
	   86 D(1,8,12,19)    =      3.133499    -0.000000    -0.049774     3.083725
	   87 D(1,8,13,11)    =    177.703060     0.000000     0.024184   177.727243
	   88 D(1,8,13,20)    =     -2.887126     0.000000     0.040546    -2.846580
	   89 *D(2,1,8,12)    =    -54.400984    -0.000000    -0.000000   -54.400984
	   90 D(2,1,8,13)     =    127.822621    -0.000000    -0.088875   127.733746
	   91 D(2,1,14,21)    =    155.316175     0.000000    -0.058525   155.257650
	   92 D(2,1,14,22)    =    -84.860414     0.000000    -0.054259   -84.914673
	   93 D(2,1,14,23)    =     37.335634    -0.000000    -0.080138    37.255496
	   94 *D(2,3,4,15)    =    166.530483     0.000000    -0.000000   166.530483
	   95 D(2,3,4,16)     =    -65.252232    -0.000000     0.011387   -65.240845
	   96 *D(3,2,1,8)     =   -175.083405     0.000000    -0.000000  -175.083405
	   97 D(3,2,1,14)     =     10.044248    -0.000001    -0.123165     9.921083
	   98 D(3,4,15,24)    =    -56.639328     0.000000    -0.058603   -56.697931
	   99 D(3,4,15,25)    =     64.428382     0.000000    -0.063411    64.364971
	  100 D(3,4,15,29)    =   -175.239151     0.000000    -0.063961  -175.303113
	  101 D(3,4,16,26)    =    -66.665282    -0.000000     0.167257   -66.498025
	  102 D(3,4,16,27)    =     53.438526    -0.000000     0.156837    53.595363
	  103 D(3,4,16,30)    =    173.000156    -0.000000     0.156708   173.156864
	  104 D(4,3,2,5)      =     90.993548    -0.000002    -0.185339    90.808209
	  105 D(5,2,1,8)      =      3.009495     0.000002     0.190067     3.199562
	  106 D(5,2,1,14)     =   -171.862853     0.000001     0.066902  -171.795950
	  107 D(5,2,3,6)      =   -147.615633    -0.000001    -0.178099  -147.793732
	  108 D(5,2,3,7)      =    -30.615520    -0.000001    -0.168932   -30.784452
	  109 D(6,3,4,15)     =     43.470849    -0.000000    -0.006807    43.464041
	  110 D(6,3,4,16)     =    171.688133    -0.000000     0.004579   171.692712
	  111 D(7,3,4,15)     =    -75.214824     0.000000     0.008123   -75.206701
	  112 D(7,3,4,16)     =     53.002460    -0.000000     0.019510    53.021970
	  113 D(8,1,14,21)    =    -19.715899    -0.000000    -0.177340   -19.893240
	  114 D(8,1,14,22)    =    100.107512    -0.000000    -0.173074    99.934438
	  115 D(8,1,14,23)    =   -137.696440    -0.000001    -0.198953  -137.895393
	  116 D(8,12,10,9)    =      0.728734    -0.000000    -0.025696     0.703039
	  117 D(8,12,10,17)   =   -179.431642    -0.000000    -0.033279  -179.464921
	  118 D(8,13,11,9)    =      0.510595     0.000000     0.015149     0.525744
	  119 D(8,13,11,18)   =    179.843468     0.000000     0.032418   179.875886
	  120 D(9,10,12,19)   =    179.317993     0.000000     0.002724   179.320717
	  121 D(9,11,13,20)   =   -178.893491    -0.000000    -0.001438  -178.894929
	  122 D(10,9,11,13)   =     -0.296514     0.000000     0.027722    -0.268792
	  123 D(10,9,11,18)   =   -179.625994     0.000000     0.010367  -179.615627
	  124 D(10,12,8,13)   =     -0.512033     0.000000     0.068539    -0.443494
	  125 D(11,9,10,12)   =     -0.324847    -0.000000    -0.022454    -0.347301
	  126 D(11,9,10,17)   =    179.836310    -0.000000    -0.014832   179.821478
	  127 D(11,13,8,12)   =     -0.104620    -0.000000    -0.063494    -0.168114
	  128 D(12,8,1,14)    =    120.679048     0.000000     0.116697   120.795745
	  129 D(12,8,13,20)   =    179.305194    -0.000000    -0.047132   179.258063
	  130 D(12,10,9,28)   =    179.878519    -0.000000     0.000792   179.879311
	  131 D(13,8,1,14)    =    -57.097346     0.000000     0.027822   -57.069525
	  132 D(13,8,12,19)   =   -179.117730     0.000000     0.040497  -179.077233
	  133 D(13,11,9,28)   =    179.500120     0.000000     0.004477   179.504597
	  134 D(15,4,16,26)   =     61.524149     0.000001     0.199436    61.723585
	  135 D(15,4,16,27)   =   -178.372042     0.000001     0.189017  -178.183026
	  136 D(15,4,16,30)   =    -58.810412     0.000001     0.188888   -58.621525
	  137 D(16,4,15,24)   =    174.446044    -0.000000    -0.098143   174.347900
	  138 D(16,4,15,25)   =    -64.486247    -0.000000    -0.102951   -64.589197
	  139 D(16,4,15,29)   =     55.846220    -0.000000    -0.103501    55.742719
	  140 D(17,10,9,28)   =      0.039676     0.000000     0.008414     0.048090
	  141 D(17,10,12,19)  =     -0.842383    -0.000000    -0.004859    -0.847242
	  142 D(18,11,9,28)   =      0.170640    -0.000000    -0.012878     0.157762
	  143 D(18,11,13,20)  =      0.439383     0.000000     0.015831     0.455214
	  144 R(4,14)         =      3.350055    -0.000045     0.000462     3.350518
	  145 R(5,12)         =      2.949394    -0.000147    -0.000674     2.948720
	  146 R(5,16)         =      3.190445     0.000332    -0.001005     3.189440
	 ---------------------------------------------------------------------------
	Successfully symmetrized geometry.

  ==> Convergence Check <==

  Measures of convergence in internal coordinates in au.
  Criteria marked as inactive (o), active & met (*), and active & unmet ( ).
  ---------------------------------------------------------------------------------------------
   Step     Total Energy     Delta E     MAX Force     RMS Force      MAX Disp      RMS Disp   
  ---------------------------------------------------------------------------------------------
    Convergence Criteria             o    2.50e-03 *    1.70e-03 *    1.00e-02 *    6.70e-03 *
  ---------------------------------------------------------------------------------------------
      3    -613.28646404   -1.11e-05 o    2.88e-04 *    4.82e-05 *    3.48e-03 *    1.09e-03 *  ~
  ---------------------------------------------------------------------------------------------


  **** Optimization is complete! (in 3 steps) ****

  ==> Optimization Summary <==

  Measures of convergence in internal coordinates in au.
  --------------------------------------------------------------------------------------------------------------- ~
   Step         Total Energy             Delta E       MAX Force       RMS Force        MAX Disp        RMS Disp  ~
  --------------------------------------------------------------------------------------------------------------- ~
      1    -613.286441792210   -613.286441792210      0.00173708      0.00025384      0.01982297      0.00549331  ~
      2    -613.286452904128     -0.000011111918      0.00038221      0.00008315      0.01326268      0.00270843  ~
      3    -613.286464037899     -0.000011133772      0.00028827      0.00004819      0.00348082      0.00109101  ~
  --------------------------------------------------------------------------------------------------------------- ~

	Writing optimization data to binary file.
	Final energy is   -613.2864640378991
	Final (previous) structure:
	Cartesian Geometry (in Angstrom)
	    N    -0.1284838494   0.2622978304  -0.5496759282
	    C     0.9408955306   0.5192494044   0.2721221041
	    C     2.2780787961   0.7809084388  -0.3996417395
	    N     3.0404531384  -0.4612985318  -0.5695364125
	    O     0.8372348906   0.5763459088   1.5118535625
	    H     2.1496886593   1.2455664771  -1.3754927949
	    H     2.8076003806   1.4978233671   0.2465516902
	    C    -1.4478461904   0.1079852821  -0.0085215942
	    C    -4.0531358468  -0.2049831914   0.9396333573
	    C    -3.0134273572  -0.9617620293   1.4775791566
	    C    -3.7864728113   0.7099830416  -0.0763361978
	    C    -1.7131792149  -0.8147091750   1.0026622259
	    C    -2.4856688306   0.8701397100  -0.5459476691
	    C     0.0454069092   0.0256589083  -1.9891987598
	    C     4.1703218247  -0.2918666453  -1.4815854642
	    C     3.4418274013  -1.0763252518   0.6971663281
	    H    -3.2144980755  -1.6715718906   2.2682680324
	    H    -4.5854037555   1.3060622310  -0.4959264209
	    H    -0.9041949098  -1.3904366753   1.4236947595
	    H    -2.2687496667   1.5916753364  -1.3223111548
	    H    -0.7958282182  -0.5644757672  -2.3431563788
	    H     0.0810605117   0.9561935681  -2.5607942370
	    H     0.9572590968  -0.5439515338  -2.1585353038
	    H     3.8194851150   0.0759376850  -2.4465998304
	    H     4.9259726678   0.4126089613  -1.0930282534
	    H     4.1730779940  -0.4551783535   1.2411322681
	    H     2.5788116288  -1.2158991792   1.3425744882
	    H    -5.0613570489  -0.3252344624   1.3115061023
	    H     4.6540319139  -1.2549639835  -1.6425471940
	    H     3.8900736989  -2.0488196708   0.4955568367
	Saving final (previous) structure.
	Cleaning optimization helper files.
			--------------------------
			 OPTKING Finished Execution 
			--------------------------

    Final optimized geometry and variables:
    Molecular point group: c1
    Full point group: C1

    Geometry (in Angstrom), charge = 0, multiplicity = 1:

    N           -0.128483849905     0.262297831400    -0.549675930372
    C            0.940895534295     0.519249406400     0.272122105127
    C            2.278078805017     0.780908441825    -0.399641741088
    N            3.040453150327    -0.461298533586    -0.569536414724
    O            0.837234893921     0.576345911100     1.511853568461
    H            2.149688667761     1.245566481996    -1.375492800262
    H            2.807600391674     1.497823373004     0.246551691201
    C           -1.447846196062     0.107985282542    -0.008521594237
    C           -4.053135862765    -0.204983192181     0.939633361037
    C           -3.013427369036    -0.961762033072     1.477579162452
    C           -3.786472826156     0.709983044356    -0.076336198109
    C           -1.713179221655    -0.814709178221     1.002662229820
    C           -2.485668840364     0.870139713449    -0.545947671281
    C            0.045406909357     0.025658908379    -1.989198767606
    C            4.170321841068    -0.291866646490    -1.481585470046
    C            3.441827414871    -1.076325256004     0.697166330874
    H           -3.214498088129    -1.671571897188     2.268268041360
    H           -4.585403773506     1.306062236132    -0.495926422866
    H           -0.904194913389    -1.390436680813     1.423694765069
    H           -2.268749675580     1.591675342694    -1.322311160001
    H           -0.795828221340    -0.564475769406    -2.343156388034
    H            0.081060512029     0.956193571884    -2.560794247087
    H            0.957259100522    -0.543951535900    -2.158535312264
    H            3.819485130029     0.075937685263    -2.446599840065
    H            4.925972687173     0.412608962878    -1.093028257656
    H            4.173078010447    -0.455178355251     1.241132273001
    H            2.578811638928    -1.215899184020     1.342574493509
    H           -5.061357068834    -0.325234463677     1.311506107497
    H            4.654031932215    -1.254963988413    -1.642547200455
    H            3.890073714149    -2.048819678868     0.495556838642

	Removing binary optimization data file.
	Cleaning optimization helper files.

    Psi4 stopped on: Wednesday, 08 June 2022 01:30PM
    Psi4 wall time for execution: 0:14:29.89

*** Psi4 exiting successfully. Buy a developer a beer!
