
    -----------------------------------------------------------------------
          Psi4: An Open-Source Ab Initio Electronic Structure Package
                               Psi4 1.5 release

                         Git: Rev {HEAD} e9f4d6d 


    D. G. A. Smith, L. A. Burns, A. C. Simmonett, R. M. Parrish,
    M. C. Schieber, R. Galvelis, P. Kraus, H. Kruse, R. Di Remigio,
    A. Alenaizan, A. M. James, S. Lehtola, J. P. Misiewicz, M. Scheurer,
    R. A. Shaw, J. B. Schriber, Y. Xie, Z. L. Glick, D. A. Sirianni,
    J. S. O'Brien, J. M. Waldrop, A. Kumar, E. G. Hohenstein,
    B. P. Pritchard, B. R. Brooks, H. F. Schaefer III, A. Yu. Sokolov,
    K. Patkowski, A. E. DePrince III, U. Bozkaya, R. A. King,
    F. A. Evangelista, J. M. Turney, T. D. Crawford, C. D. Sherrill,
    J. Chem. Phys. 152(18) 184108 (2020). https://doi.org/10.1063/5.0006002

                            Additional Code Authors
    E. T. Seidl, C. L. Janssen, E. F. Valeev, M. L. Leininger,
    J. F. Gonthier, R. M. Richard, H. R. McAlexander, M. Saitow, X. Wang,
    P. Verma, M. H. Lechner, and A. Jiang

             Previous Authors, Complete List of Code Contributors,
                       and Citations for Specific Modules
    https://github.com/psi4/psi4/blob/master/codemeta.json
    https://github.com/psi4/psi4/graphs/contributors
    http://psicode.org/psi4manual/master/introduction.html#citing-psifour

    -----------------------------------------------------------------------


    Psi4 started on: Wednesday, 08 June 2022 04:33PM

    Process ID: 1153147
    Host:       node74.bme.utexas.edu
    PSIDATADIR: /home/bdw2292/miniconda3/envs/newamoebamdpoltype/share/psi4
    Memory:     500.0 MiB
    Threads:    1
    
  ==> Input File <==

--------------------------------------------------------------------------
molecule { 
0 1
 N   -0.128484    0.262298   -0.549676
 C    0.940896    0.519249    0.272122
 C    2.278079    0.780908   -0.399642
 N    3.040453   -0.461299   -0.569536
 O    0.837235    0.576346    1.511854
 H    2.149689    1.245566   -1.375493
 H    2.807600    1.497823    0.246552
 C   -1.447846    0.107985   -0.008522
 C   -4.053136   -0.204983    0.939633
 C   -3.013427   -0.961762    1.477579
 C   -3.786473    0.709983   -0.076336
 C   -1.713179   -0.814709    1.002662
 C   -2.485669    0.870140   -0.545948
 C    0.045407    0.025659   -1.989199
 C    4.170322   -0.291867   -1.481585
 C    3.441827   -1.076325    0.697166
 H   -3.214498   -1.671572    2.268268
 H   -4.585404    1.306062   -0.495926
 H   -0.904195   -1.390437    1.423695
 H   -2.268750    1.591675   -1.322311
 H   -0.795828   -0.564476   -2.343156
 H    0.081061    0.956194   -2.560794
 H    0.957259   -0.543952   -2.158535
 H    3.819485    0.075938   -2.446600
 H    4.925973    0.412609   -1.093028
 H    4.173078   -0.455178    1.241132
 H    2.578812   -1.215899    1.342574
 H   -5.061357   -0.325234    1.311506
 H    4.654032   -1.254964   -1.642547
 H    3.890074   -2.048820    0.495557
}
memory 8.166666666666666GB
set_num_threads(2)
psi4_io.set_default_path("/scratch/bdw2292/Psi4-25_27_Index_0-farH_in17")
set freeze_core True
E, wfn = energy('wb97x-d/6-311+G*',return_wfn=True)
oeprop(wfn,"WIBERG_LOWDIN_INDICES")
clean()
--------------------------------------------------------------------------

  Memory set to   7.606 GiB by Python driver.
  Threads set to 2 by Python driver.

Scratch directory: /scratch/bdw2292/Psi4-25_27_Index_0-farH_in17/

Scratch directory: /scratch/bdw2292/Psi4-25_27_Index_0-farH_in17/

*** tstart() called on node74.bme.utexas.edu
*** at Wed Jun  8 16:33:06 2022

   => Loading Basis Set <=

    Name: 6-311+G*
    Role: ORBITAL
    Keyword: BASIS
    atoms 1, 4       entry N          line   151 file /home/bdw2292/miniconda3/envs/newamoebamdpoltype/share/psi4/basis/6-311pgs.gbs 
    atoms 2-3, 8-16  entry C          line   130 file /home/bdw2292/miniconda3/envs/newamoebamdpoltype/share/psi4/basis/6-311pgs.gbs 
    atoms 5          entry O          line   172 file /home/bdw2292/miniconda3/envs/newamoebamdpoltype/share/psi4/basis/6-311pgs.gbs 
    atoms 6-7, 17-30 entry H          line    47 file /home/bdw2292/miniconda3/envs/newamoebamdpoltype/share/psi4/basis/6-311pgs.gbs 

   => WB97X-D: Empirical Dispersion <=

    Chai and Head-Gordon Dispersion Correction
    Chai, J.-D.; Head-Gordon, M. (2010), J. Chem. Phys., 132: 6615-6620

        s6 =       1.000000


         ---------------------------------------------------------
                                   SCF
               by Justin Turney, Rob Parrish, Andy Simmonett
                          and Daniel G. A. Smith
                              RKS Reference
                        2 Threads,   7788 MiB Core
         ---------------------------------------------------------

  ==> Geometry <==

    Molecular point group: c1
    Full point group: C1

    Geometry (in Angstrom), charge = 0, multiplicity = 1:

       Center              X                  Y                   Z               Mass       
    ------------   -----------------  -----------------  -----------------  -----------------
         N           -0.128484042630     0.262298050743    -0.549675959407    14.003074004430
         C            0.940895957370     0.519249050743     0.272122040593    12.000000000000
         C            2.278078957370     0.780908050743    -0.399641959407    12.000000000000
         N            3.040452957370    -0.461298949257    -0.569535959407    14.003074004430
         O            0.837234957370     0.576346050743     1.511854040593    15.994914619570
         H            2.149688957370     1.245566050743    -1.375492959407     1.007825032230
         H            2.807599957370     1.497823050743     0.246552040593     1.007825032230
         C           -1.447846042630     0.107985050743    -0.008521959407    12.000000000000
         C           -4.053136042630    -0.204982949257     0.939633040593    12.000000000000
         C           -3.013427042630    -0.961761949257     1.477579040593    12.000000000000
         C           -3.786473042630     0.709983050743    -0.076335959407    12.000000000000
         C           -1.713179042630    -0.814708949257     1.002662040593    12.000000000000
         C           -2.485669042630     0.870140050743    -0.545947959407    12.000000000000
         C            0.045406957370     0.025659050743    -1.989198959407    12.000000000000
         C            4.170321957370    -0.291866949257    -1.481584959407    12.000000000000
         C            3.441826957370    -1.076324949257     0.697166040593    12.000000000000
         H           -3.214498042630    -1.671571949257     2.268268040593     1.007825032230
         H           -4.585404042630     1.306062050743    -0.495925959407     1.007825032230
         H           -0.904195042630    -1.390436949257     1.423695040593     1.007825032230
         H           -2.268750042630     1.591675050743    -1.322310959407     1.007825032230
         H           -0.795828042630    -0.564475949257    -2.343155959407     1.007825032230
         H            0.081060957370     0.956194050743    -2.560793959407     1.007825032230
         H            0.957258957370    -0.543951949257    -2.158534959407     1.007825032230
         H            3.819484957370     0.075938050743    -2.446599959407     1.007825032230
         H            4.925972957370     0.412609050743    -1.093027959407     1.007825032230
         H            4.173077957370    -0.455177949257     1.241132040593     1.007825032230
         H            2.578811957370    -1.215898949257     1.342574040593     1.007825032230
         H           -5.061357042630    -0.325233949257     1.311506040593     1.007825032230
         H            4.654031957370    -1.254963949257    -1.642546959407     1.007825032230
         H            3.890073957370    -2.048819949257     0.495557040593     1.007825032230

  Running in c1 symmetry.

  Rotational constants: A =      0.05910  B =      0.01156  C =      0.01055 [cm^-1]
  Rotational constants: A =   1771.78441  B =    346.58692  C =    316.18848 [MHz]
  Nuclear repulsion =  889.759123392287393

  Charge       = 0
  Multiplicity = 1
  Electrons    = 104
  Nalpha       = 52
  Nbeta        = 52

  ==> Algorithm <==

  SCF Algorithm Type is DF.
  DIIS enabled.
  MOM disabled.
  Fractional occupation disabled.
  Guess Type is SAD.
  Energy threshold   = 1.00e-06
  Density threshold  = 1.00e-06
  Integral threshold = 1.00e-12

  ==> Primary Basis <==

  Basis Set: 6-311+G*
    Blend: 6-311+G*
    Number of shells: 188
    Number of basis functions: 356
    Number of Cartesian functions: 370
    Spherical Harmonics?: true
    Max angular momentum: 2

  ==> DFT Potential <==

   => LibXC <=

    Version 5.1.5
    S. Lehtola, C. Steigemann, M. J. Oliveira, and M. A. Marques, SoftwareX 7, 1 (2018) (10.1016/j.softx.2017.11.002)

   => Composite Functional: WB97X-D <= 

    wB97X-D Hyb-GGA Exchange-Correlation Functional

    J.-D. Chai and M. Head-Gordon, Phys. Chem. Chem. Phys. 10, 6615 (2008) (10.1039/B810189B)

    Deriv               =              1
    GGA                 =           TRUE
    Meta                =          FALSE

    Exchange Hybrid     =           TRUE
    MP2 Hybrid          =          FALSE

   => Exchange-Correlation Functionals <=

    1.0000   wB97X-D range-separated functional

   => Exact (HF) Exchange <=

    0.7780            HF,LR [omega = 0.2000]
    0.2220               HF 

   => LibXC Density Thresholds  <==

    XC_HYB_GGA_XC_WB97X_D:  1.00E-14 

   => Molecular Quadrature <=

    Radial Scheme          =       TREUTLER
    Pruning Scheme         =           NONE
    Nuclear Scheme         =       TREUTLER

    BS radius alpha        =              1
    Pruning alpha          =              1
    Radial Points          =             75
    Spherical Points       =            302
    Total Points           =         625625
    Total Blocks           =           4517
    Max Points             =            256
    Max Functions          =            304
    Weights Tolerance      =       1.00E-15

   => Loading Basis Set <=

    Name: (6-311+G* AUX)
    Role: JKFIT
    Keyword: DF_BASIS_SCF
    atoms 1, 4       entry N          line   262 file /home/bdw2292/miniconda3/envs/newamoebamdpoltype/share/psi4/basis/heavy-aug-cc-pvtz-jkfit.gbs 
    atoms 2-3, 8-16  entry C          line   200 file /home/bdw2292/miniconda3/envs/newamoebamdpoltype/share/psi4/basis/heavy-aug-cc-pvtz-jkfit.gbs 
    atoms 5          entry O          line   324 file /home/bdw2292/miniconda3/envs/newamoebamdpoltype/share/psi4/basis/heavy-aug-cc-pvtz-jkfit.gbs 
    atoms 6-7, 17-30 entry H          line   116 file /home/bdw2292/miniconda3/envs/newamoebamdpoltype/share/psi4/basis/heavy-aug-cc-pvtz-jkfit.gbs 

  ==> Integral Setup <==

  DFHelper Memory: AOs need 4.776 GiB; user supplied 4.776 GiB. Using in-core AOs.

  ==> MemDFJK: Density-Fitted J/K Matrices <==

    J tasked:                   Yes
    K tasked:                   Yes
    wK tasked:                  Yes
    Omega:                2.000E-01
    OpenMP threads:               2
    Memory [MiB]:              4890
    Algorithm:                 Core
    Schwarz Cutoff:           1E-12
    Mask sparsity (%):      13.9250
    Fitting Condition:        1E-10

   => Auxiliary Basis Set <=

  Basis Set: (6-311+G* AUX)
    Blend: HEAVY-AUG-CC-PVTZ-JKFIT
    Number of shells: 580
    Number of basis functions: 1936
    Number of Cartesian functions: 2394
    Spherical Harmonics?: true
    Max angular momentum: 4

  Cached 20.0% of DFT collocation blocks in 0.772 [GiB].

  Minimum eigenvalue in the overlap matrix is 1.3303026443E-06.
  Reciprocal condition number of the overlap matrix is 9.0696699265E-08.
    Using symmetric orthogonalization.

  ==> Pre-Iterations <==

  SCF Guess: Superposition of Atomic Densities via on-the-fly atomic UHF (no occupation information).

   -------------------------
    Irrep   Nso     Nmo    
   -------------------------
     A        356     356 
   -------------------------
    Total     356     356
   -------------------------

  ==> Iterations <==

                           Total Energy        Delta E     RMS |[F,P]|

   @DF-RKS iter SAD:  -612.71701815576057   -6.12717e+02   0.00000e+00 
   @DF-RKS iter   1:  -612.79053755759014   -7.35194e-02   3.25576e-03 DIIS
   @DF-RKS iter   2:  -613.02702786525413   -2.36490e-01   2.83869e-03 DIIS
   @DF-RKS iter   3:  -613.44381727292125   -4.16789e-01   6.13006e-04 DIIS
   @DF-RKS iter   4:  -613.45982870343266   -1.60114e-02   1.93738e-04 DIIS
   @DF-RKS iter   5:  -613.46157273792755   -1.74403e-03   7.09533e-05 DIIS
   @DF-RKS iter   6:  -613.46182503655507   -2.52299e-04   1.76353e-05 DIIS
   @DF-RKS iter   7:  -613.46184229218500   -1.72556e-05   3.16968e-06 DIIS
   @DF-RKS iter   8:  -613.46184314473669   -8.52552e-07   1.46941e-06 DIIS
   @DF-RKS iter   9:  -613.46184333631038   -1.91574e-07   4.00822e-07 DIIS
  Energy and wave function converged.


  ==> Post-Iterations <==

   Electrons on quadrature grid:
      Ntotal   =  104.0000415141 ; deviation = 4.151e-05 

    Orbital Energies [Eh]
    ---------------------

    Doubly Occupied:                                                      

       1A    -19.210012     2A    -14.474155     3A    -14.436207  
       4A    -10.390282     5A    -10.332132     6A    -10.322837  
       7A    -10.318808     8A    -10.306218     9A    -10.294647  
      10A    -10.293644    11A    -10.292986    12A    -10.291009  
      13A    -10.289932    14A    -10.289136    15A     -1.133984  
      16A     -1.047477    17A     -1.028334    18A     -0.958599  
      19A     -0.863228    20A     -0.853882    21A     -0.831824  
      22A     -0.808617    23A     -0.806173    24A     -0.730260  
      25A     -0.710323    26A     -0.694903    27A     -0.652371  
      28A     -0.605688    29A     -0.597023    30A     -0.581360  
      31A     -0.577456    32A     -0.558474    33A     -0.556259  
      34A     -0.533958    35A     -0.530873    36A     -0.519354  
      37A     -0.511388    38A     -0.494338    39A     -0.490678  
      40A     -0.484089    41A     -0.474850    42A     -0.462562  
      43A     -0.462089    44A     -0.455014    45A     -0.448669  
      46A     -0.441364    47A     -0.434538    48A     -0.356827  
      49A     -0.342824    50A     -0.330121    51A     -0.309144  
      52A     -0.302124  

    Virtual:                                                              

      53A      0.045675    54A      0.052579    55A      0.055692  
      56A      0.065244    57A      0.073475    58A      0.077115  
      59A      0.078578    60A      0.083556    61A      0.087000  
      62A      0.100307    63A      0.101757    64A      0.104606  
      65A      0.106814    66A      0.116312    67A      0.118515  
      68A      0.126246    69A      0.131353    70A      0.135622  
      71A      0.138545    72A      0.143656    73A      0.153247  
      74A      0.158170    75A      0.162316    76A      0.167187  
      77A      0.168301    78A      0.177386    79A      0.182547  
      80A      0.185575    81A      0.188238    82A      0.192622  
      83A      0.199602    84A      0.205497    85A      0.210718  
      86A      0.216027    87A      0.219909    88A      0.223459  
      89A      0.225679    90A      0.227644    91A      0.238417  
      92A      0.243541    93A      0.251988    94A      0.255764  
      95A      0.257785    96A      0.261583    97A      0.263220  
      98A      0.265820    99A      0.270065   100A      0.274493  
     101A      0.279231   102A      0.280356   103A      0.284584  
     104A      0.290598   105A      0.290931   106A      0.296482  
     107A      0.299938   108A      0.302568   109A      0.304105  
     110A      0.310503   111A      0.312409   112A      0.320033  
     113A      0.323452   114A      0.328958   115A      0.331863  
     116A      0.335004   117A      0.339849   118A      0.344588  
     119A      0.356826   120A      0.360989   121A      0.366990  
     122A      0.375913   123A      0.380468   124A      0.387398  
     125A      0.392287   126A      0.401651   127A      0.403272  
     128A      0.417102   129A      0.421548   130A      0.429114  
     131A      0.434514   132A      0.438174   133A      0.448933  
     134A      0.453546   135A      0.462535   136A      0.470088  
     137A      0.478254   138A      0.493436   139A      0.505087  
     140A      0.513358   141A      0.524647   142A      0.540060  
     143A      0.568348   144A      0.578021   145A      0.583502  
     146A      0.593773   147A      0.602197   148A      0.607671  
     149A      0.610790   150A      0.622063   151A      0.624228  
     152A      0.629139   153A      0.631208   154A      0.645552  
     155A      0.647156   156A      0.669060   157A      0.673342  
     158A      0.682358   159A      0.690452   160A      0.704181  
     161A      0.715536   162A      0.728617   163A      0.734115  
     164A      0.736248   165A      0.741882   166A      0.750788  
     167A      0.757188   168A      0.762213   169A      0.771480  
     170A      0.777641   171A      0.778346   172A      0.785031  
     173A      0.790558   174A      0.797307   175A      0.801546  
     176A      0.808737   177A      0.817435   178A      0.823360  
     179A      0.832630   180A      0.835604   181A      0.845670  
     182A      0.858116   183A      0.865558   184A      0.876206  
     185A      0.901133   186A      0.920469   187A      0.924663  
     188A      0.926387   189A      0.941532   190A      0.953719  
     191A      0.960243   192A      0.977841   193A      0.980387  
     194A      0.991743   195A      0.997886   196A      1.005845  
     197A      1.027966   198A      1.030018   199A      1.076413  
     200A      1.097286   201A      1.113042   202A      1.123108  
     203A      1.132462   204A      1.156715   205A      1.180292  
     206A      1.204694   207A      1.224565   208A      1.230887  
     209A      1.262612   210A      1.283635   211A      1.287071  
     212A      1.310646   213A      1.315859   214A      1.324854  
     215A      1.346594   216A      1.363809   217A      1.373300  
     218A      1.411898   219A      1.414585   220A      1.436920  
     221A      1.464297   222A      1.497696   223A      1.530126  
     224A      1.560744   225A      1.593644   226A      1.617020  
     227A      1.620158   228A      1.642463   229A      1.650779  
     230A      1.656050   231A      1.667487   232A      1.671620  
     233A      1.694537   234A      1.700938   235A      1.711259  
     236A      1.721971   237A      1.722870   238A      1.751552  
     239A      1.761798   240A      1.787684   241A      1.810478  
     242A      1.815615   243A      1.834058   244A      1.855609  
     245A      1.856759   246A      1.872080   247A      1.881238  
     248A      1.888547   249A      1.896651   250A      1.914404  
     251A      1.926807   252A      1.942366   253A      1.974930  
     254A      2.009552   255A      2.022090   256A      2.041445  
     257A      2.053690   258A      2.087009   259A      2.123339  
     260A      2.139384   261A      2.167343   262A      2.227623  
     263A      2.263693   264A      2.323845   265A      2.358490  
     266A      2.376905   267A      2.390271   268A      2.400239  
     269A      2.429473   270A      2.475368   271A      2.489925  
     272A      2.492402   273A      2.501539   274A      2.514526  
     275A      2.554563   276A      2.583454   277A      2.600897  
     278A      2.606522   279A      2.632467   280A      2.648921  
     281A      2.661873   282A      2.671562   283A      2.689664  
     284A      2.703287   285A      2.734676   286A      2.751255  
     287A      2.766151   288A      2.771192   289A      2.790044  
     290A      2.832538   291A      2.846483   292A      2.863810  
     293A      2.878220   294A      2.888102   295A      2.948360  
     296A      2.973653   297A      2.991544   298A      3.015325  
     299A      3.026738   300A      3.045084   301A      3.062080  
     302A      3.096825   303A      3.174637   304A      3.202151  
     305A      3.255450   306A      3.262303   307A      3.292753  
     308A      3.322015   309A      3.340067   310A      3.349288  
     311A      3.380094   312A      3.405483   313A      3.411785  
     314A      3.419073   315A      3.425114   316A      3.453221  
     317A      3.462998   318A      3.475270   319A      3.500011  
     320A      3.550700   321A      3.553233   322A      3.568581  
     323A      3.611749   324A      3.642944   325A      3.690089  
     326A      3.750891   327A      3.768494   328A      3.885856  
     329A      3.962564   330A      4.113777   331A      4.129255  
     332A      4.148549   333A      4.177578   334A      4.278593  
     335A      4.786648   336A      4.818225   337A      4.880404  
     338A      4.898786   339A      5.090915   340A      5.236399  
     341A      5.381467   342A      5.887611   343A     23.499277  
     344A     23.652401   345A     23.707744   346A     23.761276  
     347A     23.839228   348A     23.975726   349A     23.983215  
     350A     24.012048   351A     24.170902   352A     24.181046  
     353A     24.284515   354A     35.623488   355A     35.703927  
     356A     50.167027  

    Final Occupation by Irrep:
              A 
    DOCC [    52 ]

  @DF-RKS Final Energy:  -613.46184333631038

   => Energetics <=

    Nuclear Repulsion Energy =            889.7591233922873926
    One-Electron Energy =               -2596.3258499129083248
    Two-Electron Energy =                1153.6563853798884338
    DFT Exchange-Correlation Energy =     -60.5311303259702029
    Empirical Dispersion Energy =          -0.0203718696074612
    VV10 Nonlocal Energy =                  0.0000000000000000
    Total Energy =                       -613.4618433363102667

Computation Completed


Properties will be evaluated at   0.000000,   0.000000,   0.000000 [a0]

Properties computed using the SCF density matrix

  Nuclear Dipole Moment: [e a0]
     X:    12.3768      Y:    -2.2322      Z:    -6.6541

  Electronic Dipole Moment: [e a0]
     X:   -12.2957      Y:     2.0806      Z:     5.2836

  Dipole Moment: [e a0]
     X:     0.0811      Y:    -0.1516      Z:    -1.3705     Total:     1.3812

  Dipole Moment: [D]
     X:     0.2061      Y:    -0.3853      Z:    -3.4834     Total:     3.5107


*** tstop() called on node74.bme.utexas.edu at Wed Jun  8 16:35:27 2022
Module time:
	user time   =     266.14 seconds =       4.44 minutes
	system time =       8.15 seconds =       0.14 minutes
	total time  =        141 seconds =       2.35 minutes
Total time:
	user time   =     266.14 seconds =       4.44 minutes
	system time =       8.15 seconds =       0.14 minutes
	total time  =        141 seconds =       2.35 minutes


Properties will be evaluated at   0.000000,   0.000000,   0.000000 [a0]
OEProp: No title given, name of density matrix used for the following properties is 'SCF density'


  Wiberg Bond Indices using Orthogonal Lowdin Orbitals:

  Irrep: 1 Size: 30 x 30

                 1                   2                   3                   4                   5

    1     0.00000000000000     1.35470484955879     0.10887039965826     0.02726944973198     0.24490806859221
    2     1.35470484955879     0.00000000000000     1.01810330354989     0.10593746581268     2.15686103823653
    3     0.10887039965826     1.01810330354989     0.00000000000000     1.18702510360268     0.15316317980201
    4     0.02726944973198     0.10593746581268     1.18702510360268     0.00000000000000     0.02884453723082
    5     0.24490806859221     2.15686103823653     0.15316317980201     0.02884453723082     0.00000000000000
    6     0.01351909808759     0.04027220505181     0.82643528686051     0.04430898949590     0.00774428884755
    7     0.00562554273816     0.04836195871862     0.81822877977149     0.04492356372471     0.01723889127326
    8     1.10017062953956     0.10432107610354     0.01857190131344     0.00304733849176     0.05531929776878
    9     0.01031283094425     0.00551563971454     0.00058238157740     0.00020606186723     0.00337199903436
   10     0.01568313346951     0.00466798088901     0.00076250915855     0.00012756124089     0.00772758710987
   11     0.01591971945447     0.00372780862454     0.00065219503239     0.00015628579709     0.00274113867645
   12     0.11455427337202     0.04168564532768     0.00522514370841     0.00107879422830     0.05296908950423
   13     0.12174465501178     0.02764831434990     0.00328734181167     0.00088530921554     0.01126506047529
   14     1.14380375693690     0.10636803237262     0.05708844119896     0.03618548371621     0.02666978935182
   15     0.00398997934372     0.02136698714590     0.12701705205218     1.24423675724189     0.00444710514226
   16     0.00648110125197     0.03955005905339     0.11338161596867     1.23188835032866     0.03807191359032
   17     0.00088730293524     0.00024497128042     0.00003495256301     0.00001199995830     0.00021400056145
   18     0.00085994952636     0.00037720387838     0.00006675086800     0.00001392707905     0.00008512218114
   19     0.01490705277562     0.00876004416319     0.00077086832572     0.00006468565759     0.01081845902153
   20     0.01759555753191     0.00232168980327     0.00020402280416     0.00016756007191     0.00022206964243
   21     0.04469908668433     0.00931466164114     0.00289030136731     0.00045711205083     0.00193720467524
   22     0.05014089891235     0.01400001770178     0.00753867514071     0.00080362042593     0.00443626503983
   23     0.04345158648134     0.01637154984231     0.01431354505560     0.01397377759621     0.00153510718477
   24     0.00015730251671     0.00168631754003     0.01805449427188     0.05088428940503     0.00033389690725
   25     0.00047066215019     0.00199903130574     0.01781062181983     0.05434909418368     0.00015895496414
   26     0.00023380395552     0.00476804263636     0.01816514907934     0.05160547740405     0.00103554339758
   27     0.00109472511366     0.01231566716786     0.01303238283358     0.04790907500381     0.01419378337776
   28     0.00022724259871     0.00005606745414     0.00002091240967     0.00000616829774     0.00005968216067
   29     0.00021026248136     0.00123338439292     0.01217103092412     0.05118165690070     0.00064416867138
   30     0.00024540392251     0.00151317292704     0.01291002571235     0.05134582445468     0.00087105481109

                 6                   7                   8                   9                  10

    1     0.01351909808759     0.00562554273816     1.10017062953956     0.01031283094425     0.01568313346951
    2     0.04027220505181     0.04836195871862     0.10432107610354     0.00551563971454     0.00466798088901
    3     0.82643528686051     0.81822877977149     0.01857190131344     0.00058238157740     0.00076250915855
    4     0.04430898949590     0.04492356372471     0.00304733849176     0.00020606186723     0.00012756124089
    5     0.00774428884755     0.01723889127326     0.05531929776878     0.00337199903436     0.00772758710987
    6     0.00000000000000     0.00758718344168     0.00098483943340     0.00009777957927     0.00006939353976
    7     0.00758718344168     0.00000000000000     0.00118364631090     0.00003299810796     0.00006962809486
    8     0.00098483943340     0.00118364631090     0.00000000000000     0.13793562886706     0.13721232131158
    9     0.00009777957927     0.00003299810796     0.13793562886706     0.00000000000000     1.51674732916385
   10     0.00006939353976     0.00006962809486     0.13721232131158     1.51674732916385     0.00000000000000
   11     0.00004962729193     0.00006335788479     0.13562232247976     1.52186187868041     0.13741432671500
   12     0.00029152583305     0.00033679520547     1.40904409248257     0.13784222355986     1.51947895070038
   13     0.00026854355241     0.00027856091465     1.41938500127512     0.13834863862113     0.14415251544542
   14     0.01649439675843     0.00266622932940     0.10528863018278     0.00447571337790     0.00336255139027
   15     0.01742515439940     0.01439437113981     0.00076069581060     0.00007112191876     0.00005509615738
   16     0.01039338656908     0.01867647487591     0.00124944594695     0.00008137517676     0.00014323507123
   17     0.00000296777698     0.00000321860091     0.01083414210916     0.05894448552783     0.83387494649349
   18     0.00000159296330     0.00001844563505     0.01075000169031     0.05884106577762     0.01134396604795
   19     0.00003914411666     0.00010054043538     0.05488910157970     0.01048211579822     0.05515529557793
   20     0.00000846264143     0.00006885082738     0.05614009083344     0.01069961770876     0.00238126591707
   21     0.00055722839938     0.00023165385148     0.02059150897534     0.00056209983935     0.00050591527661
   22     0.00149259435563     0.00023307820695     0.00700140959224     0.00016492848310     0.00020278646414
   23     0.00278665597176     0.00031357411041     0.00758506311356     0.00048697319483     0.00017015024379
   24     0.00235697203123     0.00067033823446     0.00002347840212     0.00000627068538     0.00000506100408
   25     0.00128232678385     0.00068074528124     0.00013469493785     0.00000580767914     0.00000751824938
   26     0.00011443849435     0.00089186760073     0.00005198842962     0.00000430209488     0.00000830834426
   27     0.00057941374068     0.00157599350499     0.00020069872846     0.00000803536538     0.00001213897766
   28     0.00000297546238     0.00000112059914     0.00295831406212     0.83587586743564     0.05896573084461
   29     0.00099314900975     0.00008469350773     0.00003373074030     0.00000218468691     0.00000260797335
   30     0.00020887048191     0.00022836658901     0.00003999427050     0.00000238954548     0.00000402282600

                11                  12                  13                  14                  15

    1     0.01591971945447     0.11455427337202     0.12174465501178     1.14380375693690     0.00398997934372
    2     0.00372780862454     0.04168564532768     0.02764831434990     0.10636803237262     0.02136698714590
    3     0.00065219503239     0.00522514370841     0.00328734181167     0.05708844119896     0.12701705205218
    4     0.00015628579709     0.00107879422830     0.00088530921554     0.03618548371621     1.24423675724189
    5     0.00274113867645     0.05296908950423     0.01126506047529     0.02666978935182     0.00444710514226
    6     0.00004962729193     0.00029152583305     0.00026854355241     0.01649439675843     0.01742515439940
    7     0.00006335788479     0.00033679520547     0.00027856091465     0.00266622932940     0.01439437113981
    8     0.13562232247976     1.40904409248257     1.41938500127512     0.10528863018278     0.00076069581060
    9     1.52186187868041     0.13784222355986     0.13834863862113     0.00447571337790     0.00007112191876
   10     0.13741432671500     1.51947895070038     0.14415251544542     0.00336255139027     0.00005509615738
   11     0.00000000000000     0.14397883303955     1.51868998987424     0.00577125430401     0.00004310992215
   12     0.14397883303955     0.00000000000000     0.12819948474316     0.02480826014911     0.00032198303966
   13     1.51868998987424     0.12819948474316     0.00000000000000     0.04805776273745     0.00024665155456
   14     0.00577125430401     0.02480826014911     0.04805776273745     0.00000000000000     0.00992466804972
   15     0.00004310992215     0.00032198303966     0.00024665155456     0.00992466804972     0.00000000000000
   16     0.00007561414028     0.00128781583128     0.00027627130139     0.00460285704691     0.12835069147598
   17     0.01135925671637     0.06015620891640     0.00245939813052     0.00033291002816     0.00000313834935
   18     0.83413667521059     0.00245639149026     0.06049395891368     0.00020287707344     0.00000506780697
   19     0.00231885402518     0.80618195377197     0.00912905443468     0.00187609795543     0.00002280452705
   20     0.05541064051663     0.00937295148551     0.81132433436473     0.01073947580095     0.00003598480786
   21     0.00114701831575     0.00356900065661     0.01069097937110     0.87576832946741     0.00010541349463
   22     0.00027988504300     0.00072104430105     0.00451088711656     0.88530683006442     0.00035419233859
   23     0.00035846689594     0.00093464067385     0.00181301322356     0.86577148493135     0.00381972322385
   24     0.00000423022438     0.00001664422852     0.00001342578809     0.00170286354350     0.89346900361001
   25     0.00000744166753     0.00007290232816     0.00004373438172     0.00053182557147     0.88458026910610
   26     0.00000931509143     0.00004962981385     0.00004030168873     0.00071662826385     0.01869950008710
   27     0.00000636437221     0.00034783809741     0.00002200077845     0.00036986724352     0.01188815717221
   28     0.05916412337129     0.01120623726941     0.01132737459742     0.00006791766185     0.00000188448685
   29     0.00000193559844     0.00001486981604     0.00000852134435     0.00013651727229     0.89514881606665
   30     0.00000227905127     0.00003870613547     0.00000977208652     0.00013306311499     0.01595291113231

                16                  17                  18                  19                  20

    1     0.00648110125197     0.00088730293524     0.00085994952636     0.01490705277562     0.01759555753191
    2     0.03955005905339     0.00024497128042     0.00037720387838     0.00876004416319     0.00232168980327
    3     0.11338161596867     0.00003495256301     0.00006675086800     0.00077086832572     0.00020402280416
    4     1.23188835032866     0.00001199995830     0.00001392707905     0.00006468565759     0.00016756007191
    5     0.03807191359032     0.00021400056145     0.00008512218114     0.01081845902153     0.00022206964243
    6     0.01039338656908     0.00000296777698     0.00000159296330     0.00003914411666     0.00000846264143
    7     0.01867647487591     0.00000321860091     0.00001844563505     0.00010054043538     0.00006885082738
    8     0.00124944594695     0.01083414210916     0.01075000169031     0.05488910157970     0.05614009083344
    9     0.00008137517676     0.05894448552783     0.05884106577762     0.01048211579822     0.01069961770876
   10     0.00014323507123     0.83387494649349     0.01134396604795     0.05515529557793     0.00238126591707
   11     0.00007561414028     0.01135925671637     0.83413667521059     0.00231885402518     0.05541064051663
   12     0.00128781583128     0.06015620891640     0.00245639149026     0.80618195377197     0.00937295148551
   13     0.00027627130139     0.00245939813052     0.06049395891368     0.00912905443468     0.81132433436473
   14     0.00460285704691     0.00033291002816     0.00020287707344     0.00187609795543     0.01073947580095
   15     0.12835069147598     0.00000313834935     0.00000506780697     0.00002280452705     0.00003598480786
   16     0.00000000000000     0.00000567541828     0.00001540544922     0.00031178745668     0.00004468320646
   17     0.00000567541828     0.00000000000000     0.00027128342826     0.00520965758370     0.00023219769042
   18     0.00001540544922     0.00027128342826     0.00000000000000     0.00022937326846     0.00521690323950
   19     0.00031178745668     0.00520965758370     0.00022937326846     0.00000000000000     0.00036822511304
   20     0.00004468320646     0.00023219769042     0.00521690323950     0.00036822511304     0.00000000000000
   21     0.00006393933941     0.00004023893303     0.00001240368681     0.00002766464342     0.00081244232366
   22     0.00013882687666     0.00000743780752     0.00002878739201     0.00005862197704     0.00054959967410
   23     0.00162012071561     0.00000418989216     0.00001088829391     0.00000697059698     0.00014220434839
   24     0.01196631784402     0.00000004584367     0.00000005882236     0.00000217569338     0.00000419142624
   25     0.01822916989224     0.00000077262084     0.00000043443900     0.00000073873709     0.00000758955250
   26     0.88083031282450     0.00000025211760     0.00000013062829     0.00001168534323     0.00000833244567
   27     0.87523699507182     0.00000093805335     0.00000043636253     0.00006673691648     0.00000356161598
   28     0.00000407523369     0.00520951812601     0.00518752191431     0.00023117654798     0.00022821516446
   29     0.01620961373383     0.00000022012526     0.00000052781391     0.00000191075232     0.00000095924357
   30     0.89443481552665     0.00000017362359     0.00000011876855     0.00000262387290     0.00000044635077

                21                  22                  23                  24                  25

    1     0.04469908668433     0.05014089891235     0.04345158648134     0.00015730251671     0.00047066215019
    2     0.00931466164114     0.01400001770178     0.01637154984231     0.00168631754003     0.00199903130574
    3     0.00289030136731     0.00753867514071     0.01431354505560     0.01805449427188     0.01781062181983
    4     0.00045711205083     0.00080362042593     0.01397377759621     0.05088428940503     0.05434909418368
    5     0.00193720467524     0.00443626503983     0.00153510718477     0.00033389690725     0.00015895496414
    6     0.00055722839938     0.00149259435563     0.00278665597176     0.00235697203123     0.00128232678385
    7     0.00023165385148     0.00023307820695     0.00031357411041     0.00067033823446     0.00068074528124
    8     0.02059150897534     0.00700140959224     0.00758506311356     0.00002347840212     0.00013469493785
    9     0.00056209983935     0.00016492848310     0.00048697319483     0.00000627068538     0.00000580767914
   10     0.00050591527661     0.00020278646414     0.00017015024379     0.00000506100408     0.00000751824938
   11     0.00114701831575     0.00027988504300     0.00035846689594     0.00000423022438     0.00000744166753
   12     0.00356900065661     0.00072104430105     0.00093464067385     0.00001664422852     0.00007290232816
   13     0.01069097937110     0.00451088711656     0.00181301322356     0.00001342578809     0.00004373438172
   14     0.87576832946741     0.88530683006442     0.86577148493135     0.00170286354350     0.00053182557147
   15     0.00010541349463     0.00035419233859     0.00381972322385     0.89346900361001     0.88458026910610
   16     0.00006393933941     0.00013882687666     0.00162012071561     0.01196631784402     0.01822916989224
   17     0.00004023893303     0.00000743780752     0.00000418989216     0.00000004584367     0.00000077262084
   18     0.00001240368681     0.00002878739201     0.00001088829391     0.00000005882236     0.00000043443900
   19     0.00002766464342     0.00005862197704     0.00000697059698     0.00000217569338     0.00000073873709
   20     0.00081244232366     0.00054959967410     0.00014220434839     0.00000419142624     0.00000758955250
   21     0.00000000000000     0.00814633808886     0.01030543614975     0.00000534462867     0.00000243818947
   22     0.00814633808886     0.00000000000000     0.00815586102549     0.00005023821070     0.00000630687759
   23     0.01030543614975     0.00815586102549     0.00000000000000     0.00029732711874     0.00010228790815
   24     0.00000534462867     0.00005023821070     0.00029732711874     0.00000000000000     0.00753904219125
   25     0.00000243818947     0.00000630687759     0.00010228790815     0.00753904219125     0.00000000000000
   26     0.00000618438328     0.00001390015013     0.00056319030462     0.00019936033920     0.00111792373573
   27     0.00001164058450     0.00000709914744     0.00005380014742     0.00030157262662     0.00017617032681
   28     0.00001246915763     0.00002620845835     0.00000389481112     0.00000000668727     0.00000059938504
   29     0.00002358070424     0.00000661206170     0.00011336239918     0.00972897665503     0.00755978860631
   30     0.00000066847807     0.00000396613491     0.00002611785969     0.00077258077775     0.00095930336656

                26                  27                  28                  29                  30

    1     0.00023380395552     0.00109472511366     0.00022724259871     0.00021026248136     0.00024540392251
    2     0.00476804263636     0.01231566716786     0.00005606745414     0.00123338439292     0.00151317292704
    3     0.01816514907934     0.01303238283358     0.00002091240967     0.01217103092412     0.01291002571235
    4     0.05160547740405     0.04790907500381     0.00000616829774     0.05118165690070     0.05134582445468
    5     0.00103554339758     0.01419378337776     0.00005968216067     0.00064416867138     0.00087105481109
    6     0.00011443849435     0.00057941374068     0.00000297546238     0.00099314900975     0.00020887048191
    7     0.00089186760073     0.00157599350499     0.00000112059914     0.00008469350773     0.00022836658901
    8     0.00005198842962     0.00020069872846     0.00295831406212     0.00003373074030     0.00003999427050
    9     0.00000430209488     0.00000803536538     0.83587586743564     0.00000218468691     0.00000238954548
   10     0.00000830834426     0.00001213897766     0.05896573084461     0.00000260797335     0.00000402282600
   11     0.00000931509143     0.00000636437221     0.05916412337129     0.00000193559844     0.00000227905127
   12     0.00004962981385     0.00034783809741     0.01120623726941     0.00001486981604     0.00003870613547
   13     0.00004030168873     0.00002200077845     0.01132737459742     0.00000852134435     0.00000977208652
   14     0.00071662826385     0.00036986724352     0.00006791766185     0.00013651727229     0.00013306311499
   15     0.01869950008710     0.01188815717221     0.00000188448685     0.89514881606665     0.01595291113231
   16     0.88083031282450     0.87523699507182     0.00000407523369     0.01620961373383     0.89443481552665
   17     0.00000025211760     0.00000093805335     0.00520951812601     0.00000022012526     0.00000017362359
   18     0.00000013062829     0.00000043636253     0.00518752191431     0.00000052781391     0.00000011876855
   19     0.00001168534323     0.00006673691648     0.00023117654798     0.00000191075232     0.00000262387290
   20     0.00000833244567     0.00000356161598     0.00022821516446     0.00000095924357     0.00000044635077
   21     0.00000618438328     0.00001164058450     0.00001246915763     0.00002358070424     0.00000066847807
   22     0.00001390015013     0.00000709914744     0.00002620845835     0.00000661206170     0.00000396613491
   23     0.00056319030462     0.00005380014742     0.00000389481112     0.00011336239918     0.00002611785969
   24     0.00019936033920     0.00030157262662     0.00000000668727     0.00972897665503     0.00077258077775
   25     0.00111792373573     0.00017617032681     0.00000059938504     0.00755978860631     0.00095930336656
   26     0.00000000000000     0.00786440041034     0.00000010717506     0.00114579864479     0.00753423781076
   27     0.00786440041034     0.00000000000000     0.00000280042709     0.00076579619796     0.01006936154330
   28     0.00000010717506     0.00000280042709     0.00000000000000     0.00000003288092     0.00000010266250
   29     0.00114579864479     0.00076579619796     0.00000003288092     0.00000000000000     0.00177134261210
   30     0.00753423781076     0.01006936154330     0.00000010266250     0.00177134261210     0.00000000000000



  Atomic Valences: 

 #  #
 Irrep: 1
      1:    4.462738325276985
      2:    5.154054186244029
      3:    4.556378368241800
      4:    4.278895320215848
      5:    2.847888297232026
      6:    0.996368490971052
      7:    0.984770468516561
      8:    4.801331084782520
      9:    4.453569744013238
     10:    4.450313833697860
     11:    4.450973948017062
     12:    4.476241929709239
     13:    4.474620857103804
     14:    4.239224514895122
     15:    4.296738290603510
     16:    4.293621946217834
     17:    0.990346501211286
     18:    0.990627269649221
     19:    0.982045420668554
     20:    0.984312126152207
     21:    0.992498303357347
     22:    0.994386917068797
     23:    0.995090963314335
     24:    1.000251827257552
     25:    0.997838196238612
     26:    0.995690112694865
     27:    0.998117450909273
     28:    0.990848347343050
     29:    0.999196051817396
     30:    0.999081716449250


    Psi4 stopped on: Wednesday, 08 June 2022 04:35PM
    Psi4 wall time for execution: 0:02:20.56

*** Psi4 exiting successfully. Buy a developer a beer!
