
    -----------------------------------------------------------------------
          Psi4: An Open-Source Ab Initio Electronic Structure Package
                               Psi4 1.5 release

                         Git: Rev {HEAD} e9f4d6d 


    D. G. A. Smith, L. A. Burns, A. C. Simmonett, R. M. Parrish,
    M. C. Schieber, R. Galvelis, P. Kraus, H. Kruse, R. Di Remigio,
    A. Alenaizan, A. M. James, S. Lehtola, J. P. Misiewicz, M. Scheurer,
    R. A. Shaw, J. B. Schriber, Y. Xie, Z. L. Glick, D. A. Sirianni,
    J. S. O'Brien, J. M. Waldrop, A. Kumar, E. G. Hohenstein,
    B. P. Pritchard, B. R. Brooks, H. F. Schaefer III, A. Yu. Sokolov,
    K. Patkowski, A. E. DePrince III, U. Bozkaya, R. A. King,
    F. A. Evangelista, J. M. Turney, T. D. Crawford, C. D. Sherrill,
    J. Chem. Phys. 152(18) 184108 (2020). https://doi.org/10.1063/5.0006002

                            Additional Code Authors
    E. T. Seidl, C. L. Janssen, E. F. Valeev, M. L. Leininger,
    J. F. Gonthier, R. M. Richard, H. R. McAlexander, M. Saitow, X. Wang,
    P. Verma, M. H. Lechner, and A. Jiang

             Previous Authors, Complete List of Code Contributors,
                       and Citations for Specific Modules
    https://github.com/psi4/psi4/blob/master/codemeta.json
    https://github.com/psi4/psi4/graphs/contributors
    http://psicode.org/psi4manual/master/introduction.html#citing-psifour

    -----------------------------------------------------------------------


    Psi4 started on: Wednesday, 08 June 2022 04:37PM

    Process ID: 1154081
    Host:       node74.bme.utexas.edu
    PSIDATADIR: /home/bdw2292/miniconda3/envs/newamoebamdpoltype/share/psi4
    Memory:     500.0 MiB
    Threads:    1
    
  ==> Input File <==

--------------------------------------------------------------------------
molecule { 
0 1
 N   -0.019222   -0.015818   -0.363972
 C    0.947735    0.623396    0.385031
 C    2.374915    0.784581   -0.129233
 N    2.913356   -0.259448   -0.992784
 O    0.698348    1.110710    1.504895
 H    2.401906    1.730368   -0.679865
 H    2.976438    0.931633    0.779721
 C   -1.364993   -0.046748    0.143864
 C   -3.988456   -0.130065    1.107065
 C   -2.933097   -0.583995    1.896905
 C   -3.725388    0.374866   -0.162769
 C   -1.627412   -0.545716    1.421019
 C   -2.417816    0.425967   -0.640611
 C    0.147785   -0.343212   -1.791692
 C    4.143626    0.146905   -1.666446
 C    3.053384   -1.535839   -0.292380
 H   -3.125349   -0.970704    2.888452
 H   -4.533494    0.741257   -0.781407
 H   -0.810755   -0.883319    2.038869
 H   -2.220041    0.844649   -1.617815
 H   -0.720659   -0.914682   -2.108151
 H    0.217672    0.559996   -2.403825
 H    1.048416   -0.923227   -1.954344
 H    3.961896    1.040803   -2.263867
 H    4.963792    0.361809   -0.960019
 H    3.779999   -1.482698    0.535333
 H    2.090264   -1.840024    0.119297
 H   -5.002894   -0.164961    1.480105
 H    4.470049   -0.648657   -2.336423
 H    3.381806   -2.304390   -0.992415
}
memory 8.166666666666666GB
set_num_threads(2)
psi4_io.set_default_path("/scratch/bdw2292/Psi4-25_27_Index_0-farH_in17")
set freeze_core True
E, wfn = energy('wb97x-d/6-311+G*',return_wfn=True)
oeprop(wfn,"WIBERG_LOWDIN_INDICES")
clean()
--------------------------------------------------------------------------

  Memory set to   7.606 GiB by Python driver.
  Threads set to 2 by Python driver.

Scratch directory: /scratch/bdw2292/Psi4-25_27_Index_0-farH_in17/

Scratch directory: /scratch/bdw2292/Psi4-25_27_Index_0-farH_in17/

*** tstart() called on node74.bme.utexas.edu
*** at Wed Jun  8 16:37:52 2022

   => Loading Basis Set <=

    Name: 6-311+G*
    Role: ORBITAL
    Keyword: BASIS
    atoms 1, 4       entry N          line   151 file /home/bdw2292/miniconda3/envs/newamoebamdpoltype/share/psi4/basis/6-311pgs.gbs 
    atoms 2-3, 8-16  entry C          line   130 file /home/bdw2292/miniconda3/envs/newamoebamdpoltype/share/psi4/basis/6-311pgs.gbs 
    atoms 5          entry O          line   172 file /home/bdw2292/miniconda3/envs/newamoebamdpoltype/share/psi4/basis/6-311pgs.gbs 
    atoms 6-7, 17-30 entry H          line    47 file /home/bdw2292/miniconda3/envs/newamoebamdpoltype/share/psi4/basis/6-311pgs.gbs 

   => WB97X-D: Empirical Dispersion <=

    Chai and Head-Gordon Dispersion Correction
    Chai, J.-D.; Head-Gordon, M. (2010), J. Chem. Phys., 132: 6615-6620

        s6 =       1.000000


         ---------------------------------------------------------
                                   SCF
               by Justin Turney, Rob Parrish, Andy Simmonett
                          and Daniel G. A. Smith
                              RKS Reference
                        2 Threads,   7788 MiB Core
         ---------------------------------------------------------

  ==> Geometry <==

    Molecular point group: c1
    Full point group: C1

    Geometry (in Angstrom), charge = 0, multiplicity = 1:

       Center              X                  Y                   Z               Mass       
    ------------   -----------------  -----------------  -----------------  -----------------
         N           -0.019222052911    -0.015817914231    -0.363971938199    14.003074004430
         C            0.947734947089     0.623396085769     0.385031061801    12.000000000000
         C            2.374914947089     0.784581085769    -0.129232938199    12.000000000000
         N            2.913355947089    -0.259447914231    -0.992783938199    14.003074004430
         O            0.698347947089     1.110710085769     1.504895061801    15.994914619570
         H            2.401905947089     1.730368085769    -0.679864938199     1.007825032230
         H            2.976437947089     0.931633085769     0.779721061801     1.007825032230
         C           -1.364993052911    -0.046747914231     0.143864061801    12.000000000000
         C           -3.988456052911    -0.130064914231     1.107065061801    12.000000000000
         C           -2.933097052911    -0.583994914231     1.896905061801    12.000000000000
         C           -3.725388052911     0.374866085769    -0.162768938199    12.000000000000
         C           -1.627412052911    -0.545715914231     1.421019061801    12.000000000000
         C           -2.417816052911     0.425967085769    -0.640610938199    12.000000000000
         C            0.147784947089    -0.343211914231    -1.791691938199    12.000000000000
         C            4.143625947089     0.146905085769    -1.666445938199    12.000000000000
         C            3.053383947089    -1.535838914231    -0.292379938199    12.000000000000
         H           -3.125349052911    -0.970703914231     2.888452061801     1.007825032230
         H           -4.533494052911     0.741257085769    -0.781406938199     1.007825032230
         H           -0.810755052911    -0.883318914231     2.038869061801     1.007825032230
         H           -2.220041052911     0.844649085769    -1.617814938199     1.007825032230
         H           -0.720659052911    -0.914681914231    -2.108150938199     1.007825032230
         H            0.217671947089     0.559996085769    -2.403824938199     1.007825032230
         H            1.048415947089    -0.923226914231    -1.954343938199     1.007825032230
         H            3.961895947089     1.040803085769    -2.263866938199     1.007825032230
         H            4.963791947089     0.361809085769    -0.960018938199     1.007825032230
         H            3.779998947089    -1.482697914231     0.535333061801     1.007825032230
         H            2.090263947089    -1.840023914231     0.119297061801     1.007825032230
         H           -5.002894052911    -0.164960914231     1.480105061801     1.007825032230
         H            4.470048947089    -0.648656914231    -2.336422938199     1.007825032230
         H            3.381805947089    -2.304389914231    -0.992414938199     1.007825032230

  Running in c1 symmetry.

  Rotational constants: A =      0.05935  B =      0.01166  C =      0.01096 [cm^-1]
  Rotational constants: A =   1779.41428  B =    349.66325  C =    328.55217 [MHz]
  Nuclear repulsion =  894.230144881122328

  Charge       = 0
  Multiplicity = 1
  Electrons    = 104
  Nalpha       = 52
  Nbeta        = 52

  ==> Algorithm <==

  SCF Algorithm Type is DF.
  DIIS enabled.
  MOM disabled.
  Fractional occupation disabled.
  Guess Type is SAD.
  Energy threshold   = 1.00e-06
  Density threshold  = 1.00e-06
  Integral threshold = 1.00e-12

  ==> Primary Basis <==

  Basis Set: 6-311+G*
    Blend: 6-311+G*
    Number of shells: 188
    Number of basis functions: 356
    Number of Cartesian functions: 370
    Spherical Harmonics?: true
    Max angular momentum: 2

  ==> DFT Potential <==

   => LibXC <=

    Version 5.1.5
    S. Lehtola, C. Steigemann, M. J. Oliveira, and M. A. Marques, SoftwareX 7, 1 (2018) (10.1016/j.softx.2017.11.002)

   => Composite Functional: WB97X-D <= 

    wB97X-D Hyb-GGA Exchange-Correlation Functional

    J.-D. Chai and M. Head-Gordon, Phys. Chem. Chem. Phys. 10, 6615 (2008) (10.1039/B810189B)

    Deriv               =              1
    GGA                 =           TRUE
    Meta                =          FALSE

    Exchange Hybrid     =           TRUE
    MP2 Hybrid          =          FALSE

   => Exchange-Correlation Functionals <=

    1.0000   wB97X-D range-separated functional

   => Exact (HF) Exchange <=

    0.7780            HF,LR [omega = 0.2000]
    0.2220               HF 

   => LibXC Density Thresholds  <==

    XC_HYB_GGA_XC_WB97X_D:  1.00E-14 

   => Molecular Quadrature <=

    Radial Scheme          =       TREUTLER
    Pruning Scheme         =           NONE
    Nuclear Scheme         =       TREUTLER

    BS radius alpha        =              1
    Pruning alpha          =              1
    Radial Points          =             75
    Spherical Points       =            302
    Total Points           =         625057
    Total Blocks           =           4467
    Max Points             =            256
    Max Functions          =            296
    Weights Tolerance      =       1.00E-15

   => Loading Basis Set <=

    Name: (6-311+G* AUX)
    Role: JKFIT
    Keyword: DF_BASIS_SCF
    atoms 1, 4       entry N          line   262 file /home/bdw2292/miniconda3/envs/newamoebamdpoltype/share/psi4/basis/heavy-aug-cc-pvtz-jkfit.gbs 
    atoms 2-3, 8-16  entry C          line   200 file /home/bdw2292/miniconda3/envs/newamoebamdpoltype/share/psi4/basis/heavy-aug-cc-pvtz-jkfit.gbs 
    atoms 5          entry O          line   324 file /home/bdw2292/miniconda3/envs/newamoebamdpoltype/share/psi4/basis/heavy-aug-cc-pvtz-jkfit.gbs 
    atoms 6-7, 17-30 entry H          line   116 file /home/bdw2292/miniconda3/envs/newamoebamdpoltype/share/psi4/basis/heavy-aug-cc-pvtz-jkfit.gbs 

  ==> Integral Setup <==

  DFHelper Memory: AOs need 4.795 GiB; user supplied 4.795 GiB. Using in-core AOs.

  ==> MemDFJK: Density-Fitted J/K Matrices <==

    J tasked:                   Yes
    K tasked:                   Yes
    wK tasked:                  Yes
    Omega:                2.000E-01
    OpenMP threads:               2
    Memory [MiB]:              4910
    Algorithm:                 Core
    Schwarz Cutoff:           1E-12
    Mask sparsity (%):      13.5684
    Fitting Condition:        1E-10

   => Auxiliary Basis Set <=

  Basis Set: (6-311+G* AUX)
    Blend: HEAVY-AUG-CC-PVTZ-JKFIT
    Number of shells: 580
    Number of basis functions: 1936
    Number of Cartesian functions: 2394
    Spherical Harmonics?: true
    Max angular momentum: 4

  Cached 20.0% of DFT collocation blocks in 0.771 [GiB].

  Minimum eigenvalue in the overlap matrix is 1.6660704654E-06.
  Reciprocal condition number of the overlap matrix is 1.1162826420E-07.
    Using symmetric orthogonalization.

  ==> Pre-Iterations <==

  SCF Guess: Superposition of Atomic Densities via on-the-fly atomic UHF (no occupation information).

   -------------------------
    Irrep   Nso     Nmo    
   -------------------------
     A        356     356 
   -------------------------
    Total     356     356
   -------------------------

  ==> Iterations <==

                           Total Energy        Delta E     RMS |[F,P]|

   @DF-RKS iter SAD:  -612.74388232625824   -6.12744e+02   0.00000e+00 
   @DF-RKS iter   1:  -612.78576568595406   -4.18834e-02   3.26513e-03 DIIS
   @DF-RKS iter   2:  -613.02282729107378   -2.37062e-01   2.85469e-03 DIIS
   @DF-RKS iter   3:  -613.44087192678398   -4.18045e-01   6.11491e-04 DIIS
   @DF-RKS iter   4:  -613.45661687136408   -1.57449e-02   1.97143e-04 DIIS
   @DF-RKS iter   5:  -613.45842863319660   -1.81176e-03   7.12763e-05 DIIS
   @DF-RKS iter   6:  -613.45868677608939   -2.58143e-04   1.76299e-05 DIIS
   @DF-RKS iter   7:  -613.45870457776630   -1.78017e-05   3.22585e-06 DIIS
   @DF-RKS iter   8:  -613.45870557545561   -9.97689e-07   1.64685e-06 DIIS
   @DF-RKS iter   9:  -613.45870582643010   -2.50974e-07   4.67813e-07 DIIS
  Energy and wave function converged.


  ==> Post-Iterations <==

   Electrons on quadrature grid:
      Ntotal   =  103.9999616570 ; deviation = -3.834e-05 

    Orbital Energies [Eh]
    ---------------------

    Doubly Occupied:                                                      

       1A    -19.208589     2A    -14.474976     3A    -14.438073  
       4A    -10.392982     5A    -10.330517     6A    -10.322634  
       7A    -10.312534     8A    -10.310299     9A    -10.308180  
      10A    -10.290684    11A    -10.289852    12A    -10.287505  
      13A    -10.286061    14A    -10.285442    15A     -1.133318  
      16A     -1.044910    17A     -1.034703    18A     -0.954749  
      19A     -0.857697    20A     -0.851397    21A     -0.832620  
      22A     -0.817722    23A     -0.802699    24A     -0.727799  
      25A     -0.709734    26A     -0.699443    27A     -0.652242  
      28A     -0.604369    29A     -0.593162    30A     -0.583158  
      31A     -0.574979    32A     -0.564740    33A     -0.551967  
      34A     -0.533972    35A     -0.527187    36A     -0.518030  
      37A     -0.507454    38A     -0.500342    39A     -0.493509  
      40A     -0.482544    41A     -0.480765    42A     -0.469057  
      43A     -0.464163    44A     -0.459286    45A     -0.443128  
      46A     -0.436809    47A     -0.431176    48A     -0.361410  
      49A     -0.340673    50A     -0.326136    51A     -0.309254  
      52A     -0.300614  

    Virtual:                                                              

      53A      0.047463    54A      0.054089    55A      0.058864  
      56A      0.065799    57A      0.072000    58A      0.075673  
      59A      0.083210    60A      0.086218    61A      0.089006  
      62A      0.100393    63A      0.101896    64A      0.104965  
      65A      0.110838    66A      0.114148    67A      0.120443  
      68A      0.123167    69A      0.129189    70A      0.130252  
      71A      0.138008    72A      0.149671    73A      0.150871  
      74A      0.158278    75A      0.160578    76A      0.166354  
      77A      0.170917    78A      0.173383    79A      0.179843  
      80A      0.187584    81A      0.192926    82A      0.197061  
      83A      0.202120    84A      0.210481    85A      0.211684  
      86A      0.214734    87A      0.219306    88A      0.224442  
      89A      0.231773    90A      0.236065    91A      0.240588  
      92A      0.245353    93A      0.248673    94A      0.253047  
      95A      0.259404    96A      0.265218    97A      0.266631  
      98A      0.271584    99A      0.276459   100A      0.277380  
     101A      0.281209   102A      0.283978   103A      0.285377  
     104A      0.288382   105A      0.291062   106A      0.298423  
     107A      0.300815   108A      0.301846   109A      0.310005  
     110A      0.314273   111A      0.317942   112A      0.321638  
     113A      0.324936   114A      0.329346   115A      0.332676  
     116A      0.335581   117A      0.337939   118A      0.343064  
     119A      0.347847   120A      0.352028   121A      0.356185  
     122A      0.364758   123A      0.370884   124A      0.373019  
     125A      0.384128   126A      0.398493   127A      0.403471  
     128A      0.410751   129A      0.413772   130A      0.419682  
     131A      0.425723   132A      0.432958   133A      0.444027  
     134A      0.455688   135A      0.463356   136A      0.468190  
     137A      0.478786   138A      0.494640   139A      0.507428  
     140A      0.518872   141A      0.527453   142A      0.540769  
     143A      0.549637   144A      0.577336   145A      0.592712  
     146A      0.605261   147A      0.608057   148A      0.613302  
     149A      0.618382   150A      0.625502   151A      0.631052  
     152A      0.637004   153A      0.638604   154A      0.646145  
     155A      0.654439   156A      0.670757   157A      0.673062  
     158A      0.681797   159A      0.688288   160A      0.699767  
     161A      0.711008   162A      0.716394   163A      0.733338  
     164A      0.734590   165A      0.744939   166A      0.752270  
     167A      0.767455   168A      0.768955   169A      0.770178  
     170A      0.780069   171A      0.782876   172A      0.787810  
     173A      0.793573   174A      0.804013   175A      0.805531  
     176A      0.812799   177A      0.822935   178A      0.829237  
     179A      0.833592   180A      0.842145   181A      0.850751  
     182A      0.859259   183A      0.877773   184A      0.885669  
     185A      0.894604   186A      0.920563   187A      0.929005  
     188A      0.931859   189A      0.947770   190A      0.951422  
     191A      0.965262   192A      0.969805   193A      0.978098  
     194A      0.986343   195A      1.012054   196A      1.017793  
     197A      1.031051   198A      1.058946   199A      1.063603  
     200A      1.088144   201A      1.106090   202A      1.119223  
     203A      1.134538   204A      1.163430   205A      1.195627  
     206A      1.196890   207A      1.214280   208A      1.236590  
     209A      1.256269   210A      1.274435   211A      1.290410  
     212A      1.299245   213A      1.323027   214A      1.324218  
     215A      1.350753   216A      1.360178   217A      1.377377  
     218A      1.389055   219A      1.404256   220A      1.417471  
     221A      1.448410   222A      1.512096   223A      1.534469  
     224A      1.574241   225A      1.589915   226A      1.601054  
     227A      1.614551   228A      1.625279   229A      1.646161  
     230A      1.659296   231A      1.668372   232A      1.680128  
     233A      1.695752   234A      1.699059   235A      1.707013  
     236A      1.718702   237A      1.728139   238A      1.758636  
     239A      1.769891   240A      1.789041   241A      1.806465  
     242A      1.809149   243A      1.827319   244A      1.847880  
     245A      1.857079   246A      1.863865   247A      1.872030  
     248A      1.885873   249A      1.898407   250A      1.913973  
     251A      1.937857   252A      1.945942   253A      1.974984  
     254A      2.007165   255A      2.027132   256A      2.046395  
     257A      2.055389   258A      2.091295   259A      2.118074  
     260A      2.142554   261A      2.153713   262A      2.224227  
     263A      2.272025   264A      2.319000   265A      2.366788  
     266A      2.383164   267A      2.392320   268A      2.404687  
     269A      2.429993   270A      2.463062   271A      2.495659  
     272A      2.497494   273A      2.502283   274A      2.516520  
     275A      2.560139   276A      2.568396   277A      2.589234  
     278A      2.593679   279A      2.631541   280A      2.657415  
     281A      2.676483   282A      2.682233   283A      2.699906  
     284A      2.709164   285A      2.718623   286A      2.747372  
     287A      2.775765   288A      2.778977   289A      2.794184  
     290A      2.814944   291A      2.866358   292A      2.877579  
     293A      2.889076   294A      2.892982   295A      2.940318  
     296A      2.959431   297A      2.978720   298A      3.008298  
     299A      3.029770   300A      3.057829   301A      3.078155  
     302A      3.090800   303A      3.181330   304A      3.190836  
     305A      3.264961   306A      3.274624   307A      3.283081  
     308A      3.326811   309A      3.351115   310A      3.364004  
     311A      3.382931   312A      3.400617   313A      3.412891  
     314A      3.419584   315A      3.431995   316A      3.447920  
     317A      3.473445   318A      3.483043   319A      3.490596  
     320A      3.514322   321A      3.545932   322A      3.564607  
     323A      3.614080   324A      3.630215   325A      3.695643  
     326A      3.749239   327A      3.764446   328A      3.880695  
     329A      3.938374   330A      4.121326   331A      4.135199  
     332A      4.160168   333A      4.171989   334A      4.262394  
     335A      4.788928   336A      4.815067   337A      4.893581  
     338A      4.906813   339A      5.121927   340A      5.228382  
     341A      5.369113   342A      5.886388   343A     23.494877  
     344A     23.660277   345A     23.714271   346A     23.770384  
     347A     23.829105   348A     23.965025   349A     23.983638  
     350A     24.017073   351A     24.171817   352A     24.186019  
     353A     24.288326   354A     35.619710   355A     35.696490  
     356A     50.164535  

    Final Occupation by Irrep:
              A 
    DOCC [    52 ]

  @DF-RKS Final Energy:  -613.45870582643010

   => Energetics <=

    Nuclear Repulsion Energy =            894.2301448811223281
    One-Electron Energy =               -2605.2751907108831801
    Two-Electron Energy =                1158.1396678365742900
    DFT Exchange-Correlation Energy =     -60.5323836617183701
    Empirical Dispersion Energy =          -0.0209441715250045
    VV10 Nonlocal Energy =                  0.0000000000000000
    Total Energy =                       -613.4587058264299912

Computation Completed


Properties will be evaluated at   0.000000,   0.000000,   0.000000 [a0]

Properties computed using the SCF density matrix

  Nuclear Dipole Moment: [e a0]
     X:    12.0687      Y:    -3.6708      Z:    -7.7289

  Electronic Dipole Moment: [e a0]
     X:   -11.6236      Y:     3.0839      Z:     6.4533

  Dipole Moment: [e a0]
     X:     0.4451      Y:    -0.5868      Z:    -1.2756     Total:     1.4730

  Dipole Moment: [D]
     X:     1.1313      Y:    -1.4916      Z:    -3.2422     Total:     3.7439


*** tstop() called on node74.bme.utexas.edu at Wed Jun  8 16:40:13 2022
Module time:
	user time   =     268.82 seconds =       4.48 minutes
	system time =       7.96 seconds =       0.13 minutes
	total time  =        141 seconds =       2.35 minutes
Total time:
	user time   =     268.82 seconds =       4.48 minutes
	system time =       7.96 seconds =       0.13 minutes
	total time  =        141 seconds =       2.35 minutes


Properties will be evaluated at   0.000000,   0.000000,   0.000000 [a0]
OEProp: No title given, name of density matrix used for the following properties is 'SCF density'


  Wiberg Bond Indices using Orthogonal Lowdin Orbitals:

  Irrep: 1 Size: 30 x 30

                 1                   2                   3                   4                   5

    1     0.00000000000000     1.34180939682322     0.09995310558226     0.02668911174562     0.24075948327985
    2     1.34180939682322     0.00000000000000     1.02450130425567     0.09023722058060     2.15769124753830
    3     0.09995310558226     1.02450130425567     0.00000000000000     1.19483858397744     0.17119494310551
    4     0.02668911174562     0.09023722058060     1.19483858397744     0.00000000000000     0.01982883304950
    5     0.24075948327985     2.15769124753830     0.17119494310551     0.01982883304950     0.00000000000000
    6     0.00927536786642     0.04569264011068     0.81800330958668     0.04482910205258     0.01712903557230
    7     0.00574054764979     0.04883462219749     0.81529254627517     0.04606728282235     0.02175916438702
    8     1.10324245265691     0.10514526393459     0.01802727836904     0.00278488852862     0.06012805137254
    9     0.01126631276531     0.00660790320742     0.00058526119915     0.00012424076362     0.00414512449642
   10     0.01603133295488     0.00509669246348     0.00081667494371     0.00018743645851     0.00975888388184
   11     0.01556817593710     0.00380538971232     0.00065028620520     0.00024942898508     0.00322350343345
   12     0.11675416119345     0.04471047899018     0.00548830019411     0.00101758249629     0.06120403247182
   13     0.11685643201043     0.02896621632142     0.00319810021896     0.00114160278209     0.01331296621340
   14     1.13921856394880     0.10300587174059     0.03607984922515     0.07564419649078     0.02669511073960
   15     0.00337704261814     0.01939664918176     0.12937372418747     1.24159185903235     0.00389249314400
   16     0.02175433306950     0.03473951605236     0.12017683714428     1.23103083589661     0.00551924052124
   17     0.00084180421769     0.00021265781323     0.00002723883291     0.00000788093243     0.00020612529582
   18     0.00089372019818     0.00038329849808     0.00007250334377     0.00001754440835     0.00009236063438
   19     0.01507380741294     0.00925722754882     0.00089596534542     0.00012427742398     0.01258142145400
   20     0.01578917201367     0.00217481301586     0.00016815762718     0.00019451183102     0.00017467953334
   21     0.04538460996378     0.00850556049309     0.00098211307038     0.00229455886950     0.00143305926484
   22     0.04713677318405     0.01672559577371     0.00572036570611     0.00537202315927     0.00348539156831
   23     0.04450188817777     0.01254232738233     0.00765976156831     0.03315746543416     0.00205917355683
   24     0.00015448402885     0.00147796104254     0.01742710567301     0.05075395269869     0.00028325096710
   25     0.00032560415040     0.00120977465075     0.01793871810637     0.05656915687726     0.00016567013282
   26     0.00042870427962     0.00442904555874     0.01916204815597     0.05169402977292     0.00018427222786
   27     0.00926205558807     0.01027789127442     0.01394716311926     0.04994823272233     0.00095929856390
   28     0.00023952148470     0.00005983821951     0.00002376078400     0.00000667180182     0.00005427048553
   29     0.00019291198633     0.00124590413494     0.01191990693068     0.05107695397935     0.00057636093033
   30     0.00027821189418     0.00115181746071     0.01238975874772     0.05066857894566     0.00013404595868

                 6                   7                   8                   9                  10

    1     0.00927536786642     0.00574054764979     1.10324245265691     0.01126631276531     0.01603133295488
    2     0.04569264011068     0.04883462219749     0.10514526393459     0.00660790320742     0.00509669246348
    3     0.81800330958668     0.81529254627517     0.01802727836904     0.00058526119915     0.00081667494371
    4     0.04482910205258     0.04606728282235     0.00278488852862     0.00012424076362     0.00018743645851
    5     0.01712903557230     0.02175916438702     0.06012805137254     0.00414512449642     0.00975888388184
    6     0.00000000000000     0.00635427413848     0.00081503539905     0.00010715626951     0.00005787433172
    7     0.00635427413848     0.00000000000000     0.00098688067424     0.00014235407925     0.00009524075552
    8     0.00081503539905     0.00098688067424     0.00000000000000     0.13702156624976     0.13663623493968
    9     0.00010715626951     0.00014235407925     0.13702156624976     0.00000000000000     1.51048652930611
   10     0.00005787433172     0.00009524075552     0.13663623493968     1.51048652930611     0.00000000000000
   11     0.00003639997682     0.00006689247041     0.13542917068888     1.52717192412683     0.13800510524253
   12     0.00045534102662     0.00039975349600     1.39972262733550     0.13782118645043     1.52615339782103
   13     0.00029790816785     0.00038303700092     1.41928278063619     0.13813933950414     0.14245807250749
   14     0.00426143874053     0.00131334331888     0.10487034950734     0.00368087543904     0.00335094616795
   15     0.01772833391685     0.01410739030976     0.00068749094551     0.00004002855686     0.00005637183629
   16     0.01117358433626     0.01779220350055     0.00307388500893     0.00013301856446     0.00015160988379
   17     0.00000141365082     0.00000726914058     0.01089582827447     0.05880853376502     0.83368266455577
   18     0.00000829869391     0.00000406278671     0.01072020131885     0.05889116409094     0.01143083678515
   19     0.00011619868879     0.00001998342613     0.05442984840528     0.01046074223483     0.05516473977398
   20     0.00001425293652     0.00004135245648     0.05518264383390     0.01052676709494     0.00235224145651
   21     0.00002407636475     0.00003748825182     0.02047617113967     0.00050718279438     0.00059642569815
   22     0.00004765281847     0.00001850170026     0.00764056230367     0.00022928880519     0.00023624808425
   23     0.00052639727027     0.00062683018050     0.00798627790964     0.00043151303270     0.00017970859553
   24     0.00217884146423     0.00066231573477     0.00003220583525     0.00000498705417     0.00000254953200
   25     0.00115241776425     0.00064878358872     0.00007421207147     0.00000406790522     0.00001079465165
   26     0.00015092717612     0.00099879409895     0.00004900261166     0.00000368753894     0.00000846663220
   27     0.00058166486842     0.00146814931705     0.00126885452948     0.00006849235774     0.00001846047419
   28     0.00000251099279     0.00000104336766     0.00291797421139     0.83586372621212     0.05899396984177
   29     0.00091172307772     0.00006841093506     0.00004690390816     0.00000180890394     0.00000387562760
   30     0.00028363957431     0.00021683567112     0.00004046060881     0.00000270427250     0.00000332635120

                11                  12                  13                  14                  15

    1     0.01556817593710     0.11675416119345     0.11685643201043     1.13921856394880     0.00337704261814
    2     0.00380538971232     0.04471047899018     0.02896621632142     0.10300587174059     0.01939664918176
    3     0.00065028620520     0.00548830019411     0.00319810021896     0.03607984922515     0.12937372418747
    4     0.00024942898508     0.00101758249629     0.00114160278209     0.07564419649078     1.24159185903235
    5     0.00322350343345     0.06120403247182     0.01331296621340     0.02669511073960     0.00389249314400
    6     0.00003639997682     0.00045534102662     0.00029790816785     0.00426143874053     0.01772833391685
    7     0.00006689247041     0.00039975349600     0.00038303700092     0.00131334331888     0.01410739030976
    8     0.13542917068888     1.39972262733550     1.41928278063619     0.10487034950734     0.00068749094551
    9     1.52717192412683     0.13782118645043     0.13813933950414     0.00368087543904     0.00004002855686
   10     0.13800510524253     1.52615339782103     0.14245807250749     0.00335094616795     0.00005637183629
   11     0.00000000000000     0.14401760436558     1.51217004817912     0.00718649082372     0.00004535066610
   12     0.14401760436558     0.00000000000000     0.12799983662563     0.02081772224852     0.00028275518805
   13     1.51217004817912     0.12799983662563     0.00000000000000     0.05841097110568     0.00024720101459
   14     0.00718649082372     0.02081772224852     0.05841097110568     0.00000000000000     0.01106752909978
   15     0.00004535066610     0.00028275518805     0.00024720101459     0.01106752909978     0.00000000000000
   16     0.00014668625110     0.00158134967409     0.00065109301954     0.02654740468043     0.12781096259185
   17     0.01136880735946     0.06046664070343     0.00248787837456     0.00038619408781     0.00000188576991
   18     0.83403511962423     0.00248116368587     0.06041905109088     0.00024651373752     0.00000574264969
   19     0.00231075138527     0.80530373771198     0.00914665625517     0.00132296628924     0.00003286700690
   20     0.05527495645725     0.00940507302235     0.80999889017412     0.01619354483009     0.00004086059436
   21     0.00170930679082     0.00234005915072     0.01618902147330     0.87403729396409     0.00030416846733
   22     0.00032688488542     0.00083850255678     0.00596050276277     0.87905853715089     0.00097564618499
   23     0.00034599075055     0.00083294206299     0.00223591007829     0.85042319816517     0.00386767797480
   24     0.00000239162300     0.00001345111315     0.00001580548598     0.00089758331401     0.89430732728043
   25     0.00001372753744     0.00003552760180     0.00005930548091     0.00125839213672     0.88226107629794
   26     0.00000626099169     0.00003949071070     0.00002053053001     0.00115075418763     0.01716512048542
   27     0.00003745825039     0.00074783006433     0.00022150952217     0.00604168922466     0.01156881529244
   28     0.05937354990741     0.01117476374139     0.01128314376589     0.00010377085318     0.00000197955649
   29     0.00000441183219     0.00002290461005     0.00000917187286     0.00035169192817     0.89471260707512
   30     0.00000286470602     0.00005686346347     0.00001167452888     0.00126749100792     0.01652075385753

                16                  17                  18                  19                  20

    1     0.02175433306950     0.00084180421769     0.00089372019818     0.01507380741294     0.01578917201367
    2     0.03473951605236     0.00021265781323     0.00038329849808     0.00925722754882     0.00217481301586
    3     0.12017683714428     0.00002723883291     0.00007250334377     0.00089596534542     0.00016815762718
    4     1.23103083589661     0.00000788093243     0.00001754440835     0.00012427742398     0.00019451183102
    5     0.00551924052124     0.00020612529582     0.00009236063438     0.01258142145400     0.00017467953334
    6     0.01117358433626     0.00000141365082     0.00000829869391     0.00011619868879     0.00001425293652
    7     0.01779220350055     0.00000726914058     0.00000406278671     0.00001998342613     0.00004135245648
    8     0.00307388500893     0.01089582827447     0.01072020131885     0.05442984840528     0.05518264383390
    9     0.00013301856446     0.05880853376502     0.05889116409094     0.01046074223483     0.01052676709494
   10     0.00015160988379     0.83368266455577     0.01143083678515     0.05516473977398     0.00235224145651
   11     0.00014668625110     0.01136880735946     0.83403511962423     0.00231075138527     0.05527495645725
   12     0.00158134967409     0.06046664070343     0.00248116368587     0.80530373771198     0.00940507302235
   13     0.00065109301954     0.00248787837456     0.06041905109088     0.00914665625517     0.80999889017412
   14     0.02654740468043     0.00038619408781     0.00024651373752     0.00132296628924     0.01619354483009
   15     0.12781096259185     0.00000188576991     0.00000574264969     0.00003286700690     0.00004086059436
   16     0.00000000000000     0.00000819011846     0.00001781418311     0.00021790713776     0.00011349838191
   17     0.00000819011846     0.00000000000000     0.00027543573252     0.00530182022383     0.00022818995956
   18     0.00001781418311     0.00027543573252     0.00000000000000     0.00022176849443     0.00536458971158
   19     0.00021790713776     0.00530182022383     0.00022176849443     0.00000000000000     0.00038228864250
   20     0.00011349838191     0.00022818995956     0.00536458971158     0.00038228864250     0.00000000000000
   21     0.00047855998903     0.00005544007428     0.00002134146895     0.00004684597800     0.00191239566353
   22     0.00091595984013     0.00000840798713     0.00004070478709     0.00009453629733     0.00092987137724
   23     0.00989868742502     0.00000687574434     0.00001702967955     0.00000886215477     0.00034912935445
   24     0.01234414842918     0.00000002545420     0.00000028508223     0.00000130551144     0.00000346200565
   25     0.01738697744113     0.00000033078424     0.00000052336991     0.00000531992769     0.00000965720929
   26     0.88175098963014     0.00000013447622     0.00000009217231     0.00000984879647     0.00000250329564
   27     0.87064945759829     0.00000156015502     0.00000451475253     0.00007170056893     0.00005894476518
   28     0.00000645121177     0.00516847196981     0.00518552565018     0.00022823473043     0.00021978256572
   29     0.01670629092952     0.00000032081399     0.00000077561465     0.00000116798356     0.00000211840022
   30     0.89310080301700     0.00000013396259     0.00000003373778     0.00000366830731     0.00000396271442

                21                  22                  23                  24                  25

    1     0.04538460996378     0.04713677318405     0.04450188817777     0.00015448402885     0.00032560415040
    2     0.00850556049309     0.01672559577371     0.01254232738233     0.00147796104254     0.00120977465075
    3     0.00098211307038     0.00572036570611     0.00765976156831     0.01742710567301     0.01793871810637
    4     0.00229455886950     0.00537202315927     0.03315746543416     0.05075395269869     0.05656915687726
    5     0.00143305926484     0.00348539156831     0.00205917355683     0.00028325096710     0.00016567013282
    6     0.00002407636475     0.00004765281847     0.00052639727027     0.00217884146423     0.00115241776425
    7     0.00003748825182     0.00001850170026     0.00062683018050     0.00066231573477     0.00064878358872
    8     0.02047617113967     0.00764056230367     0.00798627790964     0.00003220583525     0.00007421207147
    9     0.00050718279438     0.00022928880519     0.00043151303270     0.00000498705417     0.00000406790522
   10     0.00059642569815     0.00023624808425     0.00017970859553     0.00000254953200     0.00001079465165
   11     0.00170930679082     0.00032688488542     0.00034599075055     0.00000239162300     0.00001372753744
   12     0.00234005915072     0.00083850255678     0.00083294206299     0.00001345111315     0.00003552760180
   13     0.01618902147330     0.00596050276277     0.00223591007829     0.00001580548598     0.00005930548091
   14     0.87403729396409     0.87905853715089     0.85042319816517     0.00089758331401     0.00125839213672
   15     0.00030416846733     0.00097564618499     0.00386767797480     0.89430732728043     0.88226107629794
   16     0.00047855998903     0.00091595984013     0.00989868742502     0.01234414842918     0.01738697744113
   17     0.00005544007428     0.00000840798713     0.00000687574434     0.00000002545420     0.00000033078424
   18     0.00002134146895     0.00004070478709     0.00001702967955     0.00000028508223     0.00000052336991
   19     0.00004684597800     0.00009453629733     0.00000886215477     0.00000130551144     0.00000531992769
   20     0.00191239566353     0.00092987137724     0.00034912935445     0.00000346200565     0.00000965720929
   21     0.00000000000000     0.00799667355250     0.01121506447923     0.00000632972407     0.00009634431296
   22     0.00799667355250     0.00000000000000     0.00764605392062     0.00005390322048     0.00002738371822
   23     0.01121506447923     0.00764605392062     0.00000000000000     0.00008517170255     0.00063899296607
   24     0.00000632972407     0.00005390322048     0.00008517170255     0.00000000000000     0.00766580160862
   25     0.00009634431296     0.00002738371822     0.00063899296607     0.00766580160862     0.00000000000000
   26     0.00008459277681     0.00011116260616     0.00012841674187     0.00016724805470     0.00083062508585
   27     0.00017801402466     0.00008171653335     0.00109400202289     0.00028373147376     0.00013096774094
   28     0.00001938015797     0.00003573633857     0.00000528331465     0.00000002381008     0.00000060849318
   29     0.00000317729855     0.00000626248213     0.00023549019081     0.00961499849909     0.00771816728609
   30     0.00000381402109     0.00005089135141     0.00044965062286     0.00075308326785     0.00084968976411

                26                  27                  28                  29                  30

    1     0.00042870427962     0.00926205558807     0.00023952148470     0.00019291198633     0.00027821189418
    2     0.00442904555874     0.01027789127442     0.00005983821951     0.00124590413494     0.00115181746071
    3     0.01916204815597     0.01394716311926     0.00002376078400     0.01191990693068     0.01238975874772
    4     0.05169402977292     0.04994823272233     0.00000667180182     0.05107695397935     0.05066857894566
    5     0.00018427222786     0.00095929856390     0.00005427048553     0.00057636093033     0.00013404595868
    6     0.00015092717612     0.00058166486842     0.00000251099279     0.00091172307772     0.00028363957431
    7     0.00099879409895     0.00146814931705     0.00000104336766     0.00006841093506     0.00021683567112
    8     0.00004900261166     0.00126885452948     0.00291797421139     0.00004690390816     0.00004046060881
    9     0.00000368753894     0.00006849235774     0.83586372621212     0.00000180890394     0.00000270427250
   10     0.00000846663220     0.00001846047419     0.05899396984177     0.00000387562760     0.00000332635120
   11     0.00000626099169     0.00003745825039     0.05937354990741     0.00000441183219     0.00000286470602
   12     0.00003949071070     0.00074783006433     0.01117476374139     0.00002290461005     0.00005686346347
   13     0.00002053053001     0.00022150952217     0.01128314376589     0.00000917187286     0.00001167452888
   14     0.00115075418763     0.00604168922466     0.00010377085318     0.00035169192817     0.00126749100792
   15     0.01716512048542     0.01156881529244     0.00000197955649     0.89471260707512     0.01652075385753
   16     0.88175098963014     0.87064945759829     0.00000645121177     0.01670629092952     0.89310080301700
   17     0.00000013447622     0.00000156015502     0.00516847196981     0.00000032081399     0.00000013396259
   18     0.00000009217231     0.00000451475253     0.00518552565018     0.00000077561465     0.00000003373778
   19     0.00000984879647     0.00007170056893     0.00022823473043     0.00000116798356     0.00000366830731
   20     0.00000250329564     0.00005894476518     0.00021978256572     0.00000211840022     0.00000396271442
   21     0.00008459277681     0.00017801402466     0.00001938015797     0.00000317729855     0.00000381402109
   22     0.00011116260616     0.00008171653335     0.00003573633857     0.00000626248213     0.00005089135141
   23     0.00012841674187     0.00109400202289     0.00000528331465     0.00023549019081     0.00044965062286
   24     0.00016724805470     0.00028373147376     0.00000002381008     0.00961499849909     0.00075308326785
   25     0.00083062508585     0.00013096774094     0.00000060849318     0.00771816728609     0.00084968976411
   26     0.00000000000000     0.00779948835191     0.00000008347709     0.00096144061236     0.00772639814489
   27     0.00779948835191     0.00000000000000     0.00000255674943     0.00076683356107     0.00946958676629
   28     0.00000008347709     0.00000255674943     0.00000000000000     0.00000007013907     0.00000009527687
   29     0.00096144061236     0.00076683356107     0.00000007013907     0.00000000000000     0.00181139962305
   30     0.00772639814489     0.00946958676629     0.00000009527687     0.00181139962305     0.00000000000000



  Atomic Valences: 

 #  #
 Irrep: 1
      1:    4.448799088681877
      2:    5.129894125976819
      3:    4.546514671480918
      4:    4.328148044518760
      5:    2.838631493780543
      6:    0.982216816833724
      7:    0.984155353731638
      8:    4.799615103208489
      9:    4.453277487040938
     10:    4.452026711554489
     11:    4.452584939165359
     12:    4.482185079776319
     13:    4.481574656703243
     14:    4.254890284153909
     15:    4.291471710782709
     16:    4.305878295527432
     17:    0.990458160230107
     18:    0.990852015983311
     19:    0.982836465117211
     20:    0.987112310924476
     21:    0.996939069278236
     22:    0.991771740656488
     23:    0.999155772459531
     24:    0.999193730691099
     25:    0.997088618662016
     26:    0.995064159180851
     27:    0.997010640233105
     28:    0.990972799110442
     29:    0.998974061166652
     30:    0.997252237626226


    Psi4 stopped on: Wednesday, 08 June 2022 04:40PM
    Psi4 wall time for execution: 0:02:21.59

*** Psi4 exiting successfully. Buy a developer a beer!
