
    -----------------------------------------------------------------------
          Psi4: An Open-Source Ab Initio Electronic Structure Package
                               Psi4 1.5 release

                         Git: Rev {HEAD} e9f4d6d 


    D. G. A. Smith, L. A. Burns, A. C. Simmonett, R. M. Parrish,
    M. C. Schieber, R. Galvelis, P. Kraus, H. Kruse, R. Di Remigio,
    A. Alenaizan, A. M. James, S. Lehtola, J. P. Misiewicz, M. Scheurer,
    R. A. Shaw, J. B. Schriber, Y. Xie, Z. L. Glick, D. A. Sirianni,
    J. S. O'Brien, J. M. Waldrop, A. Kumar, E. G. Hohenstein,
    B. P. Pritchard, B. R. Brooks, H. F. Schaefer III, A. Yu. Sokolov,
    K. Patkowski, A. E. DePrince III, U. Bozkaya, R. A. King,
    F. A. Evangelista, J. M. Turney, T. D. Crawford, C. D. Sherrill,
    J. Chem. Phys. 152(18) 184108 (2020). https://doi.org/10.1063/5.0006002

                            Additional Code Authors
    E. T. Seidl, C. L. Janssen, E. F. Valeev, M. L. Leininger,
    J. F. Gonthier, R. M. Richard, H. R. McAlexander, M. Saitow, X. Wang,
    P. Verma, M. H. Lechner, and A. Jiang

             Previous Authors, Complete List of Code Contributors,
                       and Citations for Specific Modules
    https://github.com/psi4/psi4/blob/master/codemeta.json
    https://github.com/psi4/psi4/graphs/contributors
    http://psicode.org/psi4manual/master/introduction.html#citing-psifour

    -----------------------------------------------------------------------


    Psi4 started on: Wednesday, 08 June 2022 01:30PM

    Process ID: 1117986
    Host:       node74.bme.utexas.edu
    PSIDATADIR: /home/bdw2292/miniconda3/envs/newamoebamdpoltype/share/psi4
    Memory:     500.0 MiB
    Threads:    1
    
  ==> Input File <==

--------------------------------------------------------------------------
molecule { 
0 1
 N   -0.081547    0.440114   -0.393367
 C    0.954323    0.790910    0.510008
 C    2.379008    0.995354   -0.076622
 N    2.991655   -0.181480   -0.728916
 O    0.738134    0.950123    1.711260
 H    2.403054    1.844457   -0.781025
 H    3.052347    1.301008    0.743450
 C   -1.448503    0.336098    0.089717
 C   -4.115123    0.149661    1.015447
 C   -3.100903   -0.590439    1.636808
 C   -3.799802    0.990207   -0.059840
 C   -1.776115   -0.501739    1.188356
 C   -2.480773    1.093389   -0.524316
 C    0.144581    0.121648   -1.824545
 C    4.181472    0.186879   -1.518300
 C    3.328348   -1.231825    0.253575
 H   -3.339439   -1.243802    2.477886
 H   -4.584522    1.572716   -0.546209
 H   -0.996299   -1.077577    1.689568
 H   -2.255309    1.759851   -1.359344
 H   -0.730234   -0.358971   -2.264126
 H    0.354425    1.034300   -2.382349
 H    0.981079   -0.565072   -1.942236
 H    3.895993    0.911079   -2.298859
 H    4.964042    0.626981   -0.877185
 H    4.083499   -0.877528    0.975235
 H    2.420776   -1.531146    0.802833
 H   -5.145039    0.072743    1.369306
 H    4.581370   -0.706553   -2.025347
 H    3.709578   -2.122915   -0.270986
}
set optking { 
  frozen_dihedral = ("
    1 2 3 4
    2 1 8 12
    8 1 2 3
    2 3 4 15
  ")
}
set {
  geom_maxiter 400
  g_convergence GAU_LOOSE
  dynamic_level 1
}
memory 8.166666666666666GB
set_num_threads(2)
psi4_io.set_default_path("/scratch/bdw2292/Psi4-25_27_Index_0-farH_in17")
for _ in range(1):
  try:
    set opt_coordinates both
    optimize('wb97x-d/6-311G')
    break
  except OptimizationConvergenceError:
    break
  else:
    try:
      set opt_coordinates cartesian
      optimize('wb97x-d/6-311G')
      break
    except OptimizationConvergenceError:
      pass
clean()
--------------------------------------------------------------------------

  Memory set to   7.606 GiB by Python driver.
  Threads set to 2 by Python driver.

Scratch directory: /scratch/bdw2292/Psi4-25_27_Index_0-farH_in17/

Scratch directory: /scratch/bdw2292/Psi4-25_27_Index_0-farH_in17/
gradient() will perform analytic gradient computation.

*** tstart() called on node74.bme.utexas.edu
*** at Wed Jun  8 13:30:57 2022

   => Loading Basis Set <=

    Name: 6-311G
    Role: ORBITAL
    Keyword: BASIS
    atoms 1, 4       entry N          line   109 file /home/bdw2292/miniconda3/envs/newamoebamdpoltype/share/psi4/basis/6-311g.gbs 
    atoms 2-3, 8-16  entry C          line    92 file /home/bdw2292/miniconda3/envs/newamoebamdpoltype/share/psi4/basis/6-311g.gbs 
    atoms 5          entry O          line   126 file /home/bdw2292/miniconda3/envs/newamoebamdpoltype/share/psi4/basis/6-311g.gbs 
    atoms 6-7, 17-30 entry H          line    21 file /home/bdw2292/miniconda3/envs/newamoebamdpoltype/share/psi4/basis/6-311g.gbs 

   => WB97X-D: Empirical Dispersion <=

    Chai and Head-Gordon Dispersion Correction
    Chai, J.-D.; Head-Gordon, M. (2010), J. Chem. Phys., 132: 6615-6620

        s6 =       1.000000


         ---------------------------------------------------------
                                   SCF
               by Justin Turney, Rob Parrish, Andy Simmonett
                          and Daniel G. A. Smith
                              RKS Reference
                        2 Threads,   7788 MiB Core
         ---------------------------------------------------------

  ==> Geometry <==

    Molecular point group: c1
    Full point group: C1

    Geometry (in Angstrom), charge = 0, multiplicity = 1:

       Center              X                  Y                   Z               Mass       
    ------------   -----------------  -----------------  -----------------  -----------------
         N           -0.067260269264     0.192646016234    -0.462060206209    14.003074004430
         C            0.968609730736     0.543442016234     0.441314793791    12.000000000000
         C            2.393294730736     0.747886016234    -0.145315206209    12.000000000000
         N            3.005941730736    -0.428947983766    -0.797609206209    14.003074004430
         O            0.752420730736     0.702655016234     1.642566793791    15.994914619570
         H            2.417340730736     1.596989016234    -0.849718206209     1.007825032230
         H            3.066633730736     1.053540016234     0.674756793791     1.007825032230
         C           -1.434216269264     0.088630016234     0.021023793791    12.000000000000
         C           -4.100836269264    -0.097806983766     0.946753793791    12.000000000000
         C           -3.086616269264    -0.837906983766     1.568114793791    12.000000000000
         C           -3.785515269264     0.742739016234    -0.128533206209    12.000000000000
         C           -1.761828269264    -0.749206983766     1.119662793791    12.000000000000
         C           -2.466486269264     0.845921016234    -0.593009206209    12.000000000000
         C            0.158867730736    -0.125819983766    -1.893238206209    12.000000000000
         C            4.195758730736    -0.060588983766    -1.586993206209    12.000000000000
         C            3.342634730736    -1.479292983766     0.184881793791    12.000000000000
         H           -3.325152269264    -1.491269983766     2.409192793791     1.007825032230
         H           -4.570235269264     1.325248016234    -0.614902206209     1.007825032230
         H           -0.982012269264    -1.325044983766     1.620874793791     1.007825032230
         H           -2.241022269264     1.512383016234    -1.428037206209     1.007825032230
         H           -0.715947269264    -0.606438983766    -2.332819206209     1.007825032230
         H            0.368711730736     0.786832016234    -2.451042206209     1.007825032230
         H            0.995365730736    -0.812539983766    -2.010929206209     1.007825032230
         H            3.910279730736     0.663611016234    -2.367552206209     1.007825032230
         H            4.978328730736     0.379513016234    -0.945878206209     1.007825032230
         H            4.097785730736    -1.124995983766     0.906541793791     1.007825032230
         H            2.435062730736    -1.778613983766     0.734139793791     1.007825032230
         H           -5.130752269264    -0.174724983766     1.300612793791     1.007825032230
         H            4.595656730736    -0.954020983766    -2.094040206209     1.007825032230
         H            3.723864730736    -2.370382983766    -0.339679206209     1.007825032230

  Running in c1 symmetry.

  Rotational constants: A =      0.05805  B =      0.01123  C =      0.01047 [cm^-1]
  Rotational constants: A =   1740.32218  B =    336.71613  C =    313.77988 [MHz]
  Nuclear repulsion =  880.377957714693366

  Charge       = 0
  Multiplicity = 1
  Electrons    = 104
  Nalpha       = 52
  Nbeta        = 52

  ==> Algorithm <==

  SCF Algorithm Type is DF.
  DIIS enabled.
  MOM disabled.
  Fractional occupation disabled.
  Guess Type is SAD.
  Energy threshold   = 1.00e-08
  Density threshold  = 1.00e-08
  Integral threshold = 1.00e-12

  ==> Primary Basis <==

  Basis Set: 6-311G
    Blend: 6-311G
    Number of shells: 146
    Number of basis functions: 230
    Number of Cartesian functions: 230
    Spherical Harmonics?: true
    Max angular momentum: 1

  ==> DFT Potential <==

   => LibXC <=

    Version 5.1.5
    S. Lehtola, C. Steigemann, M. J. Oliveira, and M. A. Marques, SoftwareX 7, 1 (2018) (10.1016/j.softx.2017.11.002)

   => Composite Functional: WB97X-D <= 

    wB97X-D Hyb-GGA Exchange-Correlation Functional

    J.-D. Chai and M. Head-Gordon, Phys. Chem. Chem. Phys. 10, 6615 (2008) (10.1039/B810189B)

    Deriv               =              1
    GGA                 =           TRUE
    Meta                =          FALSE

    Exchange Hybrid     =           TRUE
    MP2 Hybrid          =          FALSE

   => Exchange-Correlation Functionals <=

    1.0000   wB97X-D range-separated functional

   => Exact (HF) Exchange <=

    0.7780            HF,LR [omega = 0.2000]
    0.2220               HF 

   => LibXC Density Thresholds  <==

    XC_HYB_GGA_XC_WB97X_D:  1.00E-14 

   => Molecular Quadrature <=

    Radial Scheme          =       TREUTLER
    Pruning Scheme         =           NONE
    Nuclear Scheme         =       TREUTLER

    BS radius alpha        =              1
    Pruning alpha          =              1
    Radial Points          =             75
    Spherical Points       =            302
    Total Points           =         623514
    Total Blocks           =           4506
    Max Points             =            256
    Max Functions          =            182
    Weights Tolerance      =       1.00E-15

   => Loading Basis Set <=

    Name: (6-311G AUX)
    Role: JKFIT
    Keyword: DF_BASIS_SCF
    atoms 1, 4       entry N          line   177 file /home/bdw2292/miniconda3/envs/newamoebamdpoltype/share/psi4/basis/cc-pvtz-jkfit.gbs 
    atoms 2-3, 8-16  entry C          line   125 file /home/bdw2292/miniconda3/envs/newamoebamdpoltype/share/psi4/basis/cc-pvtz-jkfit.gbs 
    atoms 5          entry O          line   229 file /home/bdw2292/miniconda3/envs/newamoebamdpoltype/share/psi4/basis/cc-pvtz-jkfit.gbs 
    atoms 6-7, 17-30 entry H          line    51 file /home/bdw2292/miniconda3/envs/newamoebamdpoltype/share/psi4/basis/cc-pvtz-jkfit.gbs 

  ==> Integral Setup <==

  DFHelper Memory: AOs need 1.545 GiB; user supplied 3.506 GiB. Using in-core AOs.

  ==> MemDFJK: Density-Fitted J/K Matrices <==

    J tasked:                   Yes
    K tasked:                   Yes
    wK tasked:                  Yes
    Omega:                2.000E-01
    OpenMP threads:               2
    Memory [MiB]:              3589
    Algorithm:                 Core
    Schwarz Cutoff:           1E-12
    Mask sparsity (%):      19.1985
    Fitting Condition:        1E-10

   => Auxiliary Basis Set <=

  Basis Set: (6-311G AUX)
    Blend: CC-PVTZ-JKFIT
    Number of shells: 510
    Number of basis functions: 1586
    Number of Cartesian functions: 1904
    Spherical Harmonics?: true
    Max angular momentum: 4

  Cached 100.0% of DFT collocation blocks in 2.199 [GiB].

  Minimum eigenvalue in the overlap matrix is 2.6772613144E-04.
  Reciprocal condition number of the overlap matrix is 3.7528587285E-05.
    Using symmetric orthogonalization.

  ==> Pre-Iterations <==

  SCF Guess: Superposition of Atomic Densities via on-the-fly atomic UHF (no occupation information).

   -------------------------
    Irrep   Nso     Nmo    
   -------------------------
     A        230     230 
   -------------------------
    Total     230     230
   -------------------------

  ==> Iterations <==

                           Total Energy        Delta E     RMS |[F,P]|

   @DF-RKS iter SAD:  -612.16597496378915   -6.12166e+02   0.00000e+00 
   @DF-RKS iter   1:  -612.78132279715089   -6.15348e-01   4.37922e-03 DIIS
   @DF-RKS iter   2:  -612.89707643832674   -1.15754e-01   4.24679e-03 DIIS
   @DF-RKS iter   3:  -613.25175643987632   -3.54680e-01   1.13924e-03 DIIS
   @DF-RKS iter   4:  -613.27730749217858   -2.55511e-02   2.41781e-04 DIIS
   @DF-RKS iter   5:  -613.27848210666093   -1.17461e-03   1.00723e-04 DIIS
   @DF-RKS iter   6:  -613.27871279629767   -2.30690e-04   1.95069e-05 DIIS
   @DF-RKS iter   7:  -613.27872251746442   -9.72117e-06   5.92512e-06 DIIS
   @DF-RKS iter   8:  -613.27872379755036   -1.28009e-06   1.70872e-06 DIIS
   @DF-RKS iter   9:  -613.27872393638916   -1.38839e-07   9.00061e-07 DIIS
   @DF-RKS iter  10:  -613.27872397048327   -3.40941e-08   2.29432e-07 DIIS
   @DF-RKS iter  11:  -613.27872397388592   -3.40265e-09   9.46121e-08 DIIS
   @DF-RKS iter  12:  -613.27872397424244   -3.56522e-10   2.53624e-08 DIIS
   @DF-RKS iter  13:  -613.27872397429712   -5.46834e-11   9.09937e-09 DIIS
  Energy and wave function converged.


  ==> Post-Iterations <==

   Electrons on quadrature grid:
      Ntotal   =  104.0001352915 ; deviation = 1.353e-04 

    Orbital Energies [Eh]
    ---------------------

    Doubly Occupied:                                                      

       1A    -19.217325     2A    -14.472118     3A    -14.443212  
       4A    -10.406476     5A    -10.339840     6A    -10.330686  
       7A    -10.315193     8A    -10.312088     9A    -10.309441  
      10A    -10.297885    11A    -10.295414    12A    -10.293993  
      13A    -10.293276    14A    -10.292392    15A     -1.155529  
      16A     -1.039763    17A     -1.031448    18A     -0.952357  
      19A     -0.855217    20A     -0.850077    21A     -0.830879  
      22A     -0.814649    23A     -0.797518    24A     -0.725980  
      25A     -0.706230    26A     -0.697339    27A     -0.649898  
      28A     -0.600020    29A     -0.592625    30A     -0.577755  
      31A     -0.571683    32A     -0.560485    33A     -0.551667  
      34A     -0.530125    35A     -0.525793    36A     -0.517544  
      37A     -0.508569    38A     -0.494682    39A     -0.490822  
      40A     -0.484170    41A     -0.476769    42A     -0.471479  
      43A     -0.458618    44A     -0.455481    45A     -0.445387  
      46A     -0.439057    47A     -0.430850    48A     -0.350015  
      49A     -0.340885    50A     -0.326409    51A     -0.301875  
      52A     -0.298241  

    Virtual:                                                              

      53A      0.053676    54A      0.064951    55A      0.083099  
      56A      0.107606    57A      0.126251    58A      0.137285  
      59A      0.150884    60A      0.156996    61A      0.159796  
      62A      0.168900    63A      0.174032    64A      0.181961  
      65A      0.190275    66A      0.196378    67A      0.204926  
      68A      0.211327    69A      0.220150    70A      0.225755  
      71A      0.231456    72A      0.232628    73A      0.236597  
      74A      0.259923    75A      0.275961    76A      0.296179  
      77A      0.303854    78A      0.319473    79A      0.339628  
      80A      0.342754    81A      0.355198    82A      0.370726  
      83A      0.373033    84A      0.378135    85A      0.389328  
      86A      0.411148    87A      0.422225    88A      0.429459  
      89A      0.449449    90A      0.454202    91A      0.466973  
      92A      0.474763    93A      0.484746    94A      0.491930  
      95A      0.493660    96A      0.510739    97A      0.518627  
      98A      0.527203    99A      0.540187   100A      0.546970  
     101A      0.551251   102A      0.553978   103A      0.561568  
     104A      0.581796   105A      0.586862   106A      0.605082  
     107A      0.617068   108A      0.626199   109A      0.631593  
     110A      0.635656   111A      0.646961   112A      0.648852  
     113A      0.661328   114A      0.668861   115A      0.669632  
     116A      0.675833   117A      0.681844   118A      0.685288  
     119A      0.693386   120A      0.695565   121A      0.701138  
     122A      0.710222   123A      0.710475   124A      0.722171  
     125A      0.740699   126A      0.747781   127A      0.755838  
     128A      0.757255   129A      0.773877   130A      0.785655  
     131A      0.818810   132A      0.845557   133A      0.858903  
     134A      0.862739   135A      0.875585   136A      0.882447  
     137A      0.901325   138A      0.906542   139A      0.942123  
     140A      0.954860   141A      0.958426   142A      0.992445  
     143A      1.001739   144A      1.009810   145A      1.032929  
     146A      1.042923   147A      1.076871   148A      1.096730  
     149A      1.124812   150A      1.164677   151A      1.180243  
     152A      1.230902   153A      1.287679   154A      1.317158  
     155A      1.379099   156A      1.448575   157A      1.522905  
     158A      1.761835   159A      2.300006   160A      2.304723  
     161A      2.312458   162A      2.332200   163A      2.342343  
     164A      2.356981   165A      2.359522   166A      2.380101  
     167A      2.387139   168A      2.397452   169A      2.412089  
     170A      2.422694   171A      2.425850   172A      2.455969  
     173A      2.476983   174A      2.631081   175A      2.638499  
     176A      2.673382   177A      2.699239   178A      2.721770  
     179A      2.786190   180A      2.791226   181A      2.847013  
     182A      2.854015   183A      2.890836   184A      2.906287  
     185A      2.922795   186A      2.937605   187A      2.953668  
     188A      2.960059   189A      2.994284   190A      3.005419  
     191A      3.027367   192A      3.034709   193A      3.064530  
     194A      3.083066   195A      3.085369   196A      3.120312  
     197A      3.145346   198A      3.154435   199A      3.173618  
     200A      3.191520   201A      3.236648   202A      3.288786  
     203A      3.306986   204A      3.346828   205A      3.354374  
     206A      3.378092   207A      3.511274   208A      3.924829  
     209A      3.980819   210A      4.062094   211A      4.088988  
     212A      4.154816   213A      4.263470   214A      4.999159  
     215A      5.067747   216A      5.113280   217A     23.246465  
     218A     23.455219   219A     23.479735   220A     23.492625  
     221A     23.521710   222A     23.576304   223A     23.582270  
     224A     23.678622   225A     23.722114   226A     23.753360  
     227A     23.994253   228A     35.530538   229A     35.566938  
     230A     50.056279  

    Final Occupation by Irrep:
              A 
    DOCC [    52 ]

  @DF-RKS Final Energy:  -613.27872397429712

   => Energetics <=

    Nuclear Repulsion Energy =            880.3779577146933661
    One-Electron Energy =               -2577.2810776837791309
    Two-Electron Energy =                1144.0407973354199385
    DFT Exchange-Correlation Energy =     -60.3960348859176008
    Empirical Dispersion Energy =          -0.0203664547136358
    VV10 Nonlocal Energy =                  0.0000000000000000
    Total Energy =                       -613.2787239742971224

Computation Completed


Properties will be evaluated at   0.000000,   0.000000,   0.000000 [a0]

Properties computed using the SCF density matrix

  Nuclear Dipole Moment: [e a0]
     X:    12.7671      Y:    -3.1083      Z:    -7.2899

  Electronic Dipole Moment: [e a0]
     X:   -12.2889      Y:     2.7981      Z:     5.9816

  Dipole Moment: [e a0]
     X:     0.4782      Y:    -0.3102      Z:    -1.3083     Total:     1.4271

  Dipole Moment: [D]
     X:     1.2155      Y:    -0.7884      Z:    -3.3254     Total:     3.6273


*** tstop() called on node74.bme.utexas.edu at Wed Jun  8 13:32:08 2022
Module time:
	user time   =     133.04 seconds =       2.22 minutes
	system time =       6.91 seconds =       0.12 minutes
	total time  =         71 seconds =       1.18 minutes
Total time:
	user time   =     133.04 seconds =       2.22 minutes
	system time =       6.91 seconds =       0.12 minutes
	total time  =         71 seconds =       1.18 minutes

*** tstart() called on node74.bme.utexas.edu
*** at Wed Jun  8 13:32:08 2022


         ------------------------------------------------------------
                                   SCF GRAD                          
                          Rob Parrish, Justin Turney,                
                       Andy Simmonett, and Alex Sokolov              
         ------------------------------------------------------------

  ==> Geometry <==

    Molecular point group: c1
    Full point group: C1

    Geometry (in Angstrom), charge = 0, multiplicity = 1:

       Center              X                  Y                   Z               Mass       
    ------------   -----------------  -----------------  -----------------  -----------------
         N           -0.067260269264     0.192646016234    -0.462060206209    14.003074004430
         C            0.968609730736     0.543442016234     0.441314793791    12.000000000000
         C            2.393294730736     0.747886016234    -0.145315206209    12.000000000000
         N            3.005941730736    -0.428947983766    -0.797609206209    14.003074004430
         O            0.752420730736     0.702655016234     1.642566793791    15.994914619570
         H            2.417340730736     1.596989016234    -0.849718206209     1.007825032230
         H            3.066633730736     1.053540016234     0.674756793791     1.007825032230
         C           -1.434216269264     0.088630016234     0.021023793791    12.000000000000
         C           -4.100836269264    -0.097806983766     0.946753793791    12.000000000000
         C           -3.086616269264    -0.837906983766     1.568114793791    12.000000000000
         C           -3.785515269264     0.742739016234    -0.128533206209    12.000000000000
         C           -1.761828269264    -0.749206983766     1.119662793791    12.000000000000
         C           -2.466486269264     0.845921016234    -0.593009206209    12.000000000000
         C            0.158867730736    -0.125819983766    -1.893238206209    12.000000000000
         C            4.195758730736    -0.060588983766    -1.586993206209    12.000000000000
         C            3.342634730736    -1.479292983766     0.184881793791    12.000000000000
         H           -3.325152269264    -1.491269983766     2.409192793791     1.007825032230
         H           -4.570235269264     1.325248016234    -0.614902206209     1.007825032230
         H           -0.982012269264    -1.325044983766     1.620874793791     1.007825032230
         H           -2.241022269264     1.512383016234    -1.428037206209     1.007825032230
         H           -0.715947269264    -0.606438983766    -2.332819206209     1.007825032230
         H            0.368711730736     0.786832016234    -2.451042206209     1.007825032230
         H            0.995365730736    -0.812539983766    -2.010929206209     1.007825032230
         H            3.910279730736     0.663611016234    -2.367552206209     1.007825032230
         H            4.978328730736     0.379513016234    -0.945878206209     1.007825032230
         H            4.097785730736    -1.124995983766     0.906541793791     1.007825032230
         H            2.435062730736    -1.778613983766     0.734139793791     1.007825032230
         H           -5.130752269264    -0.174724983766     1.300612793791     1.007825032230
         H            4.595656730736    -0.954020983766    -2.094040206209     1.007825032230
         H            3.723864730736    -2.370382983766    -0.339679206209     1.007825032230

  Nuclear repulsion =  880.377957714693366

  ==> Basis Set <==

  Basis Set: 6-311G
    Blend: 6-311G
    Number of shells: 146
    Number of basis functions: 230
    Number of Cartesian functions: 230
    Spherical Harmonics?: true
    Max angular momentum: 1

  ==> DFJKGrad: Density-Fitted SCF Gradients <==

    Gradient:                    1
    J tasked:                  Yes
    K tasked:                  Yes
    wK tasked:                 Yes
    Omega:               2.000E-01
    OpenMP threads:              2
    Integrals threads:           2
    Memory [MiB]:             5841
    Schwarz Cutoff:          1E-12
    Fitting Condition:       1E-10

   => Auxiliary Basis Set <=

  Basis Set: (6-311G AUX)
    Blend: CC-PVTZ-JKFIT
    Number of shells: 510
    Number of basis functions: 1586
    Number of Cartesian functions: 1904
    Spherical Harmonics?: true
    Max angular momentum: 4

  ==> DFT Potential <==

   => LibXC <=

    Version 5.1.5
    S. Lehtola, C. Steigemann, M. J. Oliveira, and M. A. Marques, SoftwareX 7, 1 (2018) (10.1016/j.softx.2017.11.002)

   => Composite Functional: WB97X-D <= 

    wB97X-D Hyb-GGA Exchange-Correlation Functional

    J.-D. Chai and M. Head-Gordon, Phys. Chem. Chem. Phys. 10, 6615 (2008) (10.1039/B810189B)

    Deriv               =              1
    GGA                 =           TRUE
    Meta                =          FALSE

    Exchange Hybrid     =           TRUE
    MP2 Hybrid          =          FALSE

   => Exchange-Correlation Functionals <=

    1.0000   wB97X-D range-separated functional

   => Exact (HF) Exchange <=

    0.7780            HF,LR [omega = 0.2000]
    0.2220               HF 

   => LibXC Density Thresholds  <==

    XC_HYB_GGA_XC_WB97X_D:  1.00E-14 

   => Molecular Quadrature <=

    Radial Scheme          =       TREUTLER
    Pruning Scheme         =           NONE
    Nuclear Scheme         =       TREUTLER

    BS radius alpha        =              1
    Pruning alpha          =              1
    Radial Points          =             75
    Spherical Points       =            302
    Total Points           =         623514
    Total Blocks           =           4506
    Max Points             =            256
    Max Functions          =            182
    Weights Tolerance      =       1.00E-15


  -Total Gradient:
     Atom            X                  Y                   Z
    ------   -----------------  -----------------  -----------------
       1       -0.003385781200     0.003407751561    -0.011500951662
       2        0.004756769945     0.010995808437     0.035264442762
       3       -0.006536995099    -0.001778526713     0.000536465240
       4       -0.000212900157     0.004395636781    -0.000701393833
       5       -0.000995685341    -0.003551243395    -0.009942910668
       6        0.007040150757     0.007891224094    -0.000717575875
       7        0.009866463036    -0.001704513398    -0.005047204334
       8        0.007203425308    -0.002228387387    -0.009257936594
       9       -0.001182041364    -0.000474631897     0.000635306299
      10       -0.002104361159    -0.001378793068     0.001931870520
      11       -0.001372267900     0.001465727959     0.001065140359
      12       -0.002088606123    -0.004655770551     0.009171937142
      13       -0.007733395551     0.007741173734    -0.005296400852
      14       -0.004577804992    -0.003067950264    -0.002649763694
      15        0.007930480172     0.000488890818     0.005754734592
      16        0.009806798472     0.003185462266     0.004029181706
      17       -0.001687131081    -0.004049647942     0.005113483914
      18       -0.004807062543     0.003323770771    -0.003133455396
      19        0.004526749600    -0.005593364355     0.004773371113
      20       -0.000793605967     0.004456336676    -0.005605453510
      21        0.002155138669    -0.003582641468    -0.006385489460
      22       -0.000753670312    -0.000426504443     0.002981445512
      23       -0.002189617759    -0.003510699088    -0.003384303923
      24       -0.002867896097     0.003976177102    -0.005987471949
      25       -0.001483609818     0.000116478328     0.002633056415
      26        0.000521057582     0.001894152466    -0.000351802037
      27       -0.006997066219    -0.002901493439     0.002794312670
      28       -0.006557970463    -0.000795823489     0.002292921089
      29        0.002530294075    -0.006282393344    -0.005363746819
      30        0.001897772618    -0.007282123152    -0.003467819551


*** tstop() called on node74.bme.utexas.edu at Wed Jun  8 13:32:42 2022
Module time:
	user time   =      63.26 seconds =       1.05 minutes
	system time =       1.59 seconds =       0.03 minutes
	total time  =         34 seconds =       0.57 minutes
Total time:
	user time   =     196.30 seconds =       3.27 minutes
	system time =       8.50 seconds =       0.14 minutes
	total time  =        105 seconds =       1.75 minutes

			-----------------------------------------
			 OPTKING 2.0: for geometry optimizations 
			  - R.A. King,  Bethel University        
			-----------------------------------------
	At level 1: Red. Int., RFO, no backsteps, dynamic trust

	Internal coordinates to be generated automatically.
	Detected frag 1 with atoms:  1 2 3 4 5 6 7 8 9 10 11 12 13 14 15 16 17 18 19 20
	 21 22 23 24 25 26 27 28 29 30
	---Fragment 1 Bond Connectivity---
	 1 : 2 8 14
	 2 : 1 3 5
	 3 : 2 4 6 7
	 4 : 3 15 16
	 5 : 2
	 6 : 3
	 7 : 3
	 8 : 1 12 13
	 9 : 10 11 28
	 10 : 9 12 17
	 11 : 9 13 18
	 12 : 8 10 19
	 13 : 8 11 20
	 14 : 1 21 22 23
	 15 : 4 24 25 29
	 16 : 4 26 27 30
	 17 : 10
	 18 : 11
	 19 : 12
	 20 : 13
	 21 : 14
	 22 : 14
	 23 : 14
	 24 : 15
	 25 : 15
	 26 : 16
	 27 : 16
	 28 : 9
	 29 : 15
	 30 : 16

	Assuming in current code that numbering for constraints corresponds to unified fragment.
	Frozen dihedral atom list: 
	     1     2     3     4
	     2     1     8    12
	     8     1     2     3
	     2     3     4    15
	---Fragment 1 Geometry and Gradient---
	 N          -0.1271034880        0.3640482098       -0.8731672432
	 C           1.8304071135        1.0269565757        0.8339640954
	 C           4.5226715786        1.4132997437       -0.2746059416
	 N           5.6804066202       -0.8105942114       -1.5072629549
	 O           1.4218691122        1.3278255414        3.1040013830
	 H           4.5681119330        3.0178718660       -1.6057346935
	 H           5.7950978782        1.9909020929        1.2751055416
	 C          -2.7102759536        0.1674864572        0.0397292124
	 C          -7.7494574343       -0.1848284125        1.7891053785
	 C          -5.8328594033       -1.5834147179        2.9633074935
	 C          -7.1535871026        1.4035733234       -0.2428925578
	 C          -3.3293729090       -1.4157960106        2.1158560331
	 C          -4.6609835411        1.5985590445       -1.1206249896
	 C           0.3002165013       -0.2377653104       -3.5777017000
	 C           7.9288348896       -0.1144965855       -2.9989825227
	 C           6.3166641785       -2.7954585986        0.3493759558
	 H          -6.2836271144       -2.8180918484        4.5527145637
	 H          -8.6364929878        2.5043557990       -1.1619967637
	 H          -1.8557342407       -2.5039721232        3.0630094439
	 H          -4.2349183300        2.8579896975       -2.6985992167
	 H          -1.3529442592       -1.1460035911       -4.4083893999
	 H           0.6967641903        1.4868970174       -4.6317984917
	 H           1.8809686258       -1.5354780353       -3.8001054574
	 H           7.3893577650        1.2540430745       -4.4740252575
	 H           9.4076778636        0.7171756617       -1.7874507578
	 H           7.7436927519       -2.1259343016        1.7131157115
	 H           4.6016016594       -3.3610933122        1.3873231481
	 H          -9.6957166065       -0.3301823666        2.4578019755
	 H           8.6845325877       -1.8028383773       -3.9571624854
	 H           7.0370844693       -4.4793746518       -0.6419006702
	            -0.0033857812        0.0034077516       -0.0115009517
	             0.0047567699        0.0109958084        0.0352644428
	            -0.0065369951       -0.0017785267        0.0005364652
	            -0.0002129002        0.0043956368       -0.0007013938
	            -0.0009956853       -0.0035512434       -0.0099429107
	             0.0070401508        0.0078912241       -0.0007175759
	             0.0098664630       -0.0017045134       -0.0050472043
	             0.0072034253       -0.0022283874       -0.0092579366
	            -0.0011820414       -0.0004746319        0.0006353063
	            -0.0021043612       -0.0013787931        0.0019318705
	            -0.0013722679        0.0014657280        0.0010651404
	            -0.0020886061       -0.0046557706        0.0091719371
	            -0.0077333956        0.0077411737       -0.0052964009
	            -0.0045778050       -0.0030679503       -0.0026497637
	             0.0079304802        0.0004888908        0.0057547346
	             0.0098067985        0.0031854623        0.0040291817
	            -0.0016871311       -0.0040496479        0.0051134839
	            -0.0048070625        0.0033237708       -0.0031334554
	             0.0045267496       -0.0055933644        0.0047733711
	            -0.0007936060        0.0044563367       -0.0056054535
	             0.0021551387       -0.0035826415       -0.0063854895
	            -0.0007536703       -0.0004265044        0.0029814455
	            -0.0021896178       -0.0035106991       -0.0033843039
	            -0.0028678961        0.0039761771       -0.0059874719
	            -0.0014836098        0.0001164783        0.0026330564
	             0.0005210576        0.0018941525       -0.0003518020
	            -0.0069970662       -0.0029014934        0.0027943127
	            -0.0065579705       -0.0007958235        0.0022929211
	             0.0025302941       -0.0062823933       -0.0053637468
	             0.0018977726       -0.0072821232       -0.0034678196

	Previous optimization step data not found.  Starting new optimization.

	---Fragment 1 Intrafragment Coordinates---
	 - Coordinate -           - BOHR/RAD -       - ANG/DEG -
	 R(1,2)           =         2.680596	       1.418510
	 R(1,8)           =         2.746779	       1.453533
	 R(1,14)          =         2.803442	       1.483518
	 R(2,3)           =         2.937086	       1.554239
	 R(2,5)           =         2.326047	       1.230891
	 R(3,4)           =         2.793832	       1.478432
	 R(3,6)           =         2.085335	       1.103512
	 R(3,7)           =         2.086696	       1.104232
	 R(4,15)          =         2.786612	       1.474612
	 R(4,16)          =         2.791347	       1.477117
	 R(8,12)          =         2.683350	       1.419968
	 R(8,13)          =         2.683216	       1.419897
	 R(9,10)          =         2.647290	       1.400885
	 R(9,11)          =         2.647092	       1.400781
	 R(9,28)          =         2.063058	       1.091723
	 R(10,12)         =         2.648342	       1.401442
	 R(10,17)         =         2.062482	       1.091419
	 R(11,13)         =         2.649812	       1.402220
	 R(11,18)         =         2.062883	       1.091630
	 R(12,19)         =         2.062241	       1.091291
	 R(13,20)         =         2.063419	       1.091915
	 R(14,21)         =         2.061038	       1.090655
	 R(14,22)         =         2.059813	       1.090006
	 R(14,23)         =         2.057255	       1.088653
	 R(15,24)         =         2.083192	       1.102378
	 R(15,25)         =         2.084818	       1.103238
	 R(15,29)         =         2.083191	       1.102377
	 R(16,26)         =         2.084337	       1.102983
	 R(16,27)         =         2.082959	       1.102254
	 R(16,30)         =         2.082596	       1.102063
	 B(1,2,3)         =         2.050527	     117.486544
	 B(1,2,5)         =         2.123796	     121.684520
	 B(1,8,12)        =         2.113370	     121.087207
	 B(1,8,13)        =         2.096486	     120.119776
	 B(1,14,21)       =         1.940308	     111.171471
	 B(1,14,22)       =         1.921217	     110.077631
	 B(1,14,23)       =         1.935666	     110.905501
	 B(2,1,8)         =         2.086096	     119.524491
	 B(2,1,14)        =         2.160550	     123.790424
	 B(2,3,4)         =         2.028256	     116.210530
	 B(2,3,6)         =         1.941335	     111.230319
	 B(2,3,7)         =         1.891309	     108.363999
	 B(3,2,5)         =         2.108694	     120.819276
	 B(3,4,15)        =         1.951637	     111.820573
	 B(3,4,16)        =         1.946589	     111.531325
	 B(4,3,6)         =         1.898451	     108.773211
	 B(4,3,7)         =         1.870583	     107.176492
	 B(4,15,24)       =         1.911546	     109.523529
	 B(4,15,25)       =         1.940039	     111.156058
	 B(4,15,29)       =         1.913961	     109.661880
	 B(4,16,26)       =         1.942105	     111.274429
	 B(4,16,27)       =         1.914374	     109.685559
	 B(4,16,30)       =         1.914746	     109.706870
	 B(6,3,7)         =         1.821193	     104.346685
	 B(8,1,14)        =         2.036008	     116.654659
	 B(8,12,10)       =         2.097891	     120.200283
	 B(8,12,19)       =         2.096508	     120.121047
	 B(8,13,11)       =         2.095989	     120.091336
	 B(8,13,20)       =         2.101483	     120.406119
	 B(9,10,12)       =         2.104837	     120.598254
	 B(9,10,17)       =         2.094216	     119.989737
	 B(9,11,13)       =         2.106187	     120.675631
	 B(9,11,18)       =         2.094853	     120.026208
	 B(10,9,11)       =         2.088086	     119.638491
	 B(10,9,28)       =         2.096715	     120.132925
	 B(10,12,19)      =         2.088782	     119.678412
	 B(11,9,28)       =         2.098383	     120.228462
	 B(11,13,20)      =         2.085713	     119.502529
	 B(12,8,13)       =         2.073218	     118.786623
	 B(12,10,17)      =         2.084133	     119.412005
	 B(13,11,18)      =         2.082145	     119.298128
	 B(15,4,16)       =         1.928124	     110.473348
	 B(21,14,22)      =         1.893500	     108.489548
	 B(21,14,23)      =         1.870013	     107.143859
	 B(22,14,23)      =         1.901716	     108.960287
	 B(24,15,25)      =         1.910388	     109.457160
	 B(24,15,29)      =         1.876209	     107.498879
	 B(25,15,29)      =         1.910575	     109.467904
	 B(26,16,27)      =         1.901721	     108.960604
	 B(26,16,30)      =         1.911675	     109.530894
	 B(27,16,30)      =         1.878049	     107.604269
	*D(1,2,3,4)       =        -1.074379	     -61.557372
	 D(1,2,3,6)       =         1.110329	      63.617192
	 D(1,2,3,7)       =         3.102543	     177.762608
	 D(1,8,12,10)     =        -3.138950	    -179.848593
	 D(1,8,12,19)     =         0.005880	       0.336900
	 D(1,8,13,11)     =         3.138974	     179.849942
	 D(1,8,13,20)     =        -0.003427	      -0.196365
	*D(2,1,8,12)      =        -0.951106	     -54.494346
	 D(2,1,8,13)      =         2.174235	     124.574503
	 D(2,1,14,21)     =         2.889712	     165.568325
	 D(2,1,14,22)     =        -1.294856	     -74.189769
	 D(2,1,14,23)     =         0.811040	      46.469172
	*D(2,3,4,15)      =         2.908381	     166.637958
	 D(2,3,4,16)      =        -1.205996	     -69.098508
	*D(3,2,1,8)       =        -3.061644	    -175.419269
	 D(3,2,1,14)      =         0.116178	       6.656515
	 D(3,4,15,24)     =        -1.041158	     -59.653936
	 D(3,4,15,25)     =         1.072028	      61.422700
	 D(3,4,15,29)     =        -3.096125	    -177.394907
	 D(3,4,16,26)     =        -1.099187	     -62.978793
	 D(3,4,16,27)     =         1.006360	      57.660158
	 D(3,4,16,30)     =         3.065706	     175.651995
	 D(4,3,2,5)       =         2.086621	     119.554576
	 D(5,2,1,8)       =         0.060363	       3.458545
	 D(5,2,1,14)      =        -3.045000	    -174.465671
	 D(5,2,3,6)       =        -2.011856	    -115.270861
	 D(5,2,3,7)       =        -0.019643	      -1.125444
	 D(6,3,4,15)      =         0.702022	      40.222900
	 D(6,3,4,16)      =         2.870830	     164.486435
	 D(7,3,4,15)      =        -1.257484	     -72.048522
	 D(7,3,4,16)      =         0.911324	      52.215012
	 D(8,1,14,21)     =        -0.216607	     -12.410685
	 D(8,1,14,22)     =         1.882010	     107.831221
	 D(8,1,14,23)     =        -2.295280	    -131.509838
	 D(8,12,10,9)     =        -0.007035	      -0.403072
	 D(8,12,10,17)    =         3.134122	     179.571949
	 D(8,13,11,9)     =         0.006695	       0.383605
	 D(8,13,11,18)    =        -3.133756	    -179.550964
	 D(9,10,12,19)    =         3.131335	     179.412257
	 D(9,11,13,20)    =        -3.134097	    -179.570507
	 D(10,9,11,13)    =         0.005256	       0.301151
	 D(10,9,11,18)    =        -3.137487	    -179.764755
	 D(10,12,8,13)    =         0.018682	       1.070402
	 D(11,9,10,12)    =        -0.005088	      -0.291496
	 D(11,9,10,17)    =         3.136944	     179.733627
	 D(11,13,8,12)    =        -0.018499	      -1.059920
	 D(12,8,1,14)     =         2.156798	     123.575437
	 D(12,8,13,20)    =         3.122285	     178.893774
	 D(12,10,9,28)    =         3.138721	     179.835450
	 D(13,8,1,14)     =        -1.001046	     -57.355714
	 D(13,8,12,19)    =        -3.119673	    -178.744105
	 D(13,11,9,28)    =        -3.138554	    -179.825918
	 D(15,4,16,26)    =         1.082785	      62.039025
	 D(15,4,16,27)    =        -3.094853	    -177.322024
	 D(15,4,16,30)    =        -1.035507	     -59.330187
	 D(16,4,15,24)    =         3.062928	     175.492827
	 D(16,4,15,25)    =        -1.107072	     -63.430537
	 D(16,4,15,29)    =         1.007960	      57.751856
	 D(17,10,9,28)    =        -0.002433	      -0.139427
	 D(17,10,12,19)   =        -0.010694	      -0.612722
	 D(18,11,9,28)    =         0.001888	       0.108177
	 D(18,11,13,20)   =         0.008638	       0.494923
	 R(4,14)          =         5.793211	       3.065635
	 R(5,12)          =         5.574782	       2.950047

	Current energy   :      -613.2787239743

	Generating empirical Hessian (Schlegel '84) for each fragment.
	Taking RFO optimization step.
	Going to follow RFO solution 1.
	Using RFO vector 1.
	Norm of target step-size    0.39847
	Projected energy change by RFO approximation:        -0.0198814075

	Back-transformation to cartesian coordinates...
	Could not converge backtransformation.
	Using first guess instead.

	Back-transformation to cartesian coordinates to adjust frozen coordinates...
	Successfully converged to displaced geometry.

	--- Internal Coordinate Step in ANG or DEG, aJ/ANG or AJ/DEG ---
	 ---------------------------------------------------------------------------
	   Coordinate                Previous        Force       Change         New 
	   ----------                --------       ------       ------       ------
	    1 R(1,2)          =      1.418510    -0.187959    -0.034144     1.384366
	    2 R(1,8)          =      1.453533    -0.108161    -0.020732     1.432801
	    3 R(1,14)         =      1.483518    -0.075555    -0.010406     1.473112
	    4 R(2,3)          =      1.554239    -0.138172    -0.035505     1.518734
	    5 R(2,5)          =      1.230891     0.085214     0.006838     1.237729
	    6 R(3,4)          =      1.478432    -0.037533    -0.007682     1.470750
	    7 R(3,6)          =      1.103512    -0.055013    -0.006478     1.097033
	    8 R(3,7)          =      1.104232    -0.014800     0.000579     1.104810
	    9 R(4,15)         =      1.474612    -0.050293    -0.008162     1.466450
	   10 R(4,16)         =      1.477117    -0.056241    -0.008853     1.468264
	   11 R(8,12)         =      1.419968    -0.165926    -0.026074     1.393894
	   12 R(8,13)         =      1.419897    -0.174920    -0.025514     1.394383
	   13 R(9,10)         =      1.400885    -0.064530    -0.007278     1.393608
	   14 R(9,11)         =      1.400781    -0.074192    -0.009035     1.391746
	   15 R(9,28)         =      1.091723    -0.057511    -0.010081     1.081642
	   16 R(10,12)        =      1.401442    -0.080461    -0.010794     1.390648
	   17 R(10,17)        =      1.091419    -0.055407    -0.009570     1.081849
	   18 R(11,13)        =      1.402220    -0.079208    -0.010430     1.391790
	   19 R(11,18)        =      1.091630    -0.054608    -0.009172     1.082459
	   20 R(12,19)        =      1.091291    -0.069002    -0.011515     1.079776
	   21 R(13,20)        =      1.091915    -0.056445    -0.009519     1.082395
	   22 R(14,21)        =      1.090655    -0.019942    -0.002751     1.087904
	   23 R(14,22)        =      1.090006     0.016634     0.005448     1.095454
	   24 R(14,23)        =      1.088653    -0.007398     0.001305     1.089957
	   25 R(15,24)        =      1.102378    -0.062541    -0.011307     1.091071
	   26 R(15,25)        =      1.103238    -0.004301     0.000504     1.103742
	   27 R(15,29)        =      1.102377    -0.069911    -0.012008     1.090369
	   28 R(16,26)        =      1.102983    -0.005956    -0.000259     1.102724
	   29 R(16,27)        =      1.102254    -0.065421    -0.010950     1.091304
	   30 R(16,30)        =      1.102063    -0.067644    -0.011659     1.090404
	   31 B(1,2,3)        =    117.486544     0.000531     0.091565   117.578110
	   32 B(1,2,5)        =    121.684520     0.000353     0.960631   122.645150
	   33 B(1,8,12)       =    121.087207     0.000328     0.297770   121.384976
	   34 B(1,8,13)       =    120.119776    -0.000621    -1.195819   118.923957
	   35 B(1,14,21)      =    111.171471    -0.000723    -3.225242   107.946229
	   36 B(1,14,22)      =    110.077631     0.000406     1.745501   111.823133
	   37 B(1,14,23)      =    110.905501    -0.000297    -1.091338   109.814163
	   38 B(2,1,8)        =    119.524491     0.000286     0.151745   119.676236
	   39 B(2,1,14)       =    123.790424     0.000082    -0.616337   123.174087
	   40 B(2,3,4)        =    116.210530    -0.000053    -1.848222   114.362308
	   41 B(2,3,6)        =    111.230319    -0.000172    -1.988272   109.242047
	   42 B(2,3,7)        =    108.363999    -0.000677    -2.972044   105.391955
	   43 B(3,2,5)        =    120.819276    -0.000886    -1.110913   119.708362
	   44 B(3,4,15)       =    111.820573    -0.000116    -0.104868   111.715704
	   45 B(3,4,16)       =    111.531325    -0.000135    -0.145970   111.385355
	   46 B(4,3,6)        =    108.773211     0.000019    -0.396307   108.376904
	   47 B(4,3,7)        =    107.176492     0.000668     4.919575   112.096067
	   48 B(4,15,24)      =    109.523529     0.000052     0.320134   109.843662
	   49 B(4,15,25)      =    111.156058     0.000309     1.268634   112.424692
	   50 B(4,15,29)      =    109.661880    -0.000127    -0.598509   109.063372
	   51 B(4,16,26)      =    111.274429     0.000189     0.689108   111.963536
	   52 B(4,16,27)      =    109.685559     0.000030     0.166228   109.851787
	   53 B(4,16,30)      =    109.706870    -0.000096    -0.358081   109.348789
	   54 B(6,3,7)        =    104.346685     0.000279     2.760380   107.107065
	   55 B(8,1,14)       =    116.654659    -0.000363     0.417459   117.072118
	   56 B(8,12,10)      =    120.200283    -0.000018    -0.283033   119.917249
	   57 B(8,12,19)      =    120.121047    -0.000149    -0.545033   119.576014
	   58 B(8,13,11)      =    120.091336     0.000105     0.098842   120.190178
	   59 B(8,13,20)      =    120.406119    -0.000226    -0.780105   119.626015
	   60 B(9,10,12)      =    120.598254    -0.000076    -0.103593   120.494661
	   61 B(9,10,17)      =    119.989737     0.000054     0.142227   120.131963
	   62 B(9,11,13)      =    120.675631    -0.000167    -0.478653   120.196978
	   63 B(9,11,18)      =    120.026208     0.000082     0.233487   120.259695
	   64 B(10,9,11)      =    119.638491    -0.000137    -0.134412   119.504079
	   65 B(10,9,28)      =    120.132925     0.000086     0.154648   120.287573
	   66 B(10,12,19)     =    119.678412     0.000167     0.821677   120.500089
	   67 B(11,9,28)      =    120.228462     0.000052    -0.020408   120.208054
	   68 B(11,13,20)     =    119.502529     0.000121     0.681255   120.183784
	   69 B(12,8,13)      =    118.786623     0.000293     0.902905   119.689527
	   70 B(12,10,17)     =    119.412005     0.000021    -0.038685   119.373320
	   71 B(13,11,18)     =    119.298128     0.000085     0.241763   119.539891
	   72 B(15,4,16)      =    110.473348     0.000309     1.676941   112.150288
	   73 B(21,14,22)     =    108.489548     0.000119     0.240007   108.729555
	   74 B(21,14,23)     =    107.143859     0.000559     2.567710   109.711568
	   75 B(22,14,23)     =    108.960287    -0.000047    -0.169252   108.791035
	   76 B(24,15,25)     =    109.457160    -0.000168    -0.691058   108.766102
	   77 B(24,15,29)     =    107.498879     0.000067     0.399728   107.898606
	   78 B(25,15,29)     =    109.467904    -0.000143    -0.732527   108.735377
	   79 B(26,16,27)     =    108.960604    -0.000121    -0.484839   108.475765
	   80 B(26,16,30)     =    109.530894    -0.000078    -0.459926   109.070968
	   81 B(27,16,30)     =    107.604269     0.000072     0.438997   108.043266
	   82 *D(1,2,3,4)     =    -61.557372     0.000000     0.000000   -61.557372
	   83 D(1,2,3,6)      =     63.617192    -0.000038    -3.531543    60.085649
	   84 D(1,2,3,7)      =    177.762608    -0.000072    -2.889787   174.872821
	   85 D(1,8,12,10)    =   -179.848593     0.000004     0.702952  -179.145641
	   86 D(1,8,12,19)    =      0.336900     0.000011     1.450583     1.787483
	   87 D(1,8,13,11)    =    179.849942    -0.000012    -1.268560   178.581382
	   88 D(1,8,13,20)    =     -0.196365    -0.000010    -1.167191    -1.363555
	   89 *D(2,1,8,12)    =    -54.494346     0.000000     0.000000   -54.494346
	   90 D(2,1,8,13)     =    124.574503     0.000010     1.384028   125.958531
	   91 D(2,1,14,21)    =    165.568325     0.000019     1.575000   167.143324
	   92 D(2,1,14,22)    =    -74.189769     0.000007     0.889122   -73.300648
	   93 D(2,1,14,23)    =     46.469172     0.000011     1.100596    47.569769
	   94 *D(2,3,4,15)    =    166.637958     0.000000     0.000000   166.637958
	   95 D(2,3,4,16)     =    -69.098508     0.000050     2.021956   -67.076552
	   96 *D(3,2,1,8)     =   -175.419269    -0.000000     0.000000  -175.419269
	   97 D(3,2,1,14)     =      6.656515    -0.000039    -5.374491     1.282025
	   98 D(3,4,15,24)    =    -59.653936    -0.000003     0.493619   -59.160316
	   99 D(3,4,15,25)    =     61.422700     0.000003     0.676749    62.099449
	  100 D(3,4,15,29)    =   -177.394907    -0.000011     0.174235  -177.220671
	  101 D(3,4,16,26)    =    -62.978793    -0.000002    -1.017117   -63.995910
	  102 D(3,4,16,27)    =     57.660158    -0.000004    -1.065719    56.594438
	  103 D(3,4,16,30)    =    175.651995     0.000007    -0.646243   175.005752
	  104 D(4,3,2,5)      =    119.554576     0.000032     1.815241   121.369816
	  105 D(5,2,1,8)      =      3.458545    -0.000035    -1.897320     1.561225
	  106 D(5,2,1,14)     =   -174.465671    -0.000074    -7.271810  -181.737481
	  107 D(5,2,3,6)      =   -115.270861    -0.000007    -1.716302  -116.987163
	  108 D(5,2,3,7)      =     -1.125444    -0.000040    -1.074546    -2.199991
	  109 D(6,3,4,15)     =     40.222900     0.000060     4.298240    44.521141
	  110 D(6,3,4,16)     =    164.486435     0.000109     6.320196   170.806631
	  111 D(7,3,4,15)     =    -72.048522    -0.000092    -1.426001   -73.474523
	  112 D(7,3,4,16)     =     52.215012    -0.000043     0.595955    52.810967
	  113 D(8,1,14,21)    =    -12.410685    -0.000021    -3.664601   -16.075287
	  114 D(8,1,14,22)    =    107.831221    -0.000033    -4.350480   103.480741
	  115 D(8,1,14,23)    =   -131.509838    -0.000029    -4.139005  -135.648843
	  116 D(8,12,10,9)    =     -0.403072     0.000006     0.656621     0.253549
	  117 D(8,12,10,17)   =    179.571949     0.000006     0.596257   180.168207
	  118 D(8,13,11,9)    =      0.383605     0.000006     0.516356     0.899961
	  119 D(8,13,11,18)   =   -179.550964    -0.000002    -0.221636  -179.772600
	  120 D(9,10,12,19)   =    179.412257    -0.000002    -0.100576   179.311681
	  121 D(9,11,13,20)   =   -179.570507     0.000005     0.415097  -179.155410
	  122 D(10,9,11,13)   =      0.301151    -0.000005    -0.547243    -0.246092
	  123 D(10,9,11,18)   =   -179.764755     0.000002     0.196100  -179.568654
	  124 D(10,12,8,13)   =      1.070402    -0.000004    -0.672329     0.398072
	  125 D(11,9,10,12)   =     -0.291496    -0.000001    -0.038992    -0.330488
	  126 D(11,9,10,17)   =    179.733627    -0.000000     0.021876   179.755503
	  127 D(11,13,8,12)   =     -1.059920    -0.000002     0.086341    -0.973579
	  128 D(12,8,1,14)    =    123.575437     0.000038     5.030814   128.606252
	  129 D(12,8,13,20)   =    178.893774    -0.000000     0.187710   179.081483
	  130 D(12,10,9,28)   =    179.835450     0.000000     0.030907   179.866357
	  131 D(13,8,1,14)    =    -57.355714     0.000048     6.414842   -50.940871
	  132 D(13,8,12,19)   =   -178.744105     0.000003     0.075302  -178.668803
	  133 D(13,11,9,28)   =   -179.825918    -0.000006    -0.616861  -180.442778
	  134 D(15,4,16,26)   =     62.039025    -0.000007     0.011157    62.050182
	  135 D(15,4,16,27)   =   -177.322024    -0.000009    -0.037445  -177.359469
	  136 D(15,4,16,30)   =    -59.330187     0.000002     0.382031   -58.948155
	  137 D(16,4,15,24)   =    175.492827     0.000004    -0.519377   174.973450
	  138 D(16,4,15,25)   =    -63.430537     0.000010    -0.336248   -63.766785
	  139 D(16,4,15,29)   =     57.751856    -0.000004    -0.838761    56.913095
	  140 D(17,10,9,28)   =     -0.139427     0.000001     0.091775    -0.047652
	  141 D(17,10,12,19)  =     -0.612722    -0.000002    -0.160940    -0.773662
	  142 D(18,11,9,28)   =      0.108177     0.000001     0.126483     0.234660
	  143 D(18,11,13,20)  =      0.494923    -0.000003    -0.322895     0.172028
	  144 R(4,14)         =      3.065635    -0.063889    -0.061371     3.004264
	  145 R(5,12)         =      2.950047    -0.033231    -0.014203     2.935844
	 ---------------------------------------------------------------------------
	Successfully symmetrized geometry.

  ==> Convergence Check <==

  Measures of convergence in internal coordinates in au.
  Criteria marked as inactive (o), active & met (*), and active & unmet ( ).
  --------------------------------------------------------------------------------------------- ~
   Step     Total Energy     Delta E     MAX Force     RMS Force      MAX Disp      RMS Disp    ~
  --------------------------------------------------------------------------------------------- ~
    Convergence Criteria             o    2.50e-03 *    1.70e-03 *    1.00e-02 *    6.70e-03 *  ~
  --------------------------------------------------------------------------------------------- ~
      1    -613.27872397   -6.13e+02 o    2.28e-02      5.31e-03      1.27e-01      3.29e-02    ~
  ---------------------------------------------------------------------------------------------

	Writing optimization data to binary file.
	Structure for next step:
	Cartesian Geometry (in Angstrom)
	    N    -0.0320787774   0.1909098192  -0.4346470211
	    C     0.9819291621   0.5346996029   0.4428866014
	    C     2.3698449841   0.7485833824  -0.1354709263
	    N     2.9458849085  -0.4384642492  -0.7852408095
	    O     0.7847319433   0.7232984336   1.6501635898
	    H     2.3337447013   1.5620145515  -0.8706639755
	    H     2.9883972707   1.1012502438   0.7092923664
	    C    -1.3769371581   0.0748029254   0.0457626823
	    C    -4.0237842453  -0.1412332918   0.9110555413
	    C    -3.0137060744  -0.8587763375   1.5490342170
	    C    -3.7038152518   0.6886035785  -0.1594335789
	    C    -1.6952095571  -0.7555770322   1.1191273012
	    C    -2.3838749879   0.8041588010  -0.5854429030
	    C     0.1825527688  -0.0000119704  -1.8794794527
	    C     4.1253062116  -0.0990393729  -1.5878817338
	    C     3.2266658868  -1.4994384267   0.1901029362
	    H    -3.2504277182  -1.5037666065   2.3847064438
	    H    -4.4776597432   1.2568670985  -0.6593915345
	    H    -0.9109206135  -1.3029150683   1.6203547237
	    H    -2.1333450585   1.4600578964  -1.4092209888
	    H    -0.7033055133  -0.4804119477  -2.2893647907
	    H     0.3375970274   0.9526692698  -2.3975335433
	    H     1.0536792947  -0.6343826373  -2.0429409841
	    H     3.8539124188   0.6259391605  -2.3567683015
	    H     4.9435896699   0.3203940654  -0.9773618733
	    H     3.9948864597  -1.1954733969   0.9204750090
	    H     2.3149914880  -1.7544756422   0.7330117359
	    H    -5.0485090730  -0.2256706071   1.2468504632
	    H     4.4867117914  -0.9981813413  -2.0877167908
	    H     3.5678256606  -2.3919994012  -0.3351835603
			--------------------------
			 OPTKING Finished Execution 
			--------------------------

    Structure for next step:
    Molecular point group: c1
    Full point group: C1

    Geometry (in Angstrom), charge = 0, multiplicity = 1:

    N           -0.048095669389     0.196996191119    -0.436534291510
    C            0.965912274080     0.540785976109     0.440999334489
    C            2.353828101555     0.754669756443    -0.137358195502
    N            2.929868028192    -0.432377879775    -0.787128081309
    O            0.768715054530     0.729384807534     1.648276327585
    H            2.317727818615     1.568100928806    -0.872551247649
    H            2.972380390626     1.107336619211     0.707405100504
    C           -1.392954055378     0.080889296844     0.043875413816
    C           -4.039801153021    -0.135146921252     0.909168276218
    C           -3.029722978135    -0.852689969724     1.547146954417
    C           -3.719832158203     0.694689952368    -0.161320848277
    C           -1.711226455599    -0.749490664093     1.117240036852
    C           -2.399891889172     0.810245175266    -0.587330174038
    C            0.166535877656     0.006074400678    -1.881366728794
    C            4.109289335941    -0.092953002180    -1.589769008763
    C            3.210649007644    -1.493352061434     0.188215668215
    H           -3.266444622814    -1.497680241300     2.382819184507
    H           -4.493676652680     1.262953474601    -0.661278805768
    H           -0.926937508929    -1.296828702265     1.618467461353
    H           -2.149361958739     1.466144273270    -1.411108263057
    H           -0.719322407879    -0.474325578509    -2.291252068389
    H            0.321580136845     0.958755644685    -2.399420821438
    H            1.037662407022    -0.628296268695    -2.044828260847
    H            3.837895542102     0.632025534048    -2.358655579437
    H            4.927572797452     0.326480437816    -0.979249145888
    H            3.978869583517    -1.189387030458     0.918587743954
    H            2.298974605290    -1.748389277979     0.731124470110
    H           -5.064525984721    -0.219584236901     1.244963199432
    H            4.470694917174    -0.992094974132    -2.089604067744
    H            3.551808782770    -2.385913039448    -0.337070830316


Scratch directory: /scratch/bdw2292/Psi4-25_27_Index_0-farH_in17/

Scratch directory: /scratch/bdw2292/Psi4-25_27_Index_0-farH_in17/
gradient() will perform analytic gradient computation.

*** tstart() called on node74.bme.utexas.edu
*** at Wed Jun  8 13:32:44 2022

   => Loading Basis Set <=

    Name: 6-311G
    Role: ORBITAL
    Keyword: BASIS
    atoms 1, 4       entry N          line   109 file /home/bdw2292/miniconda3/envs/newamoebamdpoltype/share/psi4/basis/6-311g.gbs 
    atoms 2-3, 8-16  entry C          line    92 file /home/bdw2292/miniconda3/envs/newamoebamdpoltype/share/psi4/basis/6-311g.gbs 
    atoms 5          entry O          line   126 file /home/bdw2292/miniconda3/envs/newamoebamdpoltype/share/psi4/basis/6-311g.gbs 
    atoms 6-7, 17-30 entry H          line    21 file /home/bdw2292/miniconda3/envs/newamoebamdpoltype/share/psi4/basis/6-311g.gbs 

   => WB97X-D: Empirical Dispersion <=

    Chai and Head-Gordon Dispersion Correction
    Chai, J.-D.; Head-Gordon, M. (2010), J. Chem. Phys., 132: 6615-6620

        s6 =       1.000000


         ---------------------------------------------------------
                                   SCF
               by Justin Turney, Rob Parrish, Andy Simmonett
                          and Daniel G. A. Smith
                              RKS Reference
                        2 Threads,   7788 MiB Core
         ---------------------------------------------------------

  ==> Geometry <==

    Molecular point group: c1
    Full point group: C1

    Geometry (in Angstrom), charge = 0, multiplicity = 1:

       Center              X                  Y                   Z               Mass       
    ------------   -----------------  -----------------  -----------------  -----------------
         N           -0.048095669389     0.196996191119    -0.436534291510    14.003074004430
         C            0.965912274080     0.540785976109     0.440999334489    12.000000000000
         C            2.353828101555     0.754669756443    -0.137358195502    12.000000000000
         N            2.929868028192    -0.432377879775    -0.787128081309    14.003074004430
         O            0.768715054530     0.729384807534     1.648276327585    15.994914619570
         H            2.317727818615     1.568100928806    -0.872551247649     1.007825032230
         H            2.972380390626     1.107336619211     0.707405100504     1.007825032230
         C           -1.392954055378     0.080889296844     0.043875413816    12.000000000000
         C           -4.039801153021    -0.135146921252     0.909168276218    12.000000000000
         C           -3.029722978135    -0.852689969724     1.547146954417    12.000000000000
         C           -3.719832158203     0.694689952368    -0.161320848277    12.000000000000
         C           -1.711226455599    -0.749490664093     1.117240036852    12.000000000000
         C           -2.399891889172     0.810245175266    -0.587330174038    12.000000000000
         C            0.166535877656     0.006074400678    -1.881366728794    12.000000000000
         C            4.109289335941    -0.092953002180    -1.589769008763    12.000000000000
         C            3.210649007644    -1.493352061434     0.188215668215    12.000000000000
         H           -3.266444622814    -1.497680241300     2.382819184507     1.007825032230
         H           -4.493676652680     1.262953474601    -0.661278805768     1.007825032230
         H           -0.926937508929    -1.296828702265     1.618467461353     1.007825032230
         H           -2.149361958739     1.466144273270    -1.411108263057     1.007825032230
         H           -0.719322407879    -0.474325578509    -2.291252068389     1.007825032230
         H            0.321580136845     0.958755644685    -2.399420821438     1.007825032230
         H            1.037662407022    -0.628296268695    -2.044828260847     1.007825032230
         H            3.837895542102     0.632025534048    -2.358655579437     1.007825032230
         H            4.927572797452     0.326480437816    -0.979249145888     1.007825032230
         H            3.978869583517    -1.189387030458     0.918587743954     1.007825032230
         H            2.298974605290    -1.748389277979     0.731124470110     1.007825032230
         H           -5.064525984721    -0.219584236901     1.244963199432     1.007825032230
         H            4.470694917174    -0.992094974132    -2.089604067744     1.007825032230
         H            3.551808782770    -2.385913039448    -0.337070830316     1.007825032230

  Running in c1 symmetry.

  Rotational constants: A =      0.05825  B =      0.01171  C =      0.01088 [cm^-1]
  Rotational constants: A =   1746.21678  B =    351.17443  C =    326.25210 [MHz]
  Nuclear repulsion =  892.507864266242791

  Charge       = 0
  Multiplicity = 1
  Electrons    = 104
  Nalpha       = 52
  Nbeta        = 52

  ==> Algorithm <==

  SCF Algorithm Type is DF.
  DIIS enabled.
  MOM disabled.
  Fractional occupation disabled.
  Guess Type is READ.
  Energy threshold   = 1.00e-08
  Density threshold  = 1.00e-08
  Integral threshold = 1.00e-12

  ==> Primary Basis <==

  Basis Set: 6-311G
    Blend: 6-311G
    Number of shells: 146
    Number of basis functions: 230
    Number of Cartesian functions: 230
    Spherical Harmonics?: true
    Max angular momentum: 1

  ==> DFT Potential <==

   => LibXC <=

    Version 5.1.5
    S. Lehtola, C. Steigemann, M. J. Oliveira, and M. A. Marques, SoftwareX 7, 1 (2018) (10.1016/j.softx.2017.11.002)

   => Composite Functional: WB97X-D <= 

    wB97X-D Hyb-GGA Exchange-Correlation Functional

    J.-D. Chai and M. Head-Gordon, Phys. Chem. Chem. Phys. 10, 6615 (2008) (10.1039/B810189B)

    Deriv               =              1
    GGA                 =           TRUE
    Meta                =          FALSE

    Exchange Hybrid     =           TRUE
    MP2 Hybrid          =          FALSE

   => Exchange-Correlation Functionals <=

    1.0000   wB97X-D range-separated functional

   => Exact (HF) Exchange <=

    0.7780            HF,LR [omega = 0.2000]
    0.2220               HF 

   => LibXC Density Thresholds  <==

    XC_HYB_GGA_XC_WB97X_D:  1.00E-14 

   => Molecular Quadrature <=

    Radial Scheme          =       TREUTLER
    Pruning Scheme         =           NONE
    Nuclear Scheme         =       TREUTLER

    BS radius alpha        =              1
    Pruning alpha          =              1
    Radial Points          =             75
    Spherical Points       =            302
    Total Points           =         622426
    Total Blocks           =           4491
    Max Points             =            256
    Max Functions          =            181
    Weights Tolerance      =       1.00E-15

   => Loading Basis Set <=

    Name: (6-311G AUX)
    Role: JKFIT
    Keyword: DF_BASIS_SCF
    atoms 1, 4       entry N          line   177 file /home/bdw2292/miniconda3/envs/newamoebamdpoltype/share/psi4/basis/cc-pvtz-jkfit.gbs 
    atoms 2-3, 8-16  entry C          line   125 file /home/bdw2292/miniconda3/envs/newamoebamdpoltype/share/psi4/basis/cc-pvtz-jkfit.gbs 
    atoms 5          entry O          line   229 file /home/bdw2292/miniconda3/envs/newamoebamdpoltype/share/psi4/basis/cc-pvtz-jkfit.gbs 
    atoms 6-7, 17-30 entry H          line    51 file /home/bdw2292/miniconda3/envs/newamoebamdpoltype/share/psi4/basis/cc-pvtz-jkfit.gbs 

   => Loading Basis Set <=

    Name: 6-311G
    Role: ORBITAL
    Keyword: BASIS
    atoms 1, 4       entry N          line   109 file /home/bdw2292/miniconda3/envs/newamoebamdpoltype/share/psi4/basis/6-311g.gbs 
    atoms 2-3, 8-16  entry C          line    92 file /home/bdw2292/miniconda3/envs/newamoebamdpoltype/share/psi4/basis/6-311g.gbs 
    atoms 5          entry O          line   126 file /home/bdw2292/miniconda3/envs/newamoebamdpoltype/share/psi4/basis/6-311g.gbs 
    atoms 6-7, 17-30 entry H          line    21 file /home/bdw2292/miniconda3/envs/newamoebamdpoltype/share/psi4/basis/6-311g.gbs 

  Reading orbitals from file /scratch/bdw2292/Psi4-25_27_Index_0-farH_in17/25_27_Index_0-opt-1_2-3-299.default.1117986.180.npy, no projection.

  ==> Integral Setup <==

  DFHelper Memory: AOs need 1.561 GiB; user supplied 3.479 GiB. Using in-core AOs.

  ==> MemDFJK: Density-Fitted J/K Matrices <==

    J tasked:                   Yes
    K tasked:                   Yes
    wK tasked:                  Yes
    Omega:                2.000E-01
    OpenMP threads:               2
    Memory [MiB]:              3562
    Algorithm:                 Core
    Schwarz Cutoff:           1E-12
    Mask sparsity (%):      18.3819
    Fitting Condition:        1E-10

   => Auxiliary Basis Set <=

  Basis Set: (6-311G AUX)
    Blend: CC-PVTZ-JKFIT
    Number of shells: 510
    Number of basis functions: 1586
    Number of Cartesian functions: 1904
    Spherical Harmonics?: true
    Max angular momentum: 4

  Cached 100.0% of DFT collocation blocks in 2.226 [GiB].

  Minimum eigenvalue in the overlap matrix is 2.4255945506E-04.
  Reciprocal condition number of the overlap matrix is 3.3624525470E-05.
    Using symmetric orthogonalization.

  ==> Pre-Iterations <==

  SCF Guess: Orbitals guess was supplied from a previous computation.

   -------------------------------------------------------
    Irrep   Nso     Nmo     Nalpha   Nbeta   Ndocc  Nsocc
   -------------------------------------------------------
     A        230     230      52      52      52       0
   -------------------------------------------------------
    Total     230     230      52      52      52       0
   -------------------------------------------------------

  ==> Iterations <==

                           Total Energy        Delta E     RMS |[F,P]|

   @DF-RKS iter   0:  -613.39407019064538   -6.13394e+02   9.30118e-04 
   @DF-RKS iter   1:  -613.28660201839909    1.07468e-01   1.70957e-04 DIIS
   @DF-RKS iter   2:  -613.28654754559727    5.44728e-05   2.25607e-04 DIIS
   @DF-RKS iter   3:  -613.28755182144118   -1.00428e-03   3.34542e-05 DIIS
   @DF-RKS iter   4:  -613.28757969430285   -2.78729e-05   1.57770e-05 DIIS
   @DF-RKS iter   5:  -613.28758741015690   -7.71585e-06   3.96237e-06 DIIS
   @DF-RKS iter   6:  -613.28758786088861   -4.50732e-07   1.79663e-06 DIIS
   @DF-RKS iter   7:  -613.28758797019509   -1.09306e-07   2.82293e-07 DIIS
   @DF-RKS iter   8:  -613.28758797751789   -7.32280e-09   1.68686e-07 DIIS
   @DF-RKS iter   9:  -613.28758797889395   -1.37607e-09   4.88860e-08 DIIS
   @DF-RKS iter  10:  -613.28758797908665   -1.92699e-10   2.24702e-08 DIIS
   @DF-RKS iter  11:  -613.28758797912531   -3.86535e-11   7.28543e-09 DIIS
  Energy and wave function converged.


  ==> Post-Iterations <==

   Electrons on quadrature grid:
      Ntotal   =  104.0000211691 ; deviation = 2.117e-05 

    Orbital Energies [Eh]
    ---------------------

    Doubly Occupied:                                                      

       1A    -19.210070     2A    -14.472161     3A    -14.442902  
       4A    -10.397617     5A    -10.333068     6A    -10.324717  
       7A    -10.312643     8A    -10.312287     9A    -10.306572  
      10A    -10.292396    11A    -10.291829    12A    -10.290113  
      13A    -10.288834    14A    -10.288254    15A     -1.151594  
      16A     -1.049330    17A     -1.037553    18A     -0.960205  
      19A     -0.863456    20A     -0.854715    21A     -0.834527  
      22A     -0.818981    23A     -0.803778    24A     -0.730656  
      25A     -0.711720    26A     -0.700828    27A     -0.653806  
      28A     -0.603580    29A     -0.597276    30A     -0.583914  
      31A     -0.574064    32A     -0.562115    33A     -0.555118  
      34A     -0.532965    35A     -0.528024    36A     -0.518576  
      37A     -0.509784    38A     -0.495997    39A     -0.490086  
      40A     -0.487226    41A     -0.476341    42A     -0.471525  
      43A     -0.461644    44A     -0.460528    45A     -0.445649  
      46A     -0.439791    47A     -0.432084    48A     -0.354644  
      49A     -0.338267    50A     -0.325797    51A     -0.302896  
      52A     -0.298772  

    Virtual:                                                              

      53A      0.056622    54A      0.066749    55A      0.089452  
      56A      0.108744    57A      0.128611    58A      0.137243  
      59A      0.152777    60A      0.158630    61A      0.161676  
      62A      0.171442    63A      0.175908    64A      0.182682  
      65A      0.191103    66A      0.199399    67A      0.207717  
      68A      0.214532    69A      0.225463    70A      0.226171  
      71A      0.236846    72A      0.239398    73A      0.244016  
      74A      0.268425    75A      0.282673    76A      0.301650  
      77A      0.305848    78A      0.326244    79A      0.342241  
      80A      0.348509    81A      0.360476    82A      0.375708  
      83A      0.377813    84A      0.383817    85A      0.393494  
      86A      0.419916    87A      0.429598    88A      0.438112  
      89A      0.458356    90A      0.460970    91A      0.474674  
      92A      0.481353    93A      0.485987    94A      0.495788  
      95A      0.499014    96A      0.516141    97A      0.525081  
      98A      0.530267    99A      0.542781   100A      0.550761  
     101A      0.552018   102A      0.554303   103A      0.562542  
     104A      0.582962   105A      0.591258   106A      0.610618  
     107A      0.619525   108A      0.628449   109A      0.635489  
     110A      0.641664   111A      0.653101   112A      0.657500  
     113A      0.665889   114A      0.673765   115A      0.675405  
     116A      0.683304   117A      0.686145   118A      0.688531  
     119A      0.698927   120A      0.701875   121A      0.705673  
     122A      0.713890   123A      0.717485   124A      0.728069  
     125A      0.742840   126A      0.747261   127A      0.756560  
     128A      0.763657   129A      0.784103   130A      0.786014  
     131A      0.824652   132A      0.851370   133A      0.861834  
     134A      0.865798   135A      0.884994   136A      0.898743  
     137A      0.909870   138A      0.918712   139A      0.951543  
     140A      0.962822   141A      0.968559   142A      0.997173  
     143A      1.005551   144A      1.018766   145A      1.040225  
     146A      1.050127   147A      1.079084   148A      1.104618  
     149A      1.131674   150A      1.180229   151A      1.187316  
     152A      1.231186   153A      1.295502   154A      1.328045  
     155A      1.386927   156A      1.453510   157A      1.534345  
     158A      1.783375   159A      2.300458   160A      2.308706  
     161A      2.320590   162A      2.333536   163A      2.348535  
     164A      2.359634   165A      2.367717   166A      2.383362  
     167A      2.390753   168A      2.411716   169A      2.414938  
     170A      2.426909   171A      2.436526   172A      2.461764  
     173A      2.492230   174A      2.638663   175A      2.643553  
     176A      2.677458   177A      2.702363   178A      2.731714  
     179A      2.769605   180A      2.779292   181A      2.847247  
     182A      2.856430   183A      2.895395   184A      2.913273  
     185A      2.924498   186A      2.944563   187A      2.962195  
     188A      2.975360   189A      3.000372   190A      3.008780  
     191A      3.024790   192A      3.051540   193A      3.083479  
     194A      3.088980   195A      3.103351   196A      3.126816  
     197A      3.147694   198A      3.167376   199A      3.188216  
     200A      3.216271   201A      3.243634   202A      3.309920  
     203A      3.320879   204A      3.360938   205A      3.384967  
     206A      3.392928   207A      3.525897   208A      3.929134  
     209A      3.986751   210A      4.067054   211A      4.096030  
     212A      4.163108   213A      4.287354   214A      5.007642  
     215A      5.073785   216A      5.120474   217A     23.247589  
     218A     23.459629   219A     23.486597   220A     23.498745  
     221A     23.526116   222A     23.588172   223A     23.599866  
     224A     23.701791   225A     23.741850   226A     23.769652  
     227A     24.024119   228A     35.534181   229A     35.577596  
     230A     50.067942  

    Final Occupation by Irrep:
              A 
    DOCC [    52 ]

  @DF-RKS Final Energy:  -613.28758797912531

   => Energetics <=

    Nuclear Repulsion Energy =            892.5078642662427910
    One-Electron Energy =               -2601.3745447261089794
    Two-Electron Energy =                1156.1102765416262628
    DFT Exchange-Correlation Energy =     -60.5103780576155259
    Empirical Dispersion Energy =          -0.0208060032699247
    VV10 Nonlocal Energy =                  0.0000000000000000
    Total Energy =                       -613.2875879791253055

Computation Completed


Properties will be evaluated at   0.000000,   0.000000,   0.000000 [a0]

Properties computed using the SCF density matrix

  Nuclear Dipole Moment: [e a0]
     X:    12.2714      Y:    -2.9120      Z:    -7.3398

  Electronic Dipole Moment: [e a0]
     X:   -11.8396      Y:     2.5987      Z:     5.9766

  Dipole Moment: [e a0]
     X:     0.4318      Y:    -0.3133      Z:    -1.3633     Total:     1.4639

  Dipole Moment: [D]
     X:     1.0975      Y:    -0.7964      Z:    -3.4651     Total:     3.7209


*** tstop() called on node74.bme.utexas.edu at Wed Jun  8 13:33:47 2022
Module time:
	user time   =     119.41 seconds =       1.99 minutes
	system time =       4.42 seconds =       0.07 minutes
	total time  =         63 seconds =       1.05 minutes
Total time:
	user time   =     316.68 seconds =       5.28 minutes
	system time =      12.96 seconds =       0.22 minutes
	total time  =        170 seconds =       2.83 minutes

*** tstart() called on node74.bme.utexas.edu
*** at Wed Jun  8 13:33:47 2022


         ------------------------------------------------------------
                                   SCF GRAD                          
                          Rob Parrish, Justin Turney,                
                       Andy Simmonett, and Alex Sokolov              
         ------------------------------------------------------------

  ==> Geometry <==

    Molecular point group: c1
    Full point group: C1

    Geometry (in Angstrom), charge = 0, multiplicity = 1:

       Center              X                  Y                   Z               Mass       
    ------------   -----------------  -----------------  -----------------  -----------------
         N           -0.048095669389     0.196996191119    -0.436534291510    14.003074004430
         C            0.965912274080     0.540785976109     0.440999334489    12.000000000000
         C            2.353828101555     0.754669756443    -0.137358195502    12.000000000000
         N            2.929868028192    -0.432377879775    -0.787128081309    14.003074004430
         O            0.768715054530     0.729384807534     1.648276327585    15.994914619570
         H            2.317727818615     1.568100928806    -0.872551247649     1.007825032230
         H            2.972380390626     1.107336619211     0.707405100504     1.007825032230
         C           -1.392954055378     0.080889296844     0.043875413816    12.000000000000
         C           -4.039801153021    -0.135146921252     0.909168276218    12.000000000000
         C           -3.029722978135    -0.852689969724     1.547146954417    12.000000000000
         C           -3.719832158203     0.694689952368    -0.161320848277    12.000000000000
         C           -1.711226455599    -0.749490664093     1.117240036852    12.000000000000
         C           -2.399891889172     0.810245175266    -0.587330174038    12.000000000000
         C            0.166535877656     0.006074400678    -1.881366728794    12.000000000000
         C            4.109289335941    -0.092953002180    -1.589769008763    12.000000000000
         C            3.210649007644    -1.493352061434     0.188215668215    12.000000000000
         H           -3.266444622814    -1.497680241300     2.382819184507     1.007825032230
         H           -4.493676652680     1.262953474601    -0.661278805768     1.007825032230
         H           -0.926937508929    -1.296828702265     1.618467461353     1.007825032230
[...]
	 D(9,11,13,20)    =        -3.125851	    -179.098067
	 D(10,9,11,13)    =        -0.002419	      -0.138621
	 D(10,9,11,18)    =        -3.136540	    -179.710515
	 D(10,12,8,13)    =        -0.005570	      -0.319156
	 D(11,9,10,12)    =        -0.006833	      -0.391515
	 D(11,9,10,17)    =         3.140047	     179.911451
	 D(11,13,8,12)    =        -0.003618	      -0.207303
	 D(12,8,1,14)     =         2.357740	     135.088551
	 D(12,8,13,20)    =         3.129869	     179.328301
	 D(12,10,9,28)    =         3.136859	     179.728763
	 D(13,8,1,14)     =        -0.741145	     -42.464492
	 D(13,8,12,19)    =        -3.123840	    -178.982855
	 D(13,11,9,28)    =         3.137075	     179.741137
	 D(15,4,16,26)    =         1.126983	      64.571345
	 D(15,4,16,27)    =        -3.052638	    -174.903260
	 D(15,4,16,30)    =        -0.981118	     -56.213911
	 D(16,4,15,24)    =         3.031366	     173.684504
	 D(16,4,15,25)    =        -1.141042	     -65.376901
	 D(16,4,15,29)    =         0.962822	      55.165609
	 D(17,10,9,28)    =         0.000554	       0.031729
	 D(17,10,12,19)   =        -0.018001	      -1.031353
	 D(18,11,9,28)    =         0.002954	       0.169243
	 D(18,11,13,20)   =         0.008314	       0.476354
	 R(1,16)          =         6.898481	       3.650519
	 R(4,14)          =         5.718232	       3.025958
	 R(5,12)          =         5.499827	       2.910383

	Current energy   :      -613.2890673015

	Energy change for the previous step:
		Projected    :        -0.0000084217
		Actual       :        -0.0000086504

	Performing BFGS update.
	Previous computed or guess Hessian on step 1.
	Steps to be used in Hessian update: 1
	Taking RFO optimization step.
	Going to follow RFO solution 1.
	Using RFO vector 1.
	Norm of target step-size    0.01078
	Projected energy change by RFO approximation:        -0.0000024940

	Back-transformation to cartesian coordinates...
	Successfully converged to displaced geometry.

	Back-transformation to cartesian coordinates to adjust frozen coordinates...
	Successfully converged to displaced geometry.

	--- Internal Coordinate Step in ANG or DEG, aJ/ANG or AJ/DEG ---
	 ---------------------------------------------------------------------------
	   Coordinate                Previous        Force       Change         New 
	   ----------                --------       ------       ------       ------
	    1 R(1,2)          =      1.375564    -0.000454    -0.000047     1.375517
	    2 R(1,8)          =      1.434128    -0.001224    -0.000168     1.433961
	    3 R(1,14)         =      1.468844    -0.000186    -0.000034     1.468810
	    4 R(2,3)          =      1.522574    -0.000213    -0.000045     1.522529
	    5 R(2,5)          =      1.245106     0.000421     0.000027     1.245133
	    6 R(3,4)          =      1.464029    -0.000410    -0.000097     1.463932
	    7 R(3,6)          =      1.093042     0.000055     0.000009     1.093051
	    8 R(3,7)          =      1.097892    -0.000028     0.000001     1.097894
	    9 R(4,15)         =      1.460299    -0.000165    -0.000037     1.460263
	   10 R(4,16)         =      1.461917     0.000130    -0.000029     1.461889
	   11 R(8,12)         =      1.395899     0.000601     0.000067     1.395965
	   12 R(8,13)         =      1.395856    -0.001139    -0.000149     1.395707
	   13 R(9,10)         =      1.394361     0.000328     0.000046     1.394407
	   14 R(9,11)         =      1.392086     0.000191     0.000016     1.392102
	   15 R(9,28)         =      1.081306    -0.000001    -0.000004     1.081301
	   16 R(10,12)        =      1.390812    -0.000232    -0.000034     1.390778
	   17 R(10,17)        =      1.081434     0.000059     0.000007     1.081441
	   18 R(11,13)        =      1.393060     0.000313     0.000038     1.393098
	   19 R(11,18)        =      1.081593    -0.000026    -0.000007     1.081586
	   20 R(12,19)        =      1.078349    -0.000057    -0.000013     1.078336
	   21 R(13,20)        =      1.081270     0.000203     0.000029     1.081299
	   22 R(14,21)        =      1.087506     0.000584    -0.000014     1.087492
	   23 R(14,22)        =      1.094225    -0.000392    -0.000162     1.094062
	   24 R(14,23)        =      1.086790    -0.000327    -0.000132     1.086657
	   25 R(15,24)        =      1.090798     0.000047     0.000007     1.090806
	   26 R(15,25)        =      1.102930     0.000040     0.000011     1.102941
	   27 R(15,29)        =      1.089903     0.000053     0.000008     1.089911
	   28 R(16,26)        =      1.102300     0.000030     0.000008     1.102308
	   29 R(16,27)        =      1.089266     0.000116     0.000013     1.089279
	   30 R(16,30)        =      1.089639    -0.000039    -0.000007     1.089631
	   31 B(1,2,3)        =    118.068430    -0.000004     0.002799   118.071229
	   32 B(1,2,5)        =    122.541576     0.000003     0.000202   122.541778
	   33 B(1,8,12)       =    120.642007     0.000004     0.009178   120.651185
	   34 B(1,8,13)       =    119.640617    -0.000009    -0.022528   119.618089
	   35 B(1,14,21)      =    108.550939     0.000003     0.009740   108.560680
	   36 B(1,14,22)      =    111.905544    -0.000006    -0.018724   111.886820
	   37 B(1,14,23)      =    108.797438     0.000001     0.006259   108.803697
	   38 B(2,1,8)        =    119.974375    -0.000001    -0.013934   119.960441
	   39 B(2,1,14)       =    121.934293     0.000010     0.036690   121.970983
	   40 B(2,3,4)        =    113.188972     0.000001    -0.009599   113.179374
	   41 B(2,3,6)        =    109.427198    -0.000001    -0.002553   109.424645
	   42 B(2,3,7)        =    105.564251    -0.000001    -0.004126   105.560125
	   43 B(3,2,5)        =    119.389389     0.000001    -0.003537   119.385851
	   44 B(3,4,15)       =    112.880965    -0.000000     0.007998   112.888964
	   45 B(3,4,16)       =    113.089252     0.000001    -0.000888   113.088365
	   46 B(4,3,6)        =    108.091698    -0.000000     0.000591   108.092289
	   47 B(4,3,7)        =    112.471829     0.000001     0.008281   112.480110
	   48 B(4,15,24)      =    109.798159     0.000001     0.001872   109.800031
	   49 B(4,15,25)      =    112.774682     0.000001     0.003487   112.778169
	   50 B(4,15,29)      =    109.434869     0.000002     0.008226   109.443095
	   51 B(4,16,26)      =    112.348788     0.000002     0.009244   112.358032
	   52 B(4,16,27)      =    110.065548     0.000000     0.001034   110.066582
	   53 B(4,16,30)      =    109.374862    -0.000001    -0.002270   109.372592
	   54 B(6,3,7)        =    107.955396     0.000001     0.007954   107.963350
	   55 B(8,1,14)       =    117.363654    -0.000008    -0.031438   117.332216
	   56 B(8,12,10)      =    119.896646    -0.000001    -0.003891   119.892756
	   57 B(8,12,19)      =    119.489814     0.000001     0.000661   119.490475
	   58 B(8,13,11)      =    120.173005    -0.000003    -0.009070   120.163936
	   59 B(8,13,20)      =    119.896415     0.000001     0.002319   119.898734
	   60 B(9,10,12)      =    120.521776    -0.000002    -0.005356   120.516420
	   61 B(9,10,17)      =    120.045428     0.000001    -0.000227   120.045200
	   62 B(9,11,13)      =    120.193962     0.000001     0.002220   120.196182
	   63 B(9,11,18)      =    120.197214     0.000001     0.003041   120.200255
	   64 B(10,9,11)      =    119.538906     0.000001     0.002916   119.541822
	   65 B(10,9,28)      =    120.245200    -0.000001    -0.004496   120.240704
	   66 B(10,12,19)     =    120.599878     0.000001     0.003038   120.602915
	   67 B(11,9,28)      =    120.215784     0.000000     0.001579   120.217363
	   68 B(11,13,20)     =    119.928952     0.000002     0.007164   119.936116
	   69 B(12,8,13)      =    119.672402     0.000005     0.012916   119.685318
	   70 B(12,10,17)     =    119.432110     0.000002     0.005524   119.437634
	   71 B(13,11,18)     =    119.607451    -0.000001    -0.005201   119.602250
	   72 B(15,4,16)      =    113.198563    -0.000001     0.014046   113.212609
	   73 B(21,14,22)     =    108.599119     0.000001     0.003881   108.603000
	   74 B(21,14,23)     =    108.945388    -0.000003    -0.016128   108.929260
	   75 B(22,14,23)     =    109.987983     0.000003     0.014685   110.002668
	   76 B(24,15,25)     =    108.354748    -0.000001    -0.007117   108.347631
	   77 B(24,15,29)     =    108.115322    -0.000001    -0.003505   108.111817
	   78 B(25,15,29)     =    108.243398    -0.000001    -0.003463   108.239935
	   79 B(26,16,27)     =    108.107092    -0.000001    -0.003468   108.103624
	   80 B(26,16,30)     =    108.688567    -0.000001    -0.004009   108.684557
	   81 B(27,16,30)     =    108.153502     0.000000    -0.000926   108.152576
	   82 *D(1,2,3,4)     =    -61.557372    -0.000000     0.000000   -61.557372
	   83 D(1,2,3,6)      =     59.060503    -0.000000    -0.007417    59.053087
	   84 D(1,2,3,7)      =    175.009225    -0.000000    -0.001560   175.007665
	   85 D(1,8,12,10)    =   -177.871426     0.000000     0.018521  -177.852905
	   86 D(1,8,12,19)    =      3.464875     0.000000     0.027861     3.492736
	   87 D(1,8,13,11)    =    177.369697    -0.000000    -0.040214   177.329483
	   88 D(1,8,13,20)    =     -3.094699     0.000000     0.023103    -3.071596
	   89 *D(2,1,8,12)    =    -54.494346    -0.000000     0.000000   -54.494346
	   90 D(2,1,8,13)     =    127.952611     0.000000     0.011481   127.964091
	   91 D(2,1,14,21)    =    157.886081     0.000000     0.210415   158.096496
	   92 D(2,1,14,22)    =    -82.276095     0.000000     0.210062   -82.066033
	   93 D(2,1,14,23)    =     39.462853     0.000000     0.220661    39.683515
	   94 *D(2,3,4,15)    =    166.637958    -0.000000     0.000000   166.637958
	   95 D(2,3,4,16)     =    -63.218151    -0.000000     0.026432   -63.191720
	   96 *D(3,2,1,8)     =   -175.419269     0.000000     0.000000  -175.419269
	   97 D(3,2,1,14)     =     -5.452155    -0.000000    -0.062396    -5.514551
	   98 D(3,4,15,24)    =    -56.227061     0.000000     0.008024   -56.219036
	   99 D(3,4,15,25)    =     64.711535    -0.000000     0.002607    64.714143
	  100 D(3,4,15,29)    =   -174.745955     0.000000     0.006231  -174.739724
	  101 D(3,4,16,26)    =    -65.411935    -0.000000    -0.098479   -65.510413
	  102 D(3,4,16,27)    =     55.113460    -0.000000    -0.096006    55.017454
	  103 D(3,4,16,30)    =    173.802809    -0.000000    -0.097898   173.704911
	  104 D(4,3,2,5)      =    118.718519     0.000000     0.102841   118.821360
	  105 D(5,2,1,8)      =      4.295577    -0.000000    -0.106308     4.189269
	  106 D(5,2,1,14)     =    174.262691    -0.000001    -0.168704   174.093987
	  107 D(5,2,3,6)      =   -120.663606     0.000000     0.095424  -120.568182
	  108 D(5,2,3,7)      =     -4.714884     0.000000     0.101280    -4.613603
	  109 D(6,3,4,15)     =     45.265027     0.000000     0.008992    45.274019
	  110 D(6,3,4,16)     =    175.408918    -0.000000     0.035423   175.444341
	  111 D(7,3,4,15)     =    -73.818927    -0.000000    -0.006255   -73.825182
	  112 D(7,3,4,16)     =     56.324964    -0.000000     0.020176    56.345140
	  113 D(8,1,14,21)    =    -31.897415     0.000000     0.151029   -31.746386
	  114 D(8,1,14,22)    =     87.940409     0.000000     0.150676    88.091085
	  115 D(8,1,14,23)    =   -150.320642     0.000000     0.161275  -150.159368
	  116 D(8,12,10,9)    =      0.621129     0.000000     0.013802     0.634931
	  117 D(8,12,10,17)   =   -179.679990     0.000000     0.001123  -179.678867
	  118 D(8,13,11,9)    =      0.437385     0.000000     0.031488     0.468873
	  119 D(8,13,11,18)   =   -179.988194     0.000000     0.041014  -179.947181
	  120 D(9,10,12,19)   =    179.269766     0.000000     0.004323   179.274089
	  121 D(9,11,13,20)   =   -179.098067    -0.000000    -0.031830  -179.129897
	  122 D(10,9,11,13)   =     -0.138621    -0.000000    -0.011463    -0.150083
	  123 D(10,9,11,18)   =   -179.710515    -0.000000    -0.021010  -179.731525
	  124 D(10,12,8,13)   =     -0.319156     0.000000     0.006171    -0.312985
	  125 D(11,9,10,12)   =     -0.391515    -0.000000    -0.011229    -0.402744
	  126 D(11,9,10,17)   =    179.911451     0.000000     0.001510   179.912962
	  127 D(11,13,8,12)   =     -0.207303    -0.000000    -0.028764    -0.236067
	  128 D(12,8,1,14)    =    135.088551    -0.000000     0.052895   135.141446
	  129 D(12,8,13,20)   =    179.328301     0.000000     0.034553   179.362853
	  130 D(12,10,9,28)   =    179.728763    -0.000000    -0.010549   179.718214
	  131 D(13,8,1,14)    =    -42.464492    -0.000000     0.064375   -42.400117
	  132 D(13,8,12,19)   =   -178.982855     0.000000     0.015510  -178.967344
	  133 D(13,11,9,28)   =    179.741137    -0.000000    -0.012150   179.728988
	  134 D(15,4,16,26)   =     64.571345    -0.000000    -0.075048    64.496297
	  135 D(15,4,16,27)   =   -174.903260    -0.000000    -0.072575  -174.975836
	  136 D(15,4,16,30)   =    -56.213911    -0.000000    -0.074468   -56.288379
	  137 D(16,4,15,24)   =    173.684504     0.000000    -0.010862   173.673642
	  138 D(16,4,15,25)   =    -65.376901    -0.000000    -0.016279   -65.393179
	  139 D(16,4,15,29)   =     55.165609     0.000000    -0.012655    55.152954
	  140 D(17,10,9,28)   =      0.031729     0.000000     0.002190     0.033919
	  141 D(17,10,12,19)  =     -1.031353    -0.000000    -0.008356    -1.039710
	  142 D(18,11,9,28)   =      0.169243    -0.000000    -0.021697     0.147546
	  143 D(18,11,13,20)  =      0.476354    -0.000000    -0.022304     0.454050
	  144 R(1,16)         =      3.650519    -0.000575    -0.000756     3.649763
	  145 R(4,14)         =      3.025958     0.000785     0.001258     3.027216
	  146 R(5,12)         =      2.910383     0.000062     0.000141     2.910523
	 ---------------------------------------------------------------------------
	Successfully symmetrized geometry.

  ==> Convergence Check <==

  Measures of convergence in internal coordinates in au.
  Criteria marked as inactive (o), active & met (*), and active & unmet ( ).
  ---------------------------------------------------------------------------------------------
   Step     Total Energy     Delta E     MAX Force     RMS Force      MAX Disp      RMS Disp   
  ---------------------------------------------------------------------------------------------
    Convergence Criteria             o    2.50e-03 *    1.70e-03 *    1.00e-02 *    6.70e-03 *
  ---------------------------------------------------------------------------------------------
      2    -613.28906730   -8.65e-06 o    1.49e-04 *    3.37e-05 *    3.85e-03 *    8.92e-04 *  ~
  ---------------------------------------------------------------------------------------------


  **** Optimization is complete! (in 2 steps) ****

  ==> Optimization Summary <==

  Measures of convergence in internal coordinates in au.
  --------------------------------------------------------------------------------------------------------------- ~
   Step         Total Energy             Delta E       MAX Force       RMS Force        MAX Disp        RMS Disp  ~
  --------------------------------------------------------------------------------------------------------------- ~
      1    -613.289058651109   -613.289058651109      0.00154810      0.00020112      0.01400497      0.00273073  ~
      2    -613.289067301472     -0.000008650362      0.00014858      0.00003374      0.00385126      0.00089182  ~
  --------------------------------------------------------------------------------------------------------------- ~

	Writing optimization data to binary file.
	Final energy is   -613.2890673014715
	Final (previous) structure:
	Cartesian Geometry (in Angstrom)
	    N    -0.0442428646   0.1084470394  -0.4664419969
	    C     0.9662781167   0.6655033998   0.2823650976
	    C     2.3494476854   0.7694854256  -0.3455369890
	    N     2.9238359303  -0.5314109687  -0.6935726167
	    O     0.7876488235   1.0868754493   1.4403057452
	    H     2.2906341066   1.3694456676  -1.2573102020
	    H     2.9625594726   1.3179431937   0.3815502078
	    C    -1.3833760475   0.0795246960   0.0460130478
	    C    -4.0148617840  -0.0560597822   0.9774914611
	    C    -2.9663881285  -0.5464829165   1.7549425776
	    C    -3.7424210123   0.5042383916  -0.2673967396
	    C    -1.6561110470  -0.4868088220   1.2923736666
	    C    -2.4308365398   0.5767030658  -0.7311962749
	    C     0.1490356574  -0.2710693915  -1.8721846324
	    C     4.0908029850  -0.4221138684  -1.5646159092
	    C     3.1515451344  -1.3872552217   0.4695618579
	    H    -3.1685502348  -0.9821145110   2.7238875121
	    H    -4.5470676408   0.8921429493  -0.8772472279
	    H    -0.8430496758  -0.8550261440   1.8975051176
	    H    -2.2225747787   1.0259733861  -1.6924084352
	    H    -0.5976647069  -1.0167274594  -2.1350587445
	    H     0.0393548754   0.5849257386  -2.5449182142
	    H     1.1380735940  -0.7073499278  -1.9843228658
	    H     3.8282399491   0.1330324954  -2.4661226409
	    H     4.9402322340   0.0864974812  -1.0785711694
	    H     3.9168020783  -0.9768457540   1.1485398270
	    H     2.2270487709  -1.5053997439   1.0333430777
	    H    -5.0323566760  -0.1086944186   1.3396456680
	    H     4.4153132536  -1.4189086213  -1.8629133137
	    H     3.4737717488  -2.3730787225   0.1354435789
	Saving final (previous) structure.
	Cleaning optimization helper files.
			--------------------------
			 OPTKING Finished Execution 
			--------------------------

    Final optimized geometry and variables:
    Molecular point group: c1
    Full point group: C1

    Geometry (in Angstrom), charge = 0, multiplicity = 1:

    N           -0.044242864815     0.108447039863    -0.466441998745
    C            0.966278120527     0.665503402379     0.282365098716
    C            2.349447694620     0.769485428608    -0.345536990334
    N            2.923835941761    -0.531410970756    -0.693572619399
    O            0.787648826599     1.086875453565     1.440305750842
    H            2.290634115586     1.369445672990    -1.257310206969
    H            2.962559484245     1.317943198926     0.381550209316
    C           -1.383376052979     0.079524696263     0.046013047970
    C           -4.014861799826    -0.056059782458     0.977491464946
    C           -2.966388140160    -0.546482918620     1.754942584479
    C           -3.742421027001     0.504238393632    -0.267396740604
    C           -1.656111053547    -0.486808823921     1.292373671722
    C           -2.430836549316     0.576703068081    -0.731196277817
    C            0.149035657986    -0.271069392535    -1.872184639772
    C            4.090803001059    -0.422113870042    -1.564615915353
    C            3.151545146808    -1.387255227121     0.469561859788
    H           -3.168550247282    -0.982114514879     2.723887522774
    H           -4.547067658656     0.892142952798    -0.877247231307
    H           -0.843049679099    -0.855026147317     1.897505125059
    H           -2.222574787483     1.025973390155    -1.692408441901
    H           -0.597664709295    -1.016727463409    -2.135058752856
    H            0.039354875591     0.584925740857    -2.544918224211
    H            1.138073598494    -0.707349930547    -1.984322873599
    H            3.828239964185     0.133032495950    -2.466122650570
    H            4.940232253440     0.086497481498    -1.078571173674
    H            3.916802093735    -0.976845757869     1.148539831501
    H            2.227048779665    -1.505399749836     1.033343081728
    H           -5.032356695803    -0.108694419020     1.339645673244
    H            4.415313270939    -1.418908626923    -1.862913321072
    H            3.473771762460    -2.373078731816     0.135443579458

	Removing binary optimization data file.
	Cleaning optimization helper files.

    Psi4 stopped on: Wednesday, 08 June 2022 01:49PM
    Psi4 wall time for execution: 0:18:28.80

*** Psi4 exiting successfully. Buy a developer a beer!
