
    -----------------------------------------------------------------------
          Psi4: An Open-Source Ab Initio Electronic Structure Package
                               Psi4 1.5 release

                         Git: Rev {HEAD} e9f4d6d 


    D. G. A. Smith, L. A. Burns, A. C. Simmonett, R. M. Parrish,
    M. C. Schieber, R. Galvelis, P. Kraus, H. Kruse, R. Di Remigio,
    A. Alenaizan, A. M. James, S. Lehtola, J. P. Misiewicz, M. Scheurer,
    R. A. Shaw, J. B. Schriber, Y. Xie, Z. L. Glick, D. A. Sirianni,
    J. S. O'Brien, J. M. Waldrop, A. Kumar, E. G. Hohenstein,
    B. P. Pritchard, B. R. Brooks, H. F. Schaefer III, A. Yu. Sokolov,
    K. Patkowski, A. E. DePrince III, U. Bozkaya, R. A. King,
    F. A. Evangelista, J. M. Turney, T. D. Crawford, C. D. Sherrill,
    J. Chem. Phys. 152(18) 184108 (2020). https://doi.org/10.1063/5.0006002

                            Additional Code Authors
    E. T. Seidl, C. L. Janssen, E. F. Valeev, M. L. Leininger,
    J. F. Gonthier, R. M. Richard, H. R. McAlexander, M. Saitow, X. Wang,
    P. Verma, M. H. Lechner, and A. Jiang

             Previous Authors, Complete List of Code Contributors,
                       and Citations for Specific Modules
    https://github.com/psi4/psi4/blob/master/codemeta.json
    https://github.com/psi4/psi4/graphs/contributors
    http://psicode.org/psi4manual/master/introduction.html#citing-psifour

    -----------------------------------------------------------------------


    Psi4 started on: Wednesday, 08 June 2022 04:25PM

    Process ID: 1151831
    Host:       node74.bme.utexas.edu
    PSIDATADIR: /home/bdw2292/miniconda3/envs/newamoebamdpoltype/share/psi4
    Memory:     500.0 MiB
    Threads:    1
    
  ==> Input File <==

--------------------------------------------------------------------------
molecule { 
0 1
 N   -0.231235    0.232119   -0.756668
 C    0.852488   -0.297885   -0.080496
 C    2.190549   -0.177401   -0.798153
 N    3.310666   -0.721962   -0.056282
 O    0.734622   -0.823133    1.036225
 H    2.117785   -0.724112   -1.742187
 H    2.353878    0.886404   -1.066598
 C   -1.521300    0.268882   -0.129862
 C   -4.065695    0.361386    1.017992
 C   -3.361498   -0.840534    0.962934
 C   -3.491123    1.519619    0.500754
 C   -2.096329   -0.892737    0.386639
 C   -2.219219    1.476290   -0.065422
 C   -0.091921    0.895514   -2.056450
 C    4.496159   -0.864856   -0.896088
 C    3.597100   -0.012008    1.189994
 H   -3.798665   -1.743436    1.366594
 H   -4.025144    2.459042    0.546353
 H   -1.544961   -1.818699    0.352958
 H   -1.764979    2.381229   -0.446571
 H   -1.078297    0.987509   -2.502817
 H    0.347294    1.892995   -1.970274
 H    0.522481    0.303378   -2.732775
 H    4.271594   -1.493386   -1.759001
 H    4.882798    0.104129   -1.262529
 H    3.889334    1.039464    1.009978
 H    2.724561   -0.040467    1.834439
 H   -5.050494    0.395097    1.463213
 H    5.286378   -1.349726   -0.323931
 H    4.418160   -0.511073    1.703785
}
memory 8.166666666666666GB
set_num_threads(2)
psi4_io.set_default_path("/scratch/bdw2292/Psi4-25_27_Index_0-farH_in17")
set freeze_core True
E, wfn = energy('wb97x-d/6-311+G*',return_wfn=True)
oeprop(wfn,"WIBERG_LOWDIN_INDICES")
clean()
--------------------------------------------------------------------------

  Memory set to   7.606 GiB by Python driver.
  Threads set to 2 by Python driver.

Scratch directory: /scratch/bdw2292/Psi4-25_27_Index_0-farH_in17/

Scratch directory: /scratch/bdw2292/Psi4-25_27_Index_0-farH_in17/

*** tstart() called on node74.bme.utexas.edu
*** at Wed Jun  8 16:25:59 2022

   => Loading Basis Set <=

    Name: 6-311+G*
    Role: ORBITAL
    Keyword: BASIS
    atoms 1, 4       entry N          line   151 file /home/bdw2292/miniconda3/envs/newamoebamdpoltype/share/psi4/basis/6-311pgs.gbs 
    atoms 2-3, 8-16  entry C          line   130 file /home/bdw2292/miniconda3/envs/newamoebamdpoltype/share/psi4/basis/6-311pgs.gbs 
    atoms 5          entry O          line   172 file /home/bdw2292/miniconda3/envs/newamoebamdpoltype/share/psi4/basis/6-311pgs.gbs 
    atoms 6-7, 17-30 entry H          line    47 file /home/bdw2292/miniconda3/envs/newamoebamdpoltype/share/psi4/basis/6-311pgs.gbs 

   => WB97X-D: Empirical Dispersion <=

    Chai and Head-Gordon Dispersion Correction
    Chai, J.-D.; Head-Gordon, M. (2010), J. Chem. Phys., 132: 6615-6620

        s6 =       1.000000


         ---------------------------------------------------------
                                   SCF
               by Justin Turney, Rob Parrish, Andy Simmonett
                          and Daniel G. A. Smith
                              RKS Reference
                        2 Threads,   7788 MiB Core
         ---------------------------------------------------------

  ==> Geometry <==

    Molecular point group: c1
    Full point group: C1

    Geometry (in Angstrom), charge = 0, multiplicity = 1:

       Center              X                  Y                   Z               Mass       
    ------------   -----------------  -----------------  -----------------  -----------------
         N           -0.231235072980     0.232118996996    -0.756668025744    14.003074004430
         C            0.852487927020    -0.297885003004    -0.080496025744    12.000000000000
         C            2.190548927020    -0.177401003004    -0.798153025744    12.000000000000
         N            3.310665927020    -0.721962003004    -0.056282025744    14.003074004430
         O            0.734621927020    -0.823133003004     1.036224974256    15.994914619570
         H            2.117784927020    -0.724112003004    -1.742187025744     1.007825032230
         H            2.353877927020     0.886403996996    -1.066598025744     1.007825032230
         C           -1.521300072980     0.268881996996    -0.129862025744    12.000000000000
         C           -4.065695072980     0.361385996996     1.017991974256    12.000000000000
         C           -3.361498072980    -0.840534003004     0.962933974256    12.000000000000
         C           -3.491123072980     1.519618996996     0.500753974256    12.000000000000
         C           -2.096329072980    -0.892737003004     0.386638974256    12.000000000000
         C           -2.219219072980     1.476289996996    -0.065422025744    12.000000000000
         C           -0.091921072980     0.895513996996    -2.056450025744    12.000000000000
         C            4.496158927020    -0.864856003004    -0.896088025744    12.000000000000
         C            3.597099927020    -0.012008003004     1.189993974256    12.000000000000
         H           -3.798665072980    -1.743436003004     1.366593974256     1.007825032230
         H           -4.025144072980     2.459041996996     0.546352974256     1.007825032230
         H           -1.544961072980    -1.818699003004     0.352957974256     1.007825032230
         H           -1.764979072980     2.381228996996    -0.446571025744     1.007825032230
         H           -1.078297072980     0.987508996996    -2.502817025744     1.007825032230
         H            0.347293927020     1.892994996996    -1.970274025744     1.007825032230
         H            0.522480927020     0.303377996996    -2.732775025744     1.007825032230
         H            4.271593927020    -1.493386003004    -1.759001025744     1.007825032230
         H            4.882797927020     0.104128996996    -1.262529025744     1.007825032230
         H            3.889333927020     1.039463996996     1.009977974256     1.007825032230
         H            2.724560927020    -0.040467003004     1.834438974256     1.007825032230
         H           -5.050494072980     0.395096996996     1.463212974256     1.007825032230
         H            5.286377927020    -1.349726003004    -0.323931025744     1.007825032230
         H            4.418159927020    -0.511073003004     1.703784974256     1.007825032230

  Running in c1 symmetry.

  Rotational constants: A =      0.06004  B =      0.01083  C =      0.01008 [cm^-1]
  Rotational constants: A =   1799.98062  B =    324.80802  C =    302.18322 [MHz]
  Nuclear repulsion =  882.774848031824149

  Charge       = 0
  Multiplicity = 1
  Electrons    = 104
  Nalpha       = 52
  Nbeta        = 52

  ==> Algorithm <==

  SCF Algorithm Type is DF.
  DIIS enabled.
  MOM disabled.
  Fractional occupation disabled.
  Guess Type is SAD.
  Energy threshold   = 1.00e-06
  Density threshold  = 1.00e-06
  Integral threshold = 1.00e-12

  ==> Primary Basis <==

  Basis Set: 6-311+G*
    Blend: 6-311+G*
    Number of shells: 188
    Number of basis functions: 356
    Number of Cartesian functions: 370
    Spherical Harmonics?: true
    Max angular momentum: 2

  ==> DFT Potential <==

   => LibXC <=

    Version 5.1.5
    S. Lehtola, C. Steigemann, M. J. Oliveira, and M. A. Marques, SoftwareX 7, 1 (2018) (10.1016/j.softx.2017.11.002)

   => Composite Functional: WB97X-D <= 

    wB97X-D Hyb-GGA Exchange-Correlation Functional

    J.-D. Chai and M. Head-Gordon, Phys. Chem. Chem. Phys. 10, 6615 (2008) (10.1039/B810189B)

    Deriv               =              1
    GGA                 =           TRUE
    Meta                =          FALSE

    Exchange Hybrid     =           TRUE
    MP2 Hybrid          =          FALSE

   => Exchange-Correlation Functionals <=

    1.0000   wB97X-D range-separated functional

   => Exact (HF) Exchange <=

    0.7780            HF,LR [omega = 0.2000]
    0.2220               HF 

   => LibXC Density Thresholds  <==

    XC_HYB_GGA_XC_WB97X_D:  1.00E-14 

   => Molecular Quadrature <=

    Radial Scheme          =       TREUTLER
    Pruning Scheme         =           NONE
    Nuclear Scheme         =       TREUTLER

    BS radius alpha        =              1
    Pruning alpha          =              1
    Radial Points          =             75
    Spherical Points       =            302
    Total Points           =         626894
    Total Blocks           =           4512
    Max Points             =            256
    Max Functions          =            297
    Weights Tolerance      =       1.00E-15

   => Loading Basis Set <=

    Name: (6-311+G* AUX)
    Role: JKFIT
    Keyword: DF_BASIS_SCF
    atoms 1, 4       entry N          line   262 file /home/bdw2292/miniconda3/envs/newamoebamdpoltype/share/psi4/basis/heavy-aug-cc-pvtz-jkfit.gbs 
    atoms 2-3, 8-16  entry C          line   200 file /home/bdw2292/miniconda3/envs/newamoebamdpoltype/share/psi4/basis/heavy-aug-cc-pvtz-jkfit.gbs 
    atoms 5          entry O          line   324 file /home/bdw2292/miniconda3/envs/newamoebamdpoltype/share/psi4/basis/heavy-aug-cc-pvtz-jkfit.gbs 
    atoms 6-7, 17-30 entry H          line   116 file /home/bdw2292/miniconda3/envs/newamoebamdpoltype/share/psi4/basis/heavy-aug-cc-pvtz-jkfit.gbs 

  ==> Integral Setup <==

  DFHelper Memory: AOs need 4.725 GiB; user supplied 4.725 GiB. Using in-core AOs.

  ==> MemDFJK: Density-Fitted J/K Matrices <==

    J tasked:                   Yes
    K tasked:                   Yes
    wK tasked:                  Yes
    Omega:                2.000E-01
    OpenMP threads:               2
    Memory [MiB]:              4838
    Algorithm:                 Core
    Schwarz Cutoff:           1E-12
    Mask sparsity (%):      14.8577
    Fitting Condition:        1E-10

   => Auxiliary Basis Set <=

  Basis Set: (6-311+G* AUX)
    Blend: HEAVY-AUG-CC-PVTZ-JKFIT
    Number of shells: 580
    Number of basis functions: 1936
    Number of Cartesian functions: 2394
    Spherical Harmonics?: true
    Max angular momentum: 4

  Cached 25.0% of DFT collocation blocks in 0.964 [GiB].

  Minimum eigenvalue in the overlap matrix is 1.6077633712E-06.
  Reciprocal condition number of the overlap matrix is 1.1166381457E-07.
    Using symmetric orthogonalization.

  ==> Pre-Iterations <==

  SCF Guess: Superposition of Atomic Densities via on-the-fly atomic UHF (no occupation information).

   -------------------------
    Irrep   Nso     Nmo    
   -------------------------
     A        356     356 
   -------------------------
    Total     356     356
   -------------------------

  ==> Iterations <==

                           Total Energy        Delta E     RMS |[F,P]|

   @DF-RKS iter SAD:  -612.74479635977991   -6.12745e+02   0.00000e+00 
   @DF-RKS iter   1:  -612.76999678214668   -2.52004e-02   3.29528e-03 DIIS
   @DF-RKS iter   2:  -612.98079195507296   -2.10795e-01   2.97983e-03 DIIS
   @DF-RKS iter   3:  -613.43573912281852   -4.54947e-01   7.02361e-04 DIIS
   @DF-RKS iter   4:  -613.45741734527019   -2.16782e-02   1.87694e-04 DIIS
   @DF-RKS iter   5:  -613.45910791591848   -1.69057e-03   6.86947e-05 DIIS
   @DF-RKS iter   6:  -613.45934643029636   -2.38514e-04   1.72035e-05 DIIS
   @DF-RKS iter   7:  -613.45936403215819   -1.76019e-05   3.41586e-06 DIIS
   @DF-RKS iter   8:  -613.45936517610335   -1.14395e-06   1.63936e-06 DIIS
   @DF-RKS iter   9:  -613.45936544194615   -2.65843e-07   4.85923e-07 DIIS
  Energy and wave function converged.


  ==> Post-Iterations <==

   Electrons on quadrature grid:
      Ntotal   =  103.9999906415 ; deviation = -9.358e-06 

    Orbital Energies [Eh]
    ---------------------

    Doubly Occupied:                                                      

       1A    -19.210982     2A    -14.476223     3A    -14.426112  
       4A    -10.394231     5A    -10.333942     6A    -10.330666  
       7A    -10.324995     8A    -10.300247     9A    -10.294541  
      10A    -10.293471    11A    -10.290820    12A    -10.289664  
      13A    -10.288565    14A    -10.285894    15A     -1.137206  
      16A     -1.049970    17A     -1.024133    18A     -0.959236  
      19A     -0.865403    20A     -0.854577    21A     -0.834013  
      22A     -0.809339    23A     -0.801462    24A     -0.734019  
      25A     -0.709600    26A     -0.688586    27A     -0.648164  
      28A     -0.609561    29A     -0.597738    30A     -0.584585  
      31A     -0.576223    32A     -0.556488    33A     -0.555255  
      34A     -0.538403    35A     -0.533867    36A     -0.520421  
      37A     -0.512321    38A     -0.501041    39A     -0.496249  
      40A     -0.477022    41A     -0.471404    42A     -0.467584  
      43A     -0.455489    44A     -0.449299    45A     -0.445001  
      46A     -0.440029    47A     -0.432732    48A     -0.361553  
      49A     -0.342895    50A     -0.329638    51A     -0.308471  
      52A     -0.294128  

    Virtual:                                                              

      53A      0.045735    54A      0.051818    55A      0.054890  
      56A      0.066555    57A      0.073224    58A      0.076842  
      59A      0.085196    60A      0.085529    61A      0.090597  
      62A      0.093678    63A      0.097626    64A      0.106444  
      65A      0.108465    66A      0.112515    67A      0.121321  
      68A      0.123133    69A      0.126514    70A      0.133643  
      71A      0.136115    72A      0.147221    73A      0.149386  
      74A      0.154027    75A      0.161781    76A      0.165125  
      77A      0.172610    78A      0.175766    79A      0.183740  
      80A      0.190078    81A      0.193516    82A      0.194589  
      83A      0.200135    84A      0.200572    85A      0.211282  
      86A      0.214285    87A      0.221985    88A      0.225077  
      89A      0.226121    90A      0.232545    91A      0.238057  
      92A      0.239663    93A      0.247329    94A      0.249977  
      95A      0.258198    96A      0.261964    97A      0.266451  
      98A      0.267948    99A      0.271711   100A      0.275039  
     101A      0.277621   102A      0.280783   103A      0.284056  
     104A      0.289851   105A      0.290360   106A      0.297021  
     107A      0.299877   108A      0.303513   109A      0.309440  
     110A      0.314445   111A      0.319292   112A      0.322568  
     113A      0.325478   114A      0.332315   115A      0.335567  
     116A      0.338671   117A      0.342729   118A      0.345040  
     119A      0.347327   120A      0.355464   121A      0.357692  
     122A      0.364813   123A      0.372841   124A      0.380284  
     125A      0.388267   126A      0.394239   127A      0.402349  
     128A      0.407309   129A      0.418009   130A      0.419753  
     131A      0.430609   132A      0.432842   133A      0.441371  
     134A      0.445766   135A      0.456378   136A      0.462953  
     137A      0.473712   138A      0.498452   139A      0.503372  
     140A      0.518513   141A      0.535070   142A      0.556431  
     143A      0.562675   144A      0.574227   145A      0.585631  
     146A      0.594380   147A      0.604199   148A      0.605924  
     149A      0.619306   150A      0.624767   151A      0.628837  
     152A      0.635888   153A      0.642807   154A      0.644780  
     155A      0.650618   156A      0.660265   157A      0.670185  
     158A      0.675875   159A      0.683730   160A      0.694036  
     161A      0.708803   162A      0.717209   163A      0.731366  
     164A      0.736715   165A      0.744486   166A      0.749019  
     167A      0.760775   168A      0.765082   169A      0.769540  
     170A      0.774789   171A      0.785332   172A      0.792504  
     173A      0.793971   174A      0.797603   175A      0.808201  
     176A      0.809996   177A      0.817632   178A      0.823140  
     179A      0.830841   180A      0.833043   181A      0.842163  
     182A      0.849159   183A      0.865244   184A      0.878517  
     185A      0.896453   186A      0.916347   187A      0.921279  
     188A      0.926482   189A      0.941267   190A      0.953595  
     191A      0.961356   192A      0.969425   193A      0.980898  
     194A      0.984491   195A      1.006404   196A      1.013480  
     197A      1.037142   198A      1.049222   199A      1.072592  
     200A      1.098228   201A      1.099488   202A      1.124719  
     203A      1.133651   204A      1.139046   205A      1.177303  
     206A      1.184543   207A      1.215017   208A      1.243245  
     209A      1.252253   210A      1.274606   211A      1.283519  
     212A      1.299830   213A      1.312466   214A      1.319914  
     215A      1.349969   216A      1.364667   217A      1.371488  
     218A      1.390605   219A      1.414767   220A      1.434358  
     221A      1.438388   222A      1.517931   223A      1.528814  
     224A      1.555605   225A      1.587884   226A      1.601080  
     227A      1.614527   228A      1.626094   229A      1.648172  
     230A      1.657993   231A      1.669677   232A      1.685049  
     233A      1.686620   234A      1.695116   235A      1.702170  
     236A      1.727834   237A      1.733368   238A      1.747471  
     239A      1.752476   240A      1.768516   241A      1.790576  
     242A      1.820198   243A      1.836838   244A      1.844443  
     245A      1.853569   246A      1.862110   247A      1.879206  
     248A      1.887828   249A      1.909393   250A      1.912608  
     251A      1.927126   252A      1.942136   253A      1.962684  
     254A      2.006811   255A      2.019094   256A      2.030995  
     257A      2.046170   258A      2.086055   259A      2.106872  
     260A      2.137419   261A      2.162080   262A      2.226758  
     263A      2.283652   264A      2.327303   265A      2.363311  
     266A      2.373648   267A      2.390547   268A      2.408495  
     269A      2.431649   270A      2.431912   271A      2.490810  
     272A      2.493553   273A      2.505410   274A      2.514448  
     275A      2.539963   276A      2.574351   277A      2.589852  
     278A      2.604221   279A      2.626134   280A      2.640546  
     281A      2.661881   282A      2.673012   283A      2.691156  
     284A      2.711012   285A      2.726920   286A      2.749907  
     287A      2.762855   288A      2.779235   289A      2.791207  
     290A      2.831595   291A      2.858632   292A      2.874778  
     293A      2.885870   294A      2.891350   295A      2.945421  
     296A      2.949388   297A      2.981035   298A      3.009387  
     299A      3.032619   300A      3.041152   301A      3.068331  
     302A      3.089377   303A      3.175986   304A      3.207418  
     305A      3.249648   306A      3.264725   307A      3.288859  
     308A      3.300965   309A      3.339450   310A      3.357383  
     311A      3.388129   312A      3.403979   313A      3.410333  
     314A      3.410539   315A      3.425243   316A      3.454854  
     317A      3.463048   318A      3.467707   319A      3.477780  
     320A      3.517069   321A      3.538975   322A      3.562688  
     323A      3.624022   324A      3.641550   325A      3.699063  
     326A      3.744430   327A      3.765115   328A      3.885118  
     329A      3.957012   330A      4.095319   331A      4.119793  
     332A      4.130115   333A      4.156800   334A      4.282461  
     335A      4.799735   336A      4.825462   337A      4.892532  
     338A      4.917636   339A      5.133046   340A      5.230304  
     341A      5.397637   342A      5.899426   343A     23.492746  
     344A     23.653777   345A     23.697006   346A     23.766106  
     347A     23.827129   348A     23.974754   349A     23.979651  
     350A     24.011028   351A     24.167846   352A     24.180523  
     353A     24.283578   354A     35.639143   355A     35.692865  
     356A     50.169721  

    Final Occupation by Irrep:
              A 
    DOCC [    52 ]

  @DF-RKS Final Energy:  -613.45936544194615

   => Energetics <=

    Nuclear Repulsion Energy =            882.7748480318241491
    One-Electron Energy =               -2582.3735296153622585
    Two-Electron Energy =                1146.6896163930898638
    DFT Exchange-Correlation Energy =     -60.5307082576470918
    Empirical Dispersion Energy =          -0.0195919938509465
    VV10 Nonlocal Energy =                  0.0000000000000000
    Total Energy =                       -613.4593654419462609

Computation Completed


Properties will be evaluated at   0.000000,   0.000000,   0.000000 [a0]

Properties computed using the SCF density matrix

  Nuclear Dipole Moment: [e a0]
     X:    12.6989      Y:     2.5927      Z:    -5.1763

  Electronic Dipole Moment: [e a0]
     X:   -12.7619      Y:    -1.7749      Z:     3.8628

  Dipole Moment: [e a0]
     X:    -0.0630      Y:     0.8178      Z:    -1.3135     Total:     1.5486

  Dipole Moment: [D]
     X:    -0.1601      Y:     2.0787      Z:    -3.3386     Total:     3.9361


*** tstop() called on node74.bme.utexas.edu at Wed Jun  8 16:28:18 2022
Module time:
	user time   =     263.15 seconds =       4.39 minutes
	system time =       7.75 seconds =       0.13 minutes
	total time  =        139 seconds =       2.32 minutes
Total time:
	user time   =     263.15 seconds =       4.39 minutes
	system time =       7.75 seconds =       0.13 minutes
	total time  =        139 seconds =       2.32 minutes


Properties will be evaluated at   0.000000,   0.000000,   0.000000 [a0]
OEProp: No title given, name of density matrix used for the following properties is 'SCF density'


  Wiberg Bond Indices using Orthogonal Lowdin Orbitals:

  Irrep: 1 Size: 30 x 30

                 1                   2                   3                   4                   5

    1     0.00000000000000     1.32939742451434     0.11162944046050     0.01215091917811     0.23717406058029
    2     1.32939742451434     0.00000000000000     1.01818529752264     0.10062587499508     2.16916241919974
    3     0.11162944046050     1.01818529752264     0.00000000000000     1.21179533602303     0.14132815703902
    4     0.01215091917811     0.10062587499508     1.21179533602303     0.00000000000000     0.05061441565926
    5     0.23717406058029     2.16916241919974     0.14132815703902     0.05061441565926     0.00000000000000
    6     0.01309159818438     0.04286713197256     0.82082442385262     0.04394392620341     0.01271999717816
    7     0.01418063458998     0.04598944491647     0.80460425225385     0.04705195545165     0.01178484967733
    8     1.10399943011005     0.10269722078893     0.01808808118797     0.00233519219866     0.05640002787494
    9     0.01113925401678     0.00595071730935     0.00061311832329     0.00011517997382     0.00368430510982
   10     0.01594012440300     0.00474609673547     0.00077739201929     0.00011667462564     0.00845827004491
   11     0.01581504898719     0.00366054746901     0.00063997793966     0.00015435214114     0.00297168796648
   12     0.11638052692347     0.04233770320840     0.00543056219202     0.00066400814874     0.05695005405065
   13     0.12018362265555     0.02776393243509     0.00348334248114     0.00058225069750     0.01155949051700
   14     1.15608920820872     0.10508528618952     0.06588316208579     0.00842374414031     0.02641841724826
   15     0.00287300090595     0.02055470998793     0.13288084199374     1.24692547071466     0.00501853268661
   16     0.00405754528635     0.03560979467874     0.11614176139890     1.22729361112868     0.05411082558125
   17     0.00085745627988     0.00022268531019     0.00003340856297     0.00000640148414     0.00020205687414
   18     0.00087741890527     0.00038268231374     0.00007041728817     0.00001244768025     0.00008927726264
   19     0.01502428135365     0.00880634530047     0.00073805192400     0.00005568905682     0.01202703326007
   20     0.01660350844015     0.00226852175806     0.00025642559584     0.00003982323678     0.00018740721227
   21     0.04511958252822     0.00864638215506     0.00256917715270     0.00062325094722     0.00162132933949
   22     0.04974129506219     0.01530388489464     0.00844899177096     0.00088272768641     0.00411670114607
   23     0.04648481148586     0.01499357577813     0.01791152750004     0.00103602525834     0.00201619902472
   24     0.00013881026171     0.00164708216622     0.01814480608131     0.05010631350600     0.00033252922887
   25     0.00012712227822     0.00183966065346     0.01978552700048     0.05620710789241     0.00093377301564
   26     0.00011786023550     0.00525558346421     0.02155124807586     0.05219068675840     0.00080110053694
   27     0.00064638734402     0.01051600422633     0.01220461355984     0.04793828749718     0.02179836519993
   28     0.00023189398425     0.00005588115224     0.00002225047363     0.00000453149797     0.00005805655033
   29     0.00034493562001     0.00124465724004     0.01195723611591     0.05092564408630     0.00034901915402
   30     0.00010233741753     0.00130347207086     0.01200905371897     0.05061969197153     0.00057117098497

                 6                   7                   8                   9                  10

    1     0.01309159818438     0.01418063458998     1.10399943011005     0.01113925401678     0.01594012440300
    2     0.04286713197256     0.04598944491647     0.10269722078893     0.00595071730935     0.00474609673547
    3     0.82082442385262     0.80460425225385     0.01808808118797     0.00061311832329     0.00077739201929
    4     0.04394392620341     0.04705195545165     0.00233519219866     0.00011517997382     0.00011667462564
    5     0.01271999717816     0.01178484967733     0.05640002787494     0.00368430510982     0.00845827004491
    6     0.00000000000000     0.00521144486106     0.00083530765774     0.00008334055085     0.00004556539291
    7     0.00521144486106     0.00000000000000     0.00101145255960     0.00013586648908     0.00007688645295
    8     0.00083530765774     0.00101145255960     0.00000000000000     0.13724170215294     0.13705804636274
    9     0.00008334055085     0.00013586648908     0.13724170215294     0.00000000000000     1.51394539389437
   10     0.00004556539291     0.00007688645295     0.13705804636274     1.51394539389437     0.00000000000000
   11     0.00008527417032     0.00004794350154     0.13540740517167     1.52429498210627     0.13765616183908
   12     0.00033883143214     0.00046668468830     1.40463555169606     0.13776223541471     1.52259296224779
   13     0.00039821602798     0.00043280275755     1.41854302623101     0.13810163777403     0.14343882205665
   14     0.01159041606143     0.01476054969397     0.10503694830692     0.00402859199665     0.00331134621805
   15     0.01731584680197     0.01539001119558     0.00075801177580     0.00003771189141     0.00003768227082
   16     0.01045581368381     0.01770564107492     0.00086972822796     0.00006514332741     0.00008762532068
   17     0.00000404632229     0.00000242897209     0.01087422772782     0.05886533328561     0.83368234658469
   18     0.00000449590230     0.00000704412301     0.01072474474979     0.05883543236340     0.01137806172229
   19     0.00002450042380     0.00011164414572     0.05459345105633     0.01047372081131     0.05532375679989
   20     0.00008166618166     0.00000639556565     0.05584760714670     0.01062132144509     0.00237091616878
   21     0.00026076973978     0.00051688990772     0.02021125950971     0.00052309684803     0.00054143327316
   22     0.00090206100222     0.00157359245259     0.00722784175528     0.00021946381701     0.00021730664783
   23     0.00342536230204     0.00235404473735     0.00829795955024     0.00050981493857     0.00018374293165
   24     0.00254997603363     0.00086049655356     0.00003734108207     0.00000424641806     0.00000332291404
   25     0.00131297440639     0.00095931881616     0.00007910457004     0.00000353905250     0.00001060905351
   26     0.00016009939248     0.00105296235687     0.00003033972120     0.00000309336731     0.00000856015910
   27     0.00060277609892     0.00113248072012     0.00016025865533     0.00001294066786     0.00002209578238
   28     0.00000089371760     0.00000379042110     0.00293414892253     0.83584457956209     0.05897398219859
   29     0.00093568602994     0.00012331662476     0.00007275276088     0.00000712756844     0.00000360090191
   30     0.00020363382322     0.00018288075294     0.00001890534212     0.00000092562481     0.00000270168016

                11                  12                  13                  14                  15

    1     0.01581504898719     0.11638052692347     0.12018362265555     1.15608920820872     0.00287300090595
    2     0.00366054746901     0.04233770320840     0.02776393243509     0.10508528618952     0.02055470998793
    3     0.00063997793966     0.00543056219202     0.00348334248114     0.06588316208579     0.13288084199374
    4     0.00015435214114     0.00066400814874     0.00058225069750     0.00842374414031     1.24692547071466
    5     0.00297168796648     0.05695005405065     0.01155949051700     0.02641841724826     0.00501853268661
    6     0.00008527417032     0.00033883143214     0.00039821602798     0.01159041606143     0.01731584680197
    7     0.00004794350154     0.00046668468830     0.00043280275755     0.01476054969397     0.01539001119558
    8     0.13540740517167     1.40463555169606     1.41854302623101     0.10503694830692     0.00075801177580
    9     1.52429498210627     0.13776223541471     0.13810163777403     0.00402859199665     0.00003771189141
   10     0.13765616183908     1.52259296224779     0.14343882205665     0.00331134621805     0.00003768227082
   11     0.00000000000000     0.14384693945541     1.51595389063877     0.00633825756208     0.00004216183929
   12     0.14384693945541     0.00000000000000     0.12802137463420     0.02235826912087     0.00020547663219
   13     1.51595389063877     0.12802137463420     0.00000000000000     0.05244771247257     0.00017019455215
   14     0.00633825756208     0.02235826912087     0.05244771247257     0.00000000000000     0.00161159357237
   15     0.00004216183929     0.00020547663219     0.00017019455215     0.00161159357237     0.00000000000000
   16     0.00006140334174     0.00052561106006     0.00019182869955     0.00212105136752     0.12854858282278
   17     0.01135385625645     0.06031553559607     0.00246604556236     0.00036319338891     0.00000186465555
   18     0.83411132361233     0.00245591293728     0.06045876606787     0.00022052285774     0.00000494253295
   19     0.00231432517235     0.80533024448732     0.00911795686688     0.00153094867600     0.00002469641124
   20     0.05528308194748     0.00938557063361     0.81108645395677     0.01310439105149     0.00001085497600
   21     0.00135702141344     0.00270211911067     0.01286512780570     0.87592792964869     0.00010949432362
   22     0.00029195718962     0.00081728633749     0.00507526802299     0.88289434028537     0.00009081987774
   23     0.00035108047463     0.00092994222652     0.00207984958075     0.87984907359493     0.00028453955388
   24     0.00000223615366     0.00001671088055     0.00001003180867     0.00010526165790     0.89591405613859
   25     0.00000739832499     0.00005592184255     0.00003182688186     0.00021953064424     0.88207477589205
   26     0.00000429031222     0.00002091578229     0.00001578738042     0.00023810949715     0.01850765981679
   27     0.00001277313989     0.00014377788032     0.00003412513992     0.00016608087178     0.01141919843097
   28     0.05926331795236     0.01115616644006     0.01131436763807     0.00008486908705     0.00000136984943
   29     0.00000313325369     0.00002083634253     0.00002084662619     0.00006199166975     0.89568791579699
   30     0.00000193732044     0.00001070193135     0.00000897905249     0.00013945770933     0.01717502337345

                16                  17                  18                  19                  20

    1     0.00405754528635     0.00085745627988     0.00087741890527     0.01502428135365     0.01660350844015
    2     0.03560979467874     0.00022268531019     0.00038268231374     0.00880634530047     0.00226852175806
    3     0.11614176139890     0.00003340856297     0.00007041728817     0.00073805192400     0.00025642559584
    4     1.22729361112868     0.00000640148414     0.00001244768025     0.00005568905682     0.00003982323678
    5     0.05411082558125     0.00020205687414     0.00008927726264     0.01202703326007     0.00018740721227
    6     0.01045581368381     0.00000404632229     0.00000449590230     0.00002450042380     0.00008166618166
    7     0.01770564107492     0.00000242897209     0.00000704412301     0.00011164414572     0.00000639556565
    8     0.00086972822796     0.01087422772782     0.01072474474979     0.05459345105633     0.05584760714670
    9     0.00006514332741     0.05886533328561     0.05883543236340     0.01047372081131     0.01062132144509
   10     0.00008762532068     0.83368234658469     0.01137806172229     0.05532375679989     0.00237091616878
   11     0.00006140334174     0.01135385625645     0.83411132361233     0.00231432517235     0.05528308194748
   12     0.00052561106006     0.06031553559607     0.00245591293728     0.80533024448732     0.00938557063361
   13     0.00019182869955     0.00246604556236     0.06045876606787     0.00911795686688     0.81108645395677
   14     0.00212105136752     0.00036319338891     0.00022052285774     0.00153094867600     0.01310439105149
   15     0.12854858282278     0.00000186465555     0.00000494253295     0.00002469641124     0.00001085497600
   16     0.00000000000000     0.00000266566466     0.00000572727858     0.00013651479467     0.00001804746202
   17     0.00000266566466     0.00000000000000     0.00027338366154     0.00524850780571     0.00023095228957
   18     0.00000572727858     0.00027338366154     0.00000000000000     0.00022051417083     0.00527468040018
   19     0.00013651479467     0.00524850780571     0.00022051417083     0.00000000000000     0.00037763012050
   20     0.00001804746202     0.00023095228957     0.00527468040018     0.00037763012050     0.00000000000000
   21     0.00014376704666     0.00004662504055     0.00001622720106     0.00002818767163     0.00122064815620
   22     0.00010761539877     0.00000793396407     0.00003572665182     0.00007408576924     0.00072318467102
   23     0.00035673793131     0.00000467379487     0.00001347711705     0.00000388200703     0.00023793469196
   24     0.01210084394434     0.00000022955387     0.00000007511381     0.00000465534315     0.00000048851780
   25     0.01821431962593     0.00000018335850     0.00000081635813     0.00000203708022     0.00000044153761
   26     0.87994454786902     0.00000010808913     0.00000043203107     0.00000747995582     0.00000139703711
   27     0.87123666843178     0.00000053348808     0.00000134584979     0.00007991610698     0.00001168066124
   28     0.00000329717449     0.00518539696713     0.00519119889110     0.00023115553643     0.00022238498446
   29     0.01654552411290     0.00000074987556     0.00000086398457     0.00000219992328     0.00000302857702
   30     0.89467690190805     0.00000006441304     0.00000013032237     0.00000390845676     0.00000171771523

                21                  22                  23                  24                  25

    1     0.04511958252822     0.04974129506219     0.04648481148586     0.00013881026171     0.00012712227822
    2     0.00864638215506     0.01530388489464     0.01499357577813     0.00164708216622     0.00183966065346
    3     0.00256917715270     0.00844899177096     0.01791152750004     0.01814480608131     0.01978552700048
    4     0.00062325094722     0.00088272768641     0.00103602525834     0.05010631350600     0.05620710789241
    5     0.00162132933949     0.00411670114607     0.00201619902472     0.00033252922887     0.00093377301564
    6     0.00026076973978     0.00090206100222     0.00342536230204     0.00254997603363     0.00131297440639
    7     0.00051688990772     0.00157359245259     0.00235404473735     0.00086049655356     0.00095931881616
    8     0.02021125950971     0.00722784175528     0.00829795955024     0.00003734108207     0.00007910457004
    9     0.00052309684803     0.00021946381701     0.00050981493857     0.00000424641806     0.00000353905250
   10     0.00054143327316     0.00021730664783     0.00018374293165     0.00000332291404     0.00001060905351
   11     0.00135702141344     0.00029195718962     0.00035108047463     0.00000223615366     0.00000739832499
   12     0.00270211911067     0.00081728633749     0.00092994222652     0.00001671088055     0.00005592184255
   13     0.01286512780570     0.00507526802299     0.00207984958075     0.00001003180867     0.00003182688186
   14     0.87592792964869     0.88289434028537     0.87984907359493     0.00010526165790     0.00021953064424
   15     0.00010949432362     0.00009081987774     0.00028453955388     0.89591405613859     0.88207477589205
   16     0.00014376704666     0.00010761539877     0.00035673793131     0.01210084394434     0.01821431962593
   17     0.00004662504055     0.00000793396407     0.00000467379487     0.00000022955387     0.00000018335850
   18     0.00001622720106     0.00003572665182     0.00001347711705     0.00000007511381     0.00000081635813
   19     0.00002818767163     0.00007408576924     0.00000388200703     0.00000465534315     0.00000203708022
   20     0.00122064815620     0.00072318467102     0.00023793469196     0.00000048851780     0.00000044153761
   21     0.00000000000000     0.00819176139960     0.01025149145915     0.00001246642727     0.00003443594117
   22     0.00819176139960     0.00000000000000     0.00750928809536     0.00001753519492     0.00002297181536
   23     0.01025149145915     0.00750928809536     0.00000000000000     0.00001920637902     0.00000889838324
   24     0.00001246642727     0.00001753519492     0.00001920637902     0.00000000000000     0.00743265821056
   25     0.00003443594117     0.00002297181536     0.00000889838324     0.00743265821056     0.00000000000000
   26     0.00002965958248     0.00001752665742     0.00000671473538     0.00016942337269     0.00099983614793
   27     0.00000953626577     0.00004171639299     0.00004785088975     0.00027348337140     0.00017849215271
   28     0.00001518178329     0.00003153362110     0.00000374061765     0.00000004225224     0.00000030752270
   29     0.00000349861922     0.00000605730842     0.00002620457706     0.00991372364972     0.00746576304817
   30     0.00001219678777     0.00001937102522     0.00002660111646     0.00086228770889     0.00099816890664

                26                  27                  28                  29                  30

    1     0.00011786023550     0.00064638734402     0.00023189398425     0.00034493562001     0.00010233741753
    2     0.00525558346421     0.01051600422633     0.00005588115224     0.00124465724004     0.00130347207086
    3     0.02155124807586     0.01220461355984     0.00002225047363     0.01195723611591     0.01200905371897
    4     0.05219068675840     0.04793828749718     0.00000453149797     0.05092564408630     0.05061969197153
    5     0.00080110053694     0.02179836519993     0.00005805655033     0.00034901915402     0.00057117098497
    6     0.00016009939248     0.00060277609892     0.00000089371760     0.00093568602994     0.00020363382322
    7     0.00105296235687     0.00113248072012     0.00000379042110     0.00012331662476     0.00018288075294
    8     0.00003033972120     0.00016025865533     0.00293414892253     0.00007275276088     0.00001890534212
    9     0.00000309336731     0.00001294066786     0.83584457956209     0.00000712756844     0.00000092562481
   10     0.00000856015910     0.00002209578238     0.05897398219859     0.00000360090191     0.00000270168016
   11     0.00000429031222     0.00001277313989     0.05926331795236     0.00000313325369     0.00000193732044
   12     0.00002091578229     0.00014377788032     0.01115616644006     0.00002083634253     0.00001070193135
   13     0.00001578738042     0.00003412513992     0.01131436763807     0.00002084662619     0.00000897905249
   14     0.00023810949715     0.00016608087178     0.00008486908705     0.00006199166975     0.00013945770933
   15     0.01850765981679     0.01141919843097     0.00000136984943     0.89568791579699     0.01717502337345
   16     0.87994454786902     0.87123666843178     0.00000329717449     0.01654552411290     0.89467690190805
   17     0.00000010808913     0.00000053348808     0.00518539696713     0.00000074987556     0.00000006441304
   18     0.00000043203107     0.00000134584979     0.00519119889110     0.00000086398457     0.00000013032237
   19     0.00000747995582     0.00007991610698     0.00023115553643     0.00000219992328     0.00000390845676
   20     0.00000139703711     0.00001168066124     0.00022238498446     0.00000302857702     0.00000171771523
   21     0.00002965958248     0.00000953626577     0.00001518178329     0.00000349861922     0.00001219678777
   22     0.00001752665742     0.00004171639299     0.00003153362110     0.00000605730842     0.00001937102522
   23     0.00000671473538     0.00004785088975     0.00000374061765     0.00002620457706     0.00002660111646
   24     0.00016942337269     0.00027348337140     0.00000004225224     0.00991372364972     0.00086228770889
   25     0.00099983614793     0.00017849215271     0.00000030752270     0.00746576304817     0.00099816890664
   26     0.00000000000000     0.00808030620745     0.00000010577818     0.00098191083239     0.00740465743792
   27     0.00808030620745     0.00000000000000     0.00000024978813     0.00076309017438     0.01063029441621
   28     0.00000010577818     0.00000024978813     0.00000000000000     0.00000007683101     0.00000004280169
   29     0.00098191083239     0.00076309017438     0.00000007683101     0.00000000000000     0.00208299380530
   30     0.00740465743792     0.01063029441621     0.00000004280169     0.00208299380530     0.00000000000000



  Atomic Valences: 

 #  #
 Irrep: 1
      1:    4.440519540201110
      2:    5.127120020406920
      3:    4.578007881594170
      4:    4.263441539839423
      5:    2.893459529203857
      6:    0.990276075407613
      7:    0.987737706313462
      8:    4.796027074853004
      9:    4.453123816100864
     10:    4.451011486702313
     11:    4.451333766653181
     12:    4.475878433333612
     13:    4.475857577021672
     14:    4.240410254885370
     15:    4.293677041272470
     16:    4.291339145643520
     17:    0.990252894829435
     18:    0.990668089350931
     19:    0.981917320488121
     20:    0.985478162138243
     21:    0.993610547085050
     22:    0.994609845913719
     23:    0.999224250732921
     24:    1.000680339924529
     25:    0.999007520413369
     26:    0.997602402590740
     27:    0.998165329411441
     28:    0.990834813996884
     29:    0.999554385110358
     30:    0.999070209595721


    Psi4 stopped on: Wednesday, 08 June 2022 04:28PM
    Psi4 wall time for execution: 0:02:18.69

*** Psi4 exiting successfully. Buy a developer a beer!
