
    -----------------------------------------------------------------------
          Psi4: An Open-Source Ab Initio Electronic Structure Package
                               Psi4 1.5 release

                         Git: Rev {HEAD} e9f4d6d 


    D. G. A. Smith, L. A. Burns, A. C. Simmonett, R. M. Parrish,
    M. C. Schieber, R. Galvelis, P. Kraus, H. Kruse, R. Di Remigio,
    A. Alenaizan, A. M. James, S. Lehtola, J. P. Misiewicz, M. Scheurer,
    R. A. Shaw, J. B. Schriber, Y. Xie, Z. L. Glick, D. A. Sirianni,
    J. S. O'Brien, J. M. Waldrop, A. Kumar, E. G. Hohenstein,
    B. P. Pritchard, B. R. Brooks, H. F. Schaefer III, A. Yu. Sokolov,
    K. Patkowski, A. E. DePrince III, U. Bozkaya, R. A. King,
    F. A. Evangelista, J. M. Turney, T. D. Crawford, C. D. Sherrill,
    J. Chem. Phys. 152(18) 184108 (2020). https://doi.org/10.1063/5.0006002

                            Additional Code Authors
    E. T. Seidl, C. L. Janssen, E. F. Valeev, M. L. Leininger,
    J. F. Gonthier, R. M. Richard, H. R. McAlexander, M. Saitow, X. Wang,
    P. Verma, M. H. Lechner, and A. Jiang

             Previous Authors, Complete List of Code Contributors,
                       and Citations for Specific Modules
    https://github.com/psi4/psi4/blob/master/codemeta.json
    https://github.com/psi4/psi4/graphs/contributors
    http://psicode.org/psi4manual/master/introduction.html#citing-psifour

    -----------------------------------------------------------------------


    Psi4 started on: Wednesday, 08 June 2022 04:52PM

    Process ID: 1157030
    Host:       node74.bme.utexas.edu
    PSIDATADIR: /home/bdw2292/miniconda3/envs/newamoebamdpoltype/share/psi4
    Memory:     500.0 MiB
    Threads:    1
    
  ==> Input File <==

--------------------------------------------------------------------------
molecule { 
0 1
 N    0.010361    0.307332   -0.161735
 C    0.710208   -0.880085   -0.295923
 C    2.199482   -0.997309   -0.648437
 N    3.244426   -0.025639   -0.307454
 O    0.155466   -1.967885   -0.046368
 H    2.465599   -1.929047   -0.157274
 H    2.225236   -1.217548   -1.738794
 C   -1.358850    0.238937    0.307624
 C   -3.995569    0.295487    1.205715
 C   -3.634244   -0.529128    0.140581
 C   -3.032530    1.087974    1.825250
 C   -2.319176   -0.558101   -0.314373
 C   -1.712637    1.054900    1.378994
 C    0.177952    1.410565   -1.130720
 C    4.552808   -0.653910   -0.523097
 C    3.226023    1.331236   -0.830259
 H   -4.376491   -1.155929   -0.334630
 H   -3.302847    1.722550    2.658201
 H   -2.032562   -1.212911   -1.122211
 H   -0.947382    1.649085    1.859688
 H   -0.739931    1.507639   -1.711753
 H    0.367378    2.359139   -0.631393
 H    0.984181    1.198127   -1.821995
 H    4.610482   -1.594846    0.024524
 H    4.750793   -0.864235   -1.589540
 H    3.123727    1.381873   -1.929904
 H    2.442148    1.918645   -0.365233
 H   -5.019687    0.313615    1.553214
 H    5.340573   -0.000643   -0.148792
 H    4.173437    1.803261   -0.569473
}
memory 8.166666666666666GB
set_num_threads(2)
psi4_io.set_default_path("/scratch/bdw2292/Psi4-25_27_Index_0-farH_in17")
set freeze_core True
E, wfn = energy('wb97x-d/6-311+G*',return_wfn=True)
oeprop(wfn,"WIBERG_LOWDIN_INDICES")
clean()
--------------------------------------------------------------------------

  Memory set to   7.606 GiB by Python driver.
  Threads set to 2 by Python driver.

Scratch directory: /scratch/bdw2292/Psi4-25_27_Index_0-farH_in17/

Scratch directory: /scratch/bdw2292/Psi4-25_27_Index_0-farH_in17/

*** tstart() called on node74.bme.utexas.edu
*** at Wed Jun  8 16:52:31 2022

   => Loading Basis Set <=

    Name: 6-311+G*
    Role: ORBITAL
    Keyword: BASIS
    atoms 1, 4       entry N          line   151 file /home/bdw2292/miniconda3/envs/newamoebamdpoltype/share/psi4/basis/6-311pgs.gbs 
    atoms 2-3, 8-16  entry C          line   130 file /home/bdw2292/miniconda3/envs/newamoebamdpoltype/share/psi4/basis/6-311pgs.gbs 
    atoms 5          entry O          line   172 file /home/bdw2292/miniconda3/envs/newamoebamdpoltype/share/psi4/basis/6-311pgs.gbs 
    atoms 6-7, 17-30 entry H          line    47 file /home/bdw2292/miniconda3/envs/newamoebamdpoltype/share/psi4/basis/6-311pgs.gbs 

   => WB97X-D: Empirical Dispersion <=

    Chai and Head-Gordon Dispersion Correction
    Chai, J.-D.; Head-Gordon, M. (2010), J. Chem. Phys., 132: 6615-6620

        s6 =       1.000000


         ---------------------------------------------------------
                                   SCF
               by Justin Turney, Rob Parrish, Andy Simmonett
                          and Daniel G. A. Smith
                              RKS Reference
                        2 Threads,   7788 MiB Core
         ---------------------------------------------------------

  ==> Geometry <==

    Molecular point group: c1
    Full point group: C1

    Geometry (in Angstrom), charge = 0, multiplicity = 1:

       Center              X                  Y                   Z               Mass       
    ------------   -----------------  -----------------  -----------------  -----------------
         N            0.010360984402     0.307332083418    -0.161735030368    14.003074004430
         C            0.710207984402    -0.880084916582    -0.295923030368    12.000000000000
         C            2.199481984402    -0.997308916582    -0.648437030368    12.000000000000
         N            3.244425984402    -0.025638916582    -0.307454030368    14.003074004430
         O            0.155465984402    -1.967884916582    -0.046368030368    15.994914619570
         H            2.465598984402    -1.929046916582    -0.157274030368     1.007825032230
         H            2.225235984402    -1.217547916582    -1.738794030368     1.007825032230
         C           -1.358850015598     0.238937083418     0.307623969632    12.000000000000
         C           -3.995569015598     0.295487083418     1.205714969632    12.000000000000
         C           -3.634244015598    -0.529127916582     0.140580969632    12.000000000000
         C           -3.032530015598     1.087974083418     1.825249969632    12.000000000000
         C           -2.319176015598    -0.558100916582    -0.314373030368    12.000000000000
         C           -1.712637015598     1.054900083418     1.378993969632    12.000000000000
         C            0.177951984402     1.410565083418    -1.130720030368    12.000000000000
         C            4.552807984402    -0.653909916582    -0.523097030368    12.000000000000
         C            3.226022984402     1.331236083418    -0.830259030368    12.000000000000
         H           -4.376491015598    -1.155928916582    -0.334630030368     1.007825032230
         H           -3.302847015598     1.722550083418     2.658200969632     1.007825032230
         H           -2.032562015598    -1.212910916582    -1.122211030368     1.007825032230
         H           -0.947382015598     1.649085083418     1.859687969632     1.007825032230
         H           -0.739931015598     1.507639083418    -1.711753030368     1.007825032230
         H            0.367377984402     2.359139083418    -0.631393030368     1.007825032230
         H            0.984180984402     1.198127083418    -1.821995030368     1.007825032230
         H            4.610481984402    -1.594845916582     0.024523969632     1.007825032230
         H            4.750792984402    -0.864234916582    -1.589540030368     1.007825032230
         H            3.123726984402     1.381873083418    -1.929904030368     1.007825032230
         H            2.442147984402     1.918645083418    -0.365233030368     1.007825032230
         H           -5.019687015598     0.313615083418     1.553213969632     1.007825032230
         H            5.340572984402    -0.000642916582    -0.148792030368     1.007825032230
         H            4.173436984402     1.803261083418    -0.569473030368     1.007825032230

  Running in c1 symmetry.

  Rotational constants: A =      0.05917  B =      0.01126  C =      0.01038 [cm^-1]
  Rotational constants: A =   1773.75221  B =    337.41799  C =    311.24695 [MHz]
  Nuclear repulsion =  885.602761968321488

  Charge       = 0
  Multiplicity = 1
  Electrons    = 104
  Nalpha       = 52
  Nbeta        = 52

  ==> Algorithm <==

  SCF Algorithm Type is DF.
  DIIS enabled.
  MOM disabled.
  Fractional occupation disabled.
  Guess Type is SAD.
  Energy threshold   = 1.00e-06
  Density threshold  = 1.00e-06
  Integral threshold = 1.00e-12

  ==> Primary Basis <==

  Basis Set: 6-311+G*
    Blend: 6-311+G*
    Number of shells: 188
    Number of basis functions: 356
    Number of Cartesian functions: 370
    Spherical Harmonics?: true
    Max angular momentum: 2

  ==> DFT Potential <==

   => LibXC <=

    Version 5.1.5
    S. Lehtola, C. Steigemann, M. J. Oliveira, and M. A. Marques, SoftwareX 7, 1 (2018) (10.1016/j.softx.2017.11.002)

   => Composite Functional: WB97X-D <= 

    wB97X-D Hyb-GGA Exchange-Correlation Functional

    J.-D. Chai and M. Head-Gordon, Phys. Chem. Chem. Phys. 10, 6615 (2008) (10.1039/B810189B)

    Deriv               =              1
    GGA                 =           TRUE
    Meta                =          FALSE

    Exchange Hybrid     =           TRUE
    MP2 Hybrid          =          FALSE

   => Exchange-Correlation Functionals <=

    1.0000   wB97X-D range-separated functional

   => Exact (HF) Exchange <=

    0.7780            HF,LR [omega = 0.2000]
    0.2220               HF 

   => LibXC Density Thresholds  <==

    XC_HYB_GGA_XC_WB97X_D:  1.00E-14 

   => Molecular Quadrature <=

    Radial Scheme          =       TREUTLER
    Pruning Scheme         =           NONE
    Nuclear Scheme         =       TREUTLER

    BS radius alpha        =              1
    Pruning alpha          =              1
    Radial Points          =             75
    Spherical Points       =            302
    Total Points           =         626005
    Total Blocks           =           4508
    Max Points             =            256
    Max Functions          =            300
    Weights Tolerance      =       1.00E-15

   => Loading Basis Set <=

    Name: (6-311+G* AUX)
    Role: JKFIT
    Keyword: DF_BASIS_SCF
    atoms 1, 4       entry N          line   262 file /home/bdw2292/miniconda3/envs/newamoebamdpoltype/share/psi4/basis/heavy-aug-cc-pvtz-jkfit.gbs 
    atoms 2-3, 8-16  entry C          line   200 file /home/bdw2292/miniconda3/envs/newamoebamdpoltype/share/psi4/basis/heavy-aug-cc-pvtz-jkfit.gbs 
    atoms 5          entry O          line   324 file /home/bdw2292/miniconda3/envs/newamoebamdpoltype/share/psi4/basis/heavy-aug-cc-pvtz-jkfit.gbs 
    atoms 6-7, 17-30 entry H          line   116 file /home/bdw2292/miniconda3/envs/newamoebamdpoltype/share/psi4/basis/heavy-aug-cc-pvtz-jkfit.gbs 

  ==> Integral Setup <==

  DFHelper Memory: AOs need 4.759 GiB; user supplied 4.759 GiB. Using in-core AOs.

  ==> MemDFJK: Density-Fitted J/K Matrices <==

    J tasked:                   Yes
    K tasked:                   Yes
    wK tasked:                  Yes
    Omega:                2.000E-01
    OpenMP threads:               2
    Memory [MiB]:              4873
    Algorithm:                 Core
    Schwarz Cutoff:           1E-12
    Mask sparsity (%):      14.2296
    Fitting Condition:        1E-10

   => Auxiliary Basis Set <=

  Basis Set: (6-311+G* AUX)
    Blend: HEAVY-AUG-CC-PVTZ-JKFIT
    Number of shells: 580
    Number of basis functions: 1936
    Number of Cartesian functions: 2394
    Spherical Harmonics?: true
    Max angular momentum: 4

  Cached 20.0% of DFT collocation blocks in 0.759 [GiB].

  Minimum eigenvalue in the overlap matrix is 1.3120338380E-06.
  Reciprocal condition number of the overlap matrix is 8.9159921938E-08.
    Using symmetric orthogonalization.

  ==> Pre-Iterations <==

  SCF Guess: Superposition of Atomic Densities via on-the-fly atomic UHF (no occupation information).

   -------------------------
    Irrep   Nso     Nmo    
   -------------------------
     A        356     356 
   -------------------------
    Total     356     356
   -------------------------

  ==> Iterations <==

                           Total Energy        Delta E     RMS |[F,P]|

   @DF-RKS iter SAD:  -612.70070571051974   -6.12701e+02   0.00000e+00 
   @DF-RKS iter   1:  -612.75834888003828   -5.76432e-02   3.27292e-03 DIIS
   @DF-RKS iter   2:  -612.98128498245489   -2.22936e-01   2.91422e-03 DIIS
   @DF-RKS iter   3:  -613.41711255382450   -4.35828e-01   6.21204e-04 DIIS
   @DF-RKS iter   4:  -613.43357908541373   -1.64665e-02   1.93311e-04 DIIS
   @DF-RKS iter   5:  -613.43529380870064   -1.71472e-03   7.63607e-05 DIIS
   @DF-RKS iter   6:  -613.43558941064452   -2.95602e-04   1.74242e-05 DIIS
   @DF-RKS iter   7:  -613.43560781386066   -1.84032e-05   3.71013e-06 DIIS
   @DF-RKS iter   8:  -613.43560909198868   -1.27813e-06   1.74092e-06 DIIS
   @DF-RKS iter   9:  -613.43560940325688   -3.11268e-07   5.54293e-07 DIIS
  Energy and wave function converged.


  ==> Post-Iterations <==

   Electrons on quadrature grid:
      Ntotal   =  104.0000594030 ; deviation = 5.940e-05 

    Orbital Energies [Eh]
    ---------------------

    Doubly Occupied:                                                      

       1A    -19.213337     2A    -14.472681     3A    -14.435859  
       4A    -10.398073     5A    -10.329330     6A    -10.325008  
       7A    -10.324795     8A    -10.307198     9A    -10.305135  
      10A    -10.292675    11A    -10.292052    12A    -10.291361  
      13A    -10.290734    14A    -10.290047    15A     -1.137824  
      16A     -1.044458    17A     -1.028661    18A     -0.957538  
      19A     -0.856914    20A     -0.853048    21A     -0.838792  
      22A     -0.810508    23A     -0.805726    24A     -0.731027  
      25A     -0.711772    26A     -0.701066    27A     -0.651430  
      28A     -0.604956    29A     -0.599739    30A     -0.583091  
      31A     -0.575700    32A     -0.560528    33A     -0.550892  
      34A     -0.532738    35A     -0.527758    36A     -0.522049  
      37A     -0.512237    38A     -0.510080    39A     -0.503307  
      40A     -0.488041    41A     -0.471138    42A     -0.468317  
      43A     -0.458739    44A     -0.449222    45A     -0.446372  
      46A     -0.435237    47A     -0.432783    48A     -0.351523  
      49A     -0.344782    50A     -0.331368    51A     -0.319546  
      52A     -0.297834  

    Virtual:                                                              

      53A      0.048757    54A      0.052863    55A      0.055354  
      56A      0.065672    57A      0.070407    58A      0.074738  
      59A      0.076570    60A      0.083686    61A      0.088123  
      62A      0.095469    63A      0.099730    64A      0.104593  
      65A      0.109125    66A      0.112813    67A      0.116093  
      68A      0.122018    69A      0.131206    70A      0.134364  
      71A      0.137732    72A      0.143982    73A      0.149994  
      74A      0.154031    75A      0.159712    76A      0.164186  
      77A      0.169889    78A      0.177481    79A      0.185479  
      80A      0.189019    81A      0.191535    82A      0.193211  
      83A      0.198958    84A      0.204007    85A      0.209554  
      86A      0.214099    87A      0.218439    88A      0.222480  
      89A      0.226044    90A      0.229297    91A      0.234883  
      92A      0.244828    93A      0.250275    94A      0.252932  
      95A      0.257211    96A      0.260198    97A      0.263281  
      98A      0.266983    99A      0.272032   100A      0.273481  
     101A      0.275802   102A      0.282307   103A      0.286378  
     104A      0.289473   105A      0.290748   106A      0.297746  
     107A      0.299077   108A      0.300736   109A      0.304068  
     110A      0.309939   111A      0.314408   112A      0.319741  
     113A      0.321452   114A      0.324943   115A      0.326380  
     116A      0.333058   117A      0.342001   118A      0.348465  
     119A      0.353207   120A      0.361353   121A      0.362288  
     122A      0.365088   123A      0.374568   124A      0.379892  
     125A      0.382532   126A      0.385121   127A      0.396483  
     128A      0.401080   129A      0.405725   130A      0.416208  
     131A      0.422194   132A      0.431656   133A      0.435123  
     134A      0.448962   135A      0.466022   136A      0.474953  
     137A      0.478440   138A      0.489788   139A      0.491695  
     140A      0.519122   141A      0.530916   142A      0.533117  
     143A      0.555535   144A      0.572383   145A      0.584804  
     146A      0.595278   147A      0.598614   148A      0.610747  
     149A      0.616355   150A      0.620985   151A      0.627994  
     152A      0.633474   153A      0.634443   154A      0.645013  
     155A      0.651879   156A      0.661939   157A      0.666586  
     158A      0.671637   159A      0.686226   160A      0.694203  
     161A      0.706767   162A      0.730901   163A      0.734787  
     164A      0.740773   165A      0.742506   166A      0.755177  
     167A      0.759369   168A      0.766577   169A      0.772973  
     170A      0.776094   171A      0.780044   172A      0.785564  
     173A      0.787796   174A      0.790825   175A      0.799239  
     176A      0.811152   177A      0.817382   178A      0.825589  
     179A      0.831061   180A      0.839136   181A      0.843727  
     182A      0.857245   183A      0.869639   184A      0.879346  
     185A      0.900297   186A      0.918089   187A      0.923991  
     188A      0.929587   189A      0.946321   190A      0.953186  
     191A      0.960261   192A      0.977484   193A      0.984326  
     194A      0.991369   195A      1.011676   196A      1.020640  
     197A      1.028423   198A      1.047574   199A      1.054660  
     200A      1.092366   201A      1.107876   202A      1.123571  
     203A      1.127549   204A      1.145578   205A      1.154641  
     206A      1.168568   207A      1.171143   208A      1.210131  
     209A      1.251398   210A      1.279226   211A      1.292398  
     212A      1.319754   213A      1.323119   214A      1.327554  
     215A      1.339338   216A      1.354789   217A      1.377335  
     218A      1.383616   219A      1.420803   220A      1.429296  
     221A      1.455741   222A      1.501312   223A      1.553433  
     224A      1.577412   225A      1.590136   226A      1.596956  
     227A      1.611456   228A      1.613616   229A      1.629080  
     230A      1.638659   231A      1.653780   232A      1.662098  
     233A      1.679752   234A      1.685629   235A      1.710777  
     236A      1.722531   237A      1.733785   238A      1.761648  
     239A      1.775157   240A      1.785022   241A      1.789569  
     242A      1.806849   243A      1.817089   244A      1.827559  
     245A      1.845336   246A      1.856782   247A      1.873797  
     248A      1.884330   249A      1.899346   250A      1.905202  
     251A      1.932287   252A      1.937109   253A      1.980165  
     254A      1.998142   255A      2.026249   256A      2.045471  
     257A      2.072759   258A      2.086130   259A      2.102820  
     260A      2.113373   261A      2.158140   262A      2.193694  
     263A      2.256305   264A      2.329981   265A      2.364166  
     266A      2.372970   267A      2.395205   268A      2.400577  
     269A      2.430331   270A      2.489071   271A      2.492226  
     272A      2.497663   273A      2.510951   274A      2.527033  
     275A      2.538009   276A      2.574150   277A      2.594365  
     278A      2.602025   279A      2.609500   280A      2.621335  
     281A      2.641025   282A      2.668934   283A      2.708590  
     284A      2.723349   285A      2.737919   286A      2.743956  
     287A      2.753531   288A      2.766992   289A      2.799928  
     290A      2.817169   291A      2.837809   292A      2.857352  
     293A      2.888347   294A      2.899174   295A      2.944698  
     296A      2.966164   297A      2.971591   298A      3.004584  
     299A      3.020358   300A      3.057712   301A      3.078322  
     302A      3.092293   303A      3.158458   304A      3.201920  
     305A      3.262388   306A      3.278202   307A      3.290650  
     308A      3.300769   309A      3.327753   310A      3.355007  
     311A      3.365264   312A      3.408576   313A      3.412838  
     314A      3.415527   315A      3.429545   316A      3.445372  
     317A      3.461327   318A      3.466384   319A      3.482489  
     320A      3.489444   321A      3.516171   322A      3.580778  
     323A      3.591136   324A      3.631489   325A      3.679879  
     326A      3.752152   327A      3.759939   328A      3.877501  
     329A      3.950536   330A      4.115355   331A      4.131674  
     332A      4.133062   333A      4.219266   334A      4.221895  
     335A      4.770470   336A      4.807360   337A      4.878574  
     338A      4.895027   339A      5.107859   340A      5.228218  
     341A      5.371948   342A      5.864425   343A     23.497293  
     344A     23.649967   345A     23.710483   346A     23.743900  
     347A     23.794602   348A     23.946925   349A     23.981764  
     350A     24.013211   351A     24.175284   352A     24.180367  
     353A     24.285459   354A     35.622777   355A     35.692791  
     356A     50.139741  

    Final Occupation by Irrep:
              A 
    DOCC [    52 ]

  @DF-RKS Final Energy:  -613.43560940325688

   => Energetics <=

    Nuclear Repulsion Energy =            885.6027619683214880
    One-Electron Energy =               -2587.8642774230165742
    Two-Electron Energy =                1149.3649802679603908
    DFT Exchange-Correlation Energy =     -60.5184793500679561
    Empirical Dispersion Energy =          -0.0205948664541386
    VV10 Nonlocal Energy =                  0.0000000000000000
    Total Energy =                       -613.4356094032569899

Computation Completed


Properties will be evaluated at   0.000000,   0.000000,   0.000000 [a0]

Properties computed using the SCF density matrix

  Nuclear Dipole Moment: [e a0]
     X:    13.1765      Y:     5.5009      Z:    -5.6475

  Electronic Dipole Moment: [e a0]
     X:   -12.8136      Y:    -4.2775      Z:     4.9616

  Dipole Moment: [e a0]
     X:     0.3629      Y:     1.2234      Z:    -0.6859     Total:     1.4487

  Dipole Moment: [D]
     X:     0.9224      Y:     3.1095      Z:    -1.7433     Total:     3.6822


*** tstop() called on node74.bme.utexas.edu at Wed Jun  8 16:55:01 2022
Module time:
	user time   =     280.19 seconds =       4.67 minutes
	system time =      11.01 seconds =       0.18 minutes
	total time  =        150 seconds =       2.50 minutes
Total time:
	user time   =     280.19 seconds =       4.67 minutes
	system time =      11.01 seconds =       0.18 minutes
	total time  =        150 seconds =       2.50 minutes


Properties will be evaluated at   0.000000,   0.000000,   0.000000 [a0]
OEProp: No title given, name of density matrix used for the following properties is 'SCF density'


  Wiberg Bond Indices using Orthogonal Lowdin Orbitals:

  Irrep: 1 Size: 30 x 30

                 1                   2                   3                   4                   5

    1     0.00000000000000     1.33081640642109     0.09927676186380     0.02142528356136     0.23618116985348
    2     1.33081640642109     0.00000000000000     1.02817329016089     0.08610610124746     2.16629627916506
    3     0.09927676186380     1.02817329016089     0.00000000000000     1.19645011139533     0.18061021509397
    4     0.02142528356136     0.08610610124746     1.19645011139533     0.00000000000000     0.01977457689815
    5     0.23618116985348     2.16629627916506     0.18061021509397     0.01977457689815     0.00000000000000
    6     0.00493846060951     0.04765926686537     0.82009683339589     0.04580096368587     0.02476857186149
    7     0.00746790872906     0.05127070563858     0.80682452740706     0.04725345332300     0.01874043609171
    8     1.08771568836765     0.10455231988961     0.01772542989429     0.00212981546222     0.06231128982170
    9     0.00827727416981     0.00424309879113     0.00059259930787     0.00011262113944     0.00243762834881
   10     0.01537354544223     0.00487970070475     0.00082471782880     0.00015225050073     0.00911562609423
   11     0.01590559228574     0.00371847602304     0.00063796615267     0.00009625748141     0.00304217592907
   12     0.10781464397365     0.04047310597533     0.00553330640529     0.00067056742997     0.06059942360983
   13     0.12551416977550     0.02675870064762     0.00286004944568     0.00062603820963     0.01161695274936
   14     1.14264276603463     0.10803376294248     0.03025914016012     0.01610410025308     0.03216340967421
   15     0.00295818601689     0.01979773622507     0.13823227262401     1.23279736649750     0.00396283166566
   16     0.01645913120733     0.02000711885618     0.10383554809996     1.24732479408376     0.00300604291076
   17     0.00099442263839     0.00028982864467     0.00003571050167     0.00001796331701     0.00024738080275
   18     0.00085125373441     0.00036687826425     0.00006416637875     0.00000779635069     0.00007163242564
   19     0.01415233500532     0.00880035200950     0.00078370267239     0.00006010277896     0.01272561802368
   20     0.01912527533908     0.00263675837025     0.00018190518930     0.00001912448461     0.00033059978248
   21     0.04311065306785     0.01304786063038     0.00115665843163     0.00030183769296     0.00238536320903
   22     0.05298319117109     0.00950191453660     0.00096792075685     0.00072494366708     0.00300150770671
   23     0.04156919590870     0.01767379629925     0.00919391767243     0.00457138982362     0.00095299500623
   24     0.00020264149684     0.00165879157213     0.01939655078379     0.04894956136317     0.00042370287964
   25     0.00042388499137     0.00168752824117     0.01973063316152     0.05476454740842     0.00014839868887
   26     0.00083501661414     0.00372505628644     0.01787159145032     0.05340176505801     0.00011156541235
   27     0.00506847117774     0.00269861739011     0.00782526518627     0.05150824413070     0.00019336735541
   28     0.00023810294495     0.00005529241048     0.00002125848194     0.00000503291055     0.00007371884665
   29     0.00024561405997     0.00136904080851     0.01164573222517     0.04842025669710     0.00049928605619
   30     0.00027137674471     0.00061344137119     0.01205063271479     0.04958085351171     0.00022636781894

                 6                   7                   8                   9                  10

    1     0.00493846060951     0.00746790872906     1.08771568836765     0.00827727416981     0.01537354544223
    2     0.04765926686537     0.05127070563858     0.10455231988961     0.00424309879113     0.00487970070475
    3     0.82009683339589     0.80682452740706     0.01772542989429     0.00059259930787     0.00082471782880
    4     0.04580096368587     0.04725345332300     0.00212981546222     0.00011262113944     0.00015225050073
    5     0.02476857186149     0.01874043609171     0.06231128982170     0.00243762834881     0.00911562609423
    6     0.00000000000000     0.00569699291412     0.00080234582597     0.00002315191210     0.00006289922283
    7     0.00569699291412     0.00000000000000     0.00076072638523     0.00005877810949     0.00006015763288
    8     0.00080234582597     0.00076072638523     0.00000000000000     0.13911668479525     0.13706453390189
    9     0.00002315191210     0.00005877810949     0.13911668479525     0.00000000000000     1.51322574099682
   10     0.00006289922283     0.00006015763288     0.13706453390189     1.51322574099682     0.00000000000000
   11     0.00004632713335     0.00006560806436     0.13616805567854     1.52735260884610     0.13728777340870
   12     0.00038389900604     0.00033447679292     1.40638654465343     0.13800708670513     1.52163206391528
   13     0.00024943786080     0.00029792240908     1.43210318295839     0.13852258410487     0.14430464817910
   14     0.00134615828416     0.00548603879420     0.11575356182896     0.00560612291952     0.00526699820082
   15     0.01863682470946     0.01772655637000     0.00059521395218     0.00003088569410     0.00004895651276
   16     0.01060649443722     0.01551907205691     0.00226303679609     0.00015616852817     0.00015619049980
   17     0.00000131007006     0.00000692684025     0.01082663033354     0.05895606433463     0.83375526378165
   18     0.00001412289362     0.00000171992944     0.01071448331126     0.05899264235074     0.01135229859347
   19     0.00013521334429     0.00002940345996     0.05448507829591     0.01043214430011     0.05493079269493
   20     0.00002931687539     0.00002678161884     0.05674931810892     0.01077608970429     0.00241749632399
   21     0.00004451930756     0.00011774128804     0.02333663553812     0.00066745956068     0.00108273143041
   22     0.00004322185842     0.00005792158971     0.00840281252473     0.00019773615294     0.00029894864617
   23     0.00020188326824     0.00067360765357     0.00889439513548     0.00066091089187     0.00022183008253
   24     0.00333868737389     0.00137289599792     0.00005993916054     0.00000237793146     0.00000353288394
   25     0.00152701781850     0.00131625699826     0.00012533986516     0.00000549976315     0.00001133602056
   26     0.00013544995649     0.00053000206297     0.00015664631938     0.00002517327099     0.00001733750799
   27     0.00035888962341     0.00070905231001     0.00039335253938     0.00002134110247     0.00003726415904
   28     0.00000048855195     0.00000132080616     0.00299026468580     0.83593431995929     0.05893096068308
   29     0.00094818381962     0.00018224388979     0.00004996524394     0.00000197639078     0.00000283440460
   30     0.00017361379854     0.00007252452067     0.00006153910917     0.00000629481752     0.00000413256797

                11                  12                  13                  14                  15

    1     0.01590559228574     0.10781464397365     0.12551416977550     1.14264276603463     0.00295818601689
    2     0.00371847602304     0.04047310597533     0.02675870064762     0.10803376294248     0.01979773622507
    3     0.00063796615267     0.00553330640529     0.00286004944568     0.03025914016012     0.13823227262401
    4     0.00009625748141     0.00067056742997     0.00062603820963     0.01610410025308     1.23279736649750
    5     0.00304217592907     0.06059942360983     0.01161695274936     0.03216340967421     0.00396283166566
    6     0.00004632713335     0.00038389900604     0.00024943786080     0.00134615828416     0.01863682470946
    7     0.00006560806436     0.00033447679292     0.00029792240908     0.00548603879420     0.01772655637000
    8     0.13616805567854     1.40638654465343     1.43210318295839     0.11575356182896     0.00059521395218
    9     1.52735260884610     0.13800708670513     0.13852258410487     0.00560612291952     0.00003088569410
   10     0.13728777340870     1.52163206391528     0.14430464817910     0.00526699820082     0.00004895651276
   11     0.00000000000000     0.14510061983835     1.51088705030454     0.00490509275119     0.00003303988353
   12     0.14510061983835     0.00000000000000     0.12884407739488     0.03705831685922     0.00021875361502
   13     1.51088705030454     0.12884407739488     0.00000000000000     0.04121115108554     0.00016835408136
   14     0.00490509275119     0.03705831685922     0.04121115108554     0.00000000000000     0.00269816653628
   15     0.00003303988353     0.00021875361502     0.00016835408136     0.00269816653628     0.00000000000000
   16     0.00012317855245     0.00071651877221     0.00072481615991     0.06325211234028     0.13214866230911
   17     0.01133995049944     0.06016605657026     0.00245078966740     0.00026834371726     0.00000376188170
   18     0.83430468717382     0.00243800815417     0.06031514035950     0.00022627464446     0.00000493710525
   19     0.00226513824925     0.80332194919040     0.00892076142487     0.00406464149391     0.00003938146905
   20     0.05557423483830     0.00949200848645     0.81255513281480     0.00648257243067     0.00000770202966
   21     0.00071419480896     0.00890005396931     0.00650347085622     0.86995234898786     0.00008578188001
   22     0.00053467814536     0.00122473172272     0.00496857821009     0.88403299965278     0.00017521952891
   23     0.00027456110627     0.00142946719859     0.00196841768867     0.86755651834290     0.00061537669552
   24     0.00000462130704     0.00001206000829     0.00001606184897     0.00015683470866     0.89466314676592
   25     0.00000597913623     0.00004473124051     0.00004763531613     0.00035834372533     0.88361468205890
   26     0.00001947614151     0.00005901331930     0.00006645332732     0.01227868261141     0.01525084060592
   27     0.00002098386024     0.00012490762959     0.00015520265737     0.02214228230475     0.01141233821247
   28     0.05908219437391     0.01118331386514     0.01137935555197     0.00005607042273     0.00000132218291
   29     0.00000259099360     0.00001537308042     0.00001517502388     0.00030253238979     0.89629967026588
   30     0.00000405799856     0.00002704896898     0.00003174430084     0.00260723502135     0.02245896791554

                16                  17                  18                  19                  20

    1     0.01645913120733     0.00099442263839     0.00085125373441     0.01415233500532     0.01912527533908
    2     0.02000711885618     0.00028982864467     0.00036687826425     0.00880035200950     0.00263675837025
    3     0.10383554809996     0.00003571050167     0.00006416637875     0.00078370267239     0.00018190518930
    4     1.24732479408376     0.00001796331701     0.00000779635069     0.00006010277896     0.00001912448461
    5     0.00300604291076     0.00024738080275     0.00007163242564     0.01272561802368     0.00033059978248
    6     0.01060649443722     0.00000131007006     0.00001412289362     0.00013521334429     0.00002931687539
    7     0.01551907205691     0.00000692684025     0.00000171992944     0.00002940345996     0.00002678161884
    8     0.00226303679609     0.01082663033354     0.01071448331126     0.05448507829591     0.05674931810892
    9     0.00015616852817     0.05895606433463     0.05899264235074     0.01043214430011     0.01077608970429
   10     0.00015619049980     0.83375526378165     0.01135229859347     0.05493079269493     0.00241749632399
   11     0.00012317855245     0.01133995049944     0.83430468717382     0.00226513824925     0.05557423483830
   12     0.00071651877221     0.06016605657026     0.00243800815417     0.80332194919040     0.00949200848645
   13     0.00072481615991     0.00245078966740     0.06031514035950     0.00892076142487     0.81255513281480
   14     0.06325211234028     0.00026834371726     0.00022627464446     0.00406464149391     0.00648257243067
   15     0.13214866230911     0.00000376188170     0.00000493710525     0.00003938146905     0.00000770202966
   16     0.00000000000000     0.00001793043461     0.00000624431699     0.00006393467959     0.00008376258564
   17     0.00001793043461     0.00000000000000     0.00027121083774     0.00522842243293     0.00023698819673
   18     0.00000624431699     0.00027121083774     0.00000000000000     0.00023325028060     0.00509885311544
   19     0.00006393467959     0.00522842243293     0.00023325028060     0.00000000000000     0.00036601178473
   20     0.00008376258564     0.00023698819673     0.00509885311544     0.00036601178473     0.00000000000000
   21     0.00260450606118     0.00004203032736     0.00001034857367     0.00028240420028     0.00006443539133
   22     0.00984710976178     0.00000569643237     0.00001482512115     0.00001390352738     0.00032541367051
   23     0.02133541085594     0.00000329726239     0.00000760248803     0.00006869852018     0.00001581198242
   24     0.01162244018046     0.00000011908589     0.00000045076209     0.00000226538692     0.00000059036109
   25     0.01738626178723     0.00000055494990     0.00000067686300     0.00000773003534     0.00000058252456
   26     0.87378333816772     0.00000015772765     0.00000012470922     0.00001573872316     0.00001204189942
   27     0.87782789692489     0.00000221407960     0.00000078186223     0.00002808827882     0.00003683966069
   28     0.00000402302756     0.00520680125766     0.00520198745028     0.00022748178863     0.00023748771833
   29     0.01911572686175     0.00000051169703     0.00000088868528     0.00000434220643     0.00000107278907
   30     0.88778919240700     0.00000016499849     0.00000013385436     0.00000248370559     0.00000336724303

                21                  22                  23                  24                  25

    1     0.04311065306785     0.05298319117109     0.04156919590870     0.00020264149684     0.00042388499137
    2     0.01304786063038     0.00950191453660     0.01767379629925     0.00165879157213     0.00168752824117
    3     0.00115665843163     0.00096792075685     0.00919391767243     0.01939655078379     0.01973063316152
    4     0.00030183769296     0.00072494366708     0.00457138982362     0.04894956136317     0.05476454740842
    5     0.00238536320903     0.00300150770671     0.00095299500623     0.00042370287964     0.00014839868887
    6     0.00004451930756     0.00004322185842     0.00020188326824     0.00333868737389     0.00152701781850
    7     0.00011774128804     0.00005792158971     0.00067360765357     0.00137289599792     0.00131625699826
    8     0.02333663553812     0.00840281252473     0.00889439513548     0.00005993916054     0.00012533986516
    9     0.00066745956068     0.00019773615294     0.00066091089187     0.00000237793146     0.00000549976315
   10     0.00108273143041     0.00029894864617     0.00022183008253     0.00000353288394     0.00001133602056
   11     0.00071419480896     0.00053467814536     0.00027456110627     0.00000462130704     0.00000597913623
   12     0.00890005396931     0.00122473172272     0.00142946719859     0.00001206000829     0.00004473124051
   13     0.00650347085622     0.00496857821009     0.00196841768867     0.00001606184897     0.00004763531613
   14     0.86995234898786     0.88403299965278     0.86755651834290     0.00015683470866     0.00035834372533
   15     0.00008578188001     0.00017521952891     0.00061537669552     0.89466314676592     0.88361468205890
   16     0.00260450606118     0.00984710976178     0.02133541085594     0.01162244018046     0.01738626178723
   17     0.00004203032736     0.00000569643237     0.00000329726239     0.00000011908589     0.00000055494990
   18     0.00001034857367     0.00001482512115     0.00000760248803     0.00000045076209     0.00000067686300
   19     0.00028240420028     0.00001390352738     0.00006869852018     0.00000226538692     0.00000773003534
   20     0.00006443539133     0.00032541367051     0.00001581198242     0.00000059036109     0.00000058252456
   21     0.00000000000000     0.00773137517310     0.00991052727259     0.00000257775889     0.00000897308585
   22     0.00773137517310     0.00000000000000     0.00806832772549     0.00001101236249     0.00000896269634
   23     0.00991052727259     0.00806832772549     0.00000000000000     0.00007642095306     0.00003152588706
   24     0.00000257775889     0.00001101236249     0.00007642095306     0.00000000000000     0.00735249704889
   25     0.00000897308585     0.00000896269634     0.00003152588706     0.00735249704889     0.00000000000000
   26     0.00016997789238     0.00035718308796     0.00383463334678     0.00010326434443     0.00057109973631
   27     0.00065752547378     0.00366653353456     0.00318097587464     0.00021777861042     0.00016206495071
   28     0.00000756441956     0.00000762014217     0.00000944130501     0.00000011252677     0.00000047914562
   29     0.00002204878186     0.00004045231429     0.00008397410937     0.01013871043362     0.00766472337873
   30     0.00019631063452     0.00015613707954     0.00064457575348     0.00113522674221     0.00113979691808

                26                  27                  28                  29                  30

    1     0.00083501661414     0.00506847117774     0.00023810294495     0.00024561405997     0.00027137674471
    2     0.00372505628644     0.00269861739011     0.00005529241048     0.00136904080851     0.00061344137119
    3     0.01787159145032     0.00782526518627     0.00002125848194     0.01164573222517     0.01205063271479
    4     0.05340176505801     0.05150824413070     0.00000503291055     0.04842025669710     0.04958085351171
    5     0.00011156541235     0.00019336735541     0.00007371884665     0.00049928605619     0.00022636781894
    6     0.00013544995649     0.00035888962341     0.00000048855195     0.00094818381962     0.00017361379854
    7     0.00053000206297     0.00070905231001     0.00000132080616     0.00018224388979     0.00007252452067
    8     0.00015664631938     0.00039335253938     0.00299026468580     0.00004996524394     0.00006153910917
    9     0.00002517327099     0.00002134110247     0.83593431995929     0.00000197639078     0.00000629481752
   10     0.00001733750799     0.00003726415904     0.05893096068308     0.00000283440460     0.00000413256797
   11     0.00001947614151     0.00002098386024     0.05908219437391     0.00000259099360     0.00000405799856
   12     0.00005901331930     0.00012490762959     0.01118331386514     0.00001537308042     0.00002704896898
   13     0.00006645332732     0.00015520265737     0.01137935555197     0.00001517502388     0.00003174430084
   14     0.01227868261141     0.02214228230475     0.00005607042273     0.00030253238979     0.00260723502135
   15     0.01525084060592     0.01141233821247     0.00000132218291     0.89629967026588     0.02245896791554
   16     0.87378333816772     0.87782789692489     0.00000402302756     0.01911572686175     0.88778919240700
   17     0.00000015772765     0.00000221407960     0.00520680125766     0.00000051169703     0.00000016499849
   18     0.00000012470922     0.00000078186223     0.00520198745028     0.00000088868528     0.00000013385436
   19     0.00001573872316     0.00002808827882     0.00022748178863     0.00000434220643     0.00000248370559
   20     0.00001204189942     0.00003683966069     0.00023748771833     0.00000107278907     0.00000336724303
   21     0.00016997789238     0.00065752547378     0.00000756441956     0.00002204878186     0.00019631063452
   22     0.00035718308796     0.00366653353456     0.00000762014217     0.00004045231429     0.00015613707954
   23     0.00383463334678     0.00318097587464     0.00000944130501     0.00008397410937     0.00064457575348
   24     0.00010326434443     0.00021777861042     0.00000011252677     0.01013871043362     0.00113522674221
   25     0.00057109973631     0.00016206495071     0.00000047914562     0.00766472337873     0.00113979691808
   26     0.00000000000000     0.00736329942453     0.00000006468765     0.00069096873516     0.00798894854373
   27     0.00736329942453     0.00000000000000     0.00000185222601     0.00065280357896     0.01064686974277
   28     0.00000006468765     0.00000185222601     0.00000000000000     0.00000006789317     0.00000002061037
   29     0.00069096873516     0.00065280357896     0.00000006789317     0.00000000000000     0.00347670252668
   30     0.00798894854373     0.01064686974277     0.00000002061037     0.00347670252668     0.00000000000000



  Atomic Valences: 

 #  #
 Irrep: 1
      1:    4.402838423206288
      2:    5.106911226388605
      3:    4.532858414842480
      4:    4.229157720363505
      5:    2.856018133782049
      6:    0.988070546284150
      7:    0.982661759684196
      8:    4.822694830382727
      9:    4.454443064899499
     10:    4.452522562821993
     11:    4.449517170965560
     12:    4.492212128350676
     13:    4.474083054414300
     14:    4.282272579118563
     15:    4.294686935290584
     16:    4.337786663662492
     17:    0.990376503321049
     18:    0.990573420589569
     19:    0.981691369963109
     20:    0.982887575320016
     21:    0.993117915705395
     22:    0.997370878499290
     23:    1.003729486110309
     24:    1.000924872639431
     25:    0.998147743441704
     26:    0.999374910970612
     27:    1.007115103861544
     28:    0.990858020876304
     29:    1.001893469340649
     30:    1.001369761940341


    Psi4 stopped on: Wednesday, 08 June 2022 04:55PM
    Psi4 wall time for execution: 0:02:29.94

*** Psi4 exiting successfully. Buy a developer a beer!
