
    -----------------------------------------------------------------------
          Psi4: An Open-Source Ab Initio Electronic Structure Package
                               Psi4 1.5 release

                         Git: Rev {HEAD} e9f4d6d 


    D. G. A. Smith, L. A. Burns, A. C. Simmonett, R. M. Parrish,
    M. C. Schieber, R. Galvelis, P. Kraus, H. Kruse, R. Di Remigio,
    A. Alenaizan, A. M. James, S. Lehtola, J. P. Misiewicz, M. Scheurer,
    R. A. Shaw, J. B. Schriber, Y. Xie, Z. L. Glick, D. A. Sirianni,
    J. S. O'Brien, J. M. Waldrop, A. Kumar, E. G. Hohenstein,
    B. P. Pritchard, B. R. Brooks, H. F. Schaefer III, A. Yu. Sokolov,
    K. Patkowski, A. E. DePrince III, U. Bozkaya, R. A. King,
    F. A. Evangelista, J. M. Turney, T. D. Crawford, C. D. Sherrill,
    J. Chem. Phys. 152(18) 184108 (2020). https://doi.org/10.1063/5.0006002

                            Additional Code Authors
    E. T. Seidl, C. L. Janssen, E. F. Valeev, M. L. Leininger,
    J. F. Gonthier, R. M. Richard, H. R. McAlexander, M. Saitow, X. Wang,
    P. Verma, M. H. Lechner, and A. Jiang

             Previous Authors, Complete List of Code Contributors,
                       and Citations for Specific Modules
    https://github.com/psi4/psi4/blob/master/codemeta.json
    https://github.com/psi4/psi4/graphs/contributors
    http://psicode.org/psi4manual/master/introduction.html#citing-psifour

    -----------------------------------------------------------------------


    Psi4 started on: Wednesday, 08 June 2022 12:27PM

    Process ID: 1106430
    Host:       node74.bme.utexas.edu
    PSIDATADIR: /home/bdw2292/miniconda3/envs/newamoebamdpoltype/share/psi4
    Memory:     500.0 MiB
    Threads:    1
    
  ==> Input File <==

--------------------------------------------------------------------------
molecule { 
0 1
 N   -0.281459    0.389907   -0.695975
 C    0.856119   -0.224857   -0.115104
 C    2.208012    0.042940   -0.848761
 N    3.408245   -0.578580   -0.235728
 O    0.779989   -0.852095    0.943344
 H    2.169958   -0.293921   -1.898640
 H    2.400473    1.130135   -0.897770
 C   -1.566665    0.290564   -0.029344
 C   -4.088863    0.130785    1.238201
 C   -3.368279   -1.036957    0.955007
 C   -3.551318    1.377537    0.892647
 C   -2.116661   -0.968699    0.327757
 C   -2.300391    1.468345    0.265635
 C   -0.298220    0.889359   -2.092558
 C    4.566928   -0.539368   -1.147058
 C    3.747928    0.050537    1.057309
 H   -3.781636   -2.011147    1.221886
 H   -4.107477    2.291298    1.109798
 H   -1.564667   -1.887048    0.119837
 H   -1.895184    2.449369    0.008435
 H   -1.306941    1.173344   -2.395345
 H    0.340085    1.767906   -2.189163
 H    0.042586    0.114099   -2.779622
 H    4.323767   -1.079175   -2.076934
 H    4.852185    0.499068   -1.387011
 H    3.973695    1.124085    0.941942
 H    2.897712   -0.077502    1.745038
 H   -5.063652    0.069302    1.726071
 H    5.420301   -1.056950   -0.679438
 H    4.613509   -0.463807    1.505416
}
set optking { 
  frozen_dihedral = ("
    1 2 3 4
    2 1 8 12
    8 1 2 3
    2 3 4 15
  ")
}
set {
  geom_maxiter 400
  g_convergence GAU_LOOSE
  dynamic_level 1
}
memory 8.166666666666666GB
set_num_threads(2)
psi4_io.set_default_path("/scratch/bdw2292/Psi4-25_27_Index_0-farH_in17")
for _ in range(1):
  try:
    set opt_coordinates both
    optimize('wb97x-d/6-311G')
    break
  except OptimizationConvergenceError:
    break
  else:
    try:
      set opt_coordinates cartesian
      optimize('wb97x-d/6-311G')
      break
    except OptimizationConvergenceError:
      pass
clean()
--------------------------------------------------------------------------

  Memory set to   7.606 GiB by Python driver.
  Threads set to 2 by Python driver.

Scratch directory: /scratch/bdw2292/Psi4-25_27_Index_0-farH_in17/

Scratch directory: /scratch/bdw2292/Psi4-25_27_Index_0-farH_in17/
gradient() will perform analytic gradient computation.

*** tstart() called on node74.bme.utexas.edu
*** at Wed Jun  8 12:27:04 2022

   => Loading Basis Set <=

    Name: 6-311G
    Role: ORBITAL
    Keyword: BASIS
    atoms 1, 4       entry N          line   109 file /home/bdw2292/miniconda3/envs/newamoebamdpoltype/share/psi4/basis/6-311g.gbs 
    atoms 2-3, 8-16  entry C          line    92 file /home/bdw2292/miniconda3/envs/newamoebamdpoltype/share/psi4/basis/6-311g.gbs 
    atoms 5          entry O          line   126 file /home/bdw2292/miniconda3/envs/newamoebamdpoltype/share/psi4/basis/6-311g.gbs 
    atoms 6-7, 17-30 entry H          line    21 file /home/bdw2292/miniconda3/envs/newamoebamdpoltype/share/psi4/basis/6-311g.gbs 

   => WB97X-D: Empirical Dispersion <=

    Chai and Head-Gordon Dispersion Correction
    Chai, J.-D.; Head-Gordon, M. (2010), J. Chem. Phys., 132: 6615-6620

        s6 =       1.000000


         ---------------------------------------------------------
                                   SCF
               by Justin Turney, Rob Parrish, Andy Simmonett
                          and Daniel G. A. Smith
                              RKS Reference
                        2 Threads,   7788 MiB Core
         ---------------------------------------------------------

  ==> Geometry <==

    Molecular point group: c1
    Full point group: C1

    Geometry (in Angstrom), charge = 0, multiplicity = 1:

       Center              X                  Y                   Z               Mass       
    ------------   -----------------  -----------------  -----------------  -----------------
         N           -0.274913592308     0.362480058761    -0.706982893531    14.003074004430
         C            0.862664407692    -0.252283941239    -0.126111893531    12.000000000000
         C            2.214557407692     0.015513058761    -0.859768893531    12.000000000000
         N            3.414790407692    -0.606006941239    -0.246735893531    14.003074004430
         O            0.786534407692    -0.879521941239     0.932336106469    15.994914619570
         H            2.176503407692    -0.321347941239    -1.909647893531     1.007825032230
         H            2.407018407692     1.102708058761    -0.908777893531     1.007825032230
         C           -1.560119592308     0.263137058761    -0.040351893531    12.000000000000
         C           -4.082317592308     0.103358058761     1.227193106469    12.000000000000
         C           -3.361733592308    -1.064383941239     0.943999106469    12.000000000000
         C           -3.544772592308     1.350110058761     0.881639106469    12.000000000000
         C           -2.110115592308    -0.996125941239     0.316749106469    12.000000000000
         C           -2.293845592308     1.440918058761     0.254627106469    12.000000000000
         C           -0.291674592308     0.861932058761    -2.103565893531    12.000000000000
         C            4.573473407692    -0.566794941239    -1.158065893531    12.000000000000
         C            3.754473407692     0.023110058761     1.046301106469    12.000000000000
         H           -3.775090592308    -2.038573941239     1.210878106469     1.007825032230
         H           -4.100931592308     2.263871058761     1.098790106469     1.007825032230
         H           -1.558121592308    -1.914474941239     0.108829106469     1.007825032230
         H           -1.888638592308     2.421942058761    -0.002572893531     1.007825032230
         H           -1.300395592308     1.145917058761    -2.406352893531     1.007825032230
         H            0.346630407692     1.740479058761    -2.200170893531     1.007825032230
         H            0.049131407692     0.086672058761    -2.790629893531     1.007825032230
         H            4.330312407692    -1.106601941239    -2.087941893531     1.007825032230
         H            4.858730407692     0.471641058761    -1.398018893531     1.007825032230
         H            3.980240407692     1.096658058761     0.930934106469     1.007825032230
         H            2.904257407692    -0.104928941239     1.734030106469     1.007825032230
         H           -5.057106592308     0.041875058761     1.715063106469     1.007825032230
         H            5.426846407692    -1.084376941239    -0.690445893531     1.007825032230
         H            4.620054407692    -0.491233941239     1.494408106469     1.007825032230

  Running in c1 symmetry.

  Rotational constants: A =      0.05861  B =      0.01038  C =      0.00976 [cm^-1]
  Rotational constants: A =   1757.22863  B =    311.10955  C =    292.74536 [MHz]
  Nuclear repulsion =  869.785029046895261

  Charge       = 0
  Multiplicity = 1
  Electrons    = 104
  Nalpha       = 52
  Nbeta        = 52

  ==> Algorithm <==

  SCF Algorithm Type is DF.
  DIIS enabled.
  MOM disabled.
  Fractional occupation disabled.
  Guess Type is SAD.
  Energy threshold   = 1.00e-08
  Density threshold  = 1.00e-08
  Integral threshold = 1.00e-12

  ==> Primary Basis <==

  Basis Set: 6-311G
    Blend: 6-311G
    Number of shells: 146
    Number of basis functions: 230
    Number of Cartesian functions: 230
    Spherical Harmonics?: true
    Max angular momentum: 1

  ==> DFT Potential <==

   => LibXC <=

    Version 5.1.5
    S. Lehtola, C. Steigemann, M. J. Oliveira, and M. A. Marques, SoftwareX 7, 1 (2018) (10.1016/j.softx.2017.11.002)

   => Composite Functional: WB97X-D <= 

    wB97X-D Hyb-GGA Exchange-Correlation Functional

    J.-D. Chai and M. Head-Gordon, Phys. Chem. Chem. Phys. 10, 6615 (2008) (10.1039/B810189B)

    Deriv               =              1
    GGA                 =           TRUE
    Meta                =          FALSE

    Exchange Hybrid     =           TRUE
    MP2 Hybrid          =          FALSE

   => Exchange-Correlation Functionals <=

    1.0000   wB97X-D range-separated functional

   => Exact (HF) Exchange <=

    0.7780            HF,LR [omega = 0.2000]
    0.2220               HF 

   => LibXC Density Thresholds  <==

    XC_HYB_GGA_XC_WB97X_D:  1.00E-14 

   => Molecular Quadrature <=

    Radial Scheme          =       TREUTLER
    Pruning Scheme         =           NONE
    Nuclear Scheme         =       TREUTLER

    BS radius alpha        =              1
    Pruning alpha          =              1
    Radial Points          =             75
    Spherical Points       =            302
    Total Points           =         625014
    Total Blocks           =           4502
    Max Points             =            256
    Max Functions          =            181
    Weights Tolerance      =       1.00E-15

   => Loading Basis Set <=

    Name: (6-311G AUX)
    Role: JKFIT
    Keyword: DF_BASIS_SCF
    atoms 1, 4       entry N          line   177 file /home/bdw2292/miniconda3/envs/newamoebamdpoltype/share/psi4/basis/cc-pvtz-jkfit.gbs 
    atoms 2-3, 8-16  entry C          line   125 file /home/bdw2292/miniconda3/envs/newamoebamdpoltype/share/psi4/basis/cc-pvtz-jkfit.gbs 
    atoms 5          entry O          line   229 file /home/bdw2292/miniconda3/envs/newamoebamdpoltype/share/psi4/basis/cc-pvtz-jkfit.gbs 
    atoms 6-7, 17-30 entry H          line    51 file /home/bdw2292/miniconda3/envs/newamoebamdpoltype/share/psi4/basis/cc-pvtz-jkfit.gbs 

  ==> Integral Setup <==

  DFHelper Memory: AOs need 1.514 GiB; user supplied 3.558 GiB. Using in-core AOs.

  ==> MemDFJK: Density-Fitted J/K Matrices <==

    J tasked:                   Yes
    K tasked:                   Yes
    wK tasked:                  Yes
    Omega:                2.000E-01
    OpenMP threads:               2
    Memory [MiB]:              3643
    Algorithm:                 Core
    Schwarz Cutoff:           1E-12
    Mask sparsity (%):      20.8620
    Fitting Condition:        1E-10

   => Auxiliary Basis Set <=

  Basis Set: (6-311G AUX)
    Blend: CC-PVTZ-JKFIT
    Number of shells: 510
    Number of basis functions: 1586
    Number of Cartesian functions: 1904
    Spherical Harmonics?: true
    Max angular momentum: 4

  Cached 100.0% of DFT collocation blocks in 2.146 [GiB].

  Minimum eigenvalue in the overlap matrix is 2.6966596357E-04.
  Reciprocal condition number of the overlap matrix is 3.8024989953E-05.
    Using symmetric orthogonalization.

  ==> Pre-Iterations <==

  SCF Guess: Superposition of Atomic Densities via on-the-fly atomic UHF (no occupation information).

   -------------------------
    Irrep   Nso     Nmo    
   -------------------------
     A        230     230 
   -------------------------
    Total     230     230
   -------------------------

  ==> Iterations <==

                           Total Energy        Delta E     RMS |[F,P]|

   @DF-RKS iter SAD:  -612.15770205502872   -6.12158e+02   0.00000e+00 
   @DF-RKS iter   1:  -612.76352765805598   -6.05826e-01   4.41759e-03 DIIS
   @DF-RKS iter   2:  -612.84088358801455   -7.73559e-02   4.50940e-03 DIIS
   @DF-RKS iter   3:  -613.24050028934471   -3.99617e-01   1.25185e-03 DIIS
   @DF-RKS iter   4:  -613.27172635367867   -3.12261e-02   2.24571e-04 DIIS
   @DF-RKS iter   5:  -613.27276653532374   -1.04018e-03   9.67358e-05 DIIS
   @DF-RKS iter   6:  -613.27298042129905   -2.13886e-04   2.06553e-05 DIIS
   @DF-RKS iter   7:  -613.27299166223509   -1.12409e-05   6.24703e-06 DIIS
   @DF-RKS iter   8:  -613.27299314041056   -1.47818e-06   1.82145e-06 DIIS
   @DF-RKS iter   9:  -613.27299331508607   -1.74676e-07   9.82955e-07 DIIS
   @DF-RKS iter  10:  -613.27299335641794   -4.13319e-08   2.49380e-07 DIIS
   @DF-RKS iter  11:  -613.27299336063652   -4.21858e-09   9.11540e-08 DIIS
   @DF-RKS iter  12:  -613.27299336099099   -3.54476e-10   2.91486e-08 DIIS
   @DF-RKS iter  13:  -613.27299336105671   -6.57110e-11   8.14769e-09 DIIS
  Energy and wave function converged.


  ==> Post-Iterations <==

   Electrons on quadrature grid:
      Ntotal   =  104.0000714677 ; deviation = 7.147e-05 

    Orbital Energies [Eh]
    ---------------------

    Doubly Occupied:                                                      

       1A    -19.219996     2A    -14.476835     3A    -14.430111  
       4A    -10.409971     5A    -10.343323     6A    -10.333291  
       7A    -10.331910     8A    -10.305553     9A    -10.301629  
      10A    -10.298888    11A    -10.297752    12A    -10.296823  
      13A    -10.296234    14A    -10.290859    15A     -1.156461  
      16A     -1.043767    17A     -1.021990    18A     -0.957018  
      19A     -0.860473    20A     -0.853655    21A     -0.832499  
      22A     -0.806663    23A     -0.800483    24A     -0.730755  
      25A     -0.707541    26A     -0.688583    27A     -0.647702  
      28A     -0.605162    29A     -0.596400    30A     -0.578872  
      31A     -0.572687    32A     -0.555725    33A     -0.549310  
      34A     -0.536344    35A     -0.532629    36A     -0.520832  
      37A     -0.513787    38A     -0.502438    39A     -0.493827  
      40A     -0.480567    41A     -0.475883    42A     -0.462283  
      43A     -0.453088    44A     -0.446064    45A     -0.442942  
      46A     -0.437478    47A     -0.431638    48A     -0.352252  
      49A     -0.342409    50A     -0.329735    51A     -0.307705  
      52A     -0.287268  

    Virtual:                                                              

      53A      0.052149    54A      0.061120    55A      0.083952  
      56A      0.103871    57A      0.124508    58A      0.135159  
      59A      0.147323    60A      0.159010    61A      0.163951  
      62A      0.172234    63A      0.176522    64A      0.181860  
      65A      0.191387    66A      0.195930    67A      0.197684  
      68A      0.203891    69A      0.210651    70A      0.223950  
      71A      0.229115    72A      0.234485    73A      0.250950  
      74A      0.258263    75A      0.281342    76A      0.291437  
      77A      0.310888    78A      0.322416    79A      0.340375  
      80A      0.348973    81A      0.359122    82A      0.368154  
      83A      0.376435    84A      0.381023    85A      0.392817  
      86A      0.409681    87A      0.421116    88A      0.434016  
      89A      0.446500    90A      0.461395    91A      0.465234  
      92A      0.482555    93A      0.486280    94A      0.490373  
      95A      0.496637    96A      0.502079    97A      0.510798  
      98A      0.516508    99A      0.539633   100A      0.545167  
     101A      0.548914   102A      0.555485   103A      0.562172  
     104A      0.578344   105A      0.587301   106A      0.599887  
     107A      0.614144   108A      0.623229   109A      0.627674  
     110A      0.630500   111A      0.644375   112A      0.646248  
     113A      0.659292   114A      0.662889   115A      0.667966  
     116A      0.673832   117A      0.678852   118A      0.690647  
     119A      0.691965   120A      0.692631   121A      0.695150  
     122A      0.700100   123A      0.712880   124A      0.723591  
     125A      0.737883   126A      0.742747   127A      0.752047  
     128A      0.755839   129A      0.763969   130A      0.772031  
     131A      0.809605   132A      0.840712   133A      0.855709  
     134A      0.858061   135A      0.872978   136A      0.886484  
     137A      0.897251   138A      0.909842   139A      0.930544  
     140A      0.951910   141A      0.967088   142A      0.983389  
     143A      0.991678   144A      1.002420   145A      1.036160  
     146A      1.074373   147A      1.091646   148A      1.101708  
     149A      1.135806   150A      1.141681   151A      1.188868  
     152A      1.236401   153A      1.259658   154A      1.289534  
     155A      1.369645   156A      1.459642   157A      1.512145  
     158A      1.762783   159A      2.285123   160A      2.303104  
     161A      2.313079   162A      2.318703   163A      2.339007  
     164A      2.350766   165A      2.352790   166A      2.366589  
     167A      2.374856   168A      2.398473   169A      2.406246  
     170A      2.418735   171A      2.432681   172A      2.451320  
     173A      2.460965   174A      2.626708   175A      2.635510  
     176A      2.668308   177A      2.682264   178A      2.700548  
     179A      2.780689   180A      2.793015   181A      2.842860  
     182A      2.851623   183A      2.895749   184A      2.908582  
     185A      2.928884   186A      2.941192   187A      2.955821  
     188A      2.958505   189A      2.981944   190A      3.005710  
     191A      3.022139   192A      3.048707   193A      3.066588  
     194A      3.072049   195A      3.084651   196A      3.128339  
     197A      3.141106   198A      3.163942   199A      3.180056  
     200A      3.198176   201A      3.233586   202A      3.243310  
     203A      3.303216   204A      3.319218   205A      3.348175  
     206A      3.372771   207A      3.506694   208A      3.927669  
     209A      3.936192   210A      4.085894   211A      4.110474  
     212A      4.156744   213A      4.257770   214A      5.003526  
     215A      5.081024   216A      5.129502   217A     23.242330  
     218A     23.441341   219A     23.476044   220A     23.487895  
     221A     23.536679   222A     23.547138   223A     23.589163  
     224A     23.663679   225A     23.716651   226A     23.749263  
     227A     23.989661   228A     35.554668   229A     35.564251  
     230A     50.057460  

    Final Occupation by Irrep:
              A 
    DOCC [    52 ]

  @DF-RKS Final Energy:  -613.27299336105671

   => Energetics <=

    Nuclear Repulsion Energy =            869.7850290468952608
    One-Electron Energy =               -2556.0496590481757266
    Two-Electron Energy =                1133.3984380714055078
    DFT Exchange-Correlation Energy =     -60.3874161131074558
    Empirical Dispersion Energy =          -0.0193853180743127
    VV10 Nonlocal Energy =                  0.0000000000000000
    Total Energy =                       -613.2729933610567059

Computation Completed


Properties will be evaluated at   0.000000,   0.000000,   0.000000 [a0]

Properties computed using the SCF density matrix

  Nuclear Dipole Moment: [e a0]
     X:    12.5750      Y:     3.0997      Z:    -5.7128

  Electronic Dipole Moment: [e a0]
     X:   -12.7529      Y:    -2.1677      Z:     4.3649

  Dipole Moment: [e a0]
     X:    -0.1780      Y:     0.9320      Z:    -1.3480     Total:     1.6484

  Dipole Moment: [D]
     X:    -0.4523      Y:     2.3689      Z:    -3.4262     Total:     4.1898


*** tstop() called on node74.bme.utexas.edu at Wed Jun  8 12:28:17 2022
Module time:
	user time   =     135.48 seconds =       2.26 minutes
	system time =       8.00 seconds =       0.13 minutes
	total time  =         73 seconds =       1.22 minutes
Total time:
	user time   =     135.48 seconds =       2.26 minutes
	system time =       8.00 seconds =       0.13 minutes
	total time  =         73 seconds =       1.22 minutes

*** tstart() called on node74.bme.utexas.edu
*** at Wed Jun  8 12:28:17 2022


         ------------------------------------------------------------
                                   SCF GRAD                          
                          Rob Parrish, Justin Turney,                
                       Andy Simmonett, and Alex Sokolov              
         ------------------------------------------------------------

  ==> Geometry <==

    Molecular point group: c1
    Full point group: C1

    Geometry (in Angstrom), charge = 0, multiplicity = 1:

       Center              X                  Y                   Z               Mass       
    ------------   -----------------  -----------------  -----------------  -----------------
         N           -0.274913592308     0.362480058761    -0.706982893531    14.003074004430
         C            0.862664407692    -0.252283941239    -0.126111893531    12.000000000000
         C            2.214557407692     0.015513058761    -0.859768893531    12.000000000000
         N            3.414790407692    -0.606006941239    -0.246735893531    14.003074004430
         O            0.786534407692    -0.879521941239     0.932336106469    15.994914619570
         H            2.176503407692    -0.321347941239    -1.909647893531     1.007825032230
         H            2.407018407692     1.102708058761    -0.908777893531     1.007825032230
         C           -1.560119592308     0.263137058761    -0.040351893531    12.000000000000
         C           -4.082317592308     0.103358058761     1.227193106469    12.000000000000
         C           -3.361733592308    -1.064383941239     0.943999106469    12.000000000000
         C           -3.544772592308     1.350110058761     0.881639106469    12.000000000000
         C           -2.110115592308    -0.996125941239     0.316749106469    12.000000000000
         C           -2.293845592308     1.440918058761     0.254627106469    12.000000000000
         C           -0.291674592308     0.861932058761    -2.103565893531    12.000000000000
         C            4.573473407692    -0.566794941239    -1.158065893531    12.000000000000
         C            3.754473407692     0.023110058761     1.046301106469    12.000000000000
         H           -3.775090592308    -2.038573941239     1.210878106469     1.007825032230
         H           -4.100931592308     2.263871058761     1.098790106469     1.007825032230
         H           -1.558121592308    -1.914474941239     0.108829106469     1.007825032230
         H           -1.888638592308     2.421942058761    -0.002572893531     1.007825032230
         H           -1.300395592308     1.145917058761    -2.406352893531     1.007825032230
         H            0.346630407692     1.740479058761    -2.200170893531     1.007825032230
         H            0.049131407692     0.086672058761    -2.790629893531     1.007825032230
         H            4.330312407692    -1.106601941239    -2.087941893531     1.007825032230
         H            4.858730407692     0.471641058761    -1.398018893531     1.007825032230
         H            3.980240407692     1.096658058761     0.930934106469     1.007825032230
         H            2.904257407692    -0.104928941239     1.734030106469     1.007825032230
         H           -5.057106592308     0.041875058761     1.715063106469     1.007825032230
         H            5.426846407692    -1.084376941239    -0.690445893531     1.007825032230
         H            4.620054407692    -0.491233941239     1.494408106469     1.007825032230

  Nuclear repulsion =  869.785029046895261

  ==> Basis Set <==

  Basis Set: 6-311G
    Blend: 6-311G
    Number of shells: 146
    Number of basis functions: 230
    Number of Cartesian functions: 230
    Spherical Harmonics?: true
    Max angular momentum: 1

  ==> DFJKGrad: Density-Fitted SCF Gradients <==

    Gradient:                    1
    J tasked:                  Yes
    K tasked:                  Yes
    wK tasked:                 Yes
    Omega:               2.000E-01
    OpenMP threads:              2
    Integrals threads:           2
    Memory [MiB]:             5841
    Schwarz Cutoff:          1E-12
    Fitting Condition:       1E-10

   => Auxiliary Basis Set <=

  Basis Set: (6-311G AUX)
    Blend: CC-PVTZ-JKFIT
    Number of shells: 510
    Number of basis functions: 1586
    Number of Cartesian functions: 1904
    Spherical Harmonics?: true
    Max angular momentum: 4

  ==> DFT Potential <==

   => LibXC <=

    Version 5.1.5
    S. Lehtola, C. Steigemann, M. J. Oliveira, and M. A. Marques, SoftwareX 7, 1 (2018) (10.1016/j.softx.2017.11.002)

   => Composite Functional: WB97X-D <= 

    wB97X-D Hyb-GGA Exchange-Correlation Functional

    J.-D. Chai and M. Head-Gordon, Phys. Chem. Chem. Phys. 10, 6615 (2008) (10.1039/B810189B)

    Deriv               =              1
    GGA                 =           TRUE
    Meta                =          FALSE

    Exchange Hybrid     =           TRUE
    MP2 Hybrid          =          FALSE

   => Exchange-Correlation Functionals <=

    1.0000   wB97X-D range-separated functional

   => Exact (HF) Exchange <=

    0.7780            HF,LR [omega = 0.2000]
    0.2220               HF 

   => LibXC Density Thresholds  <==

    XC_HYB_GGA_XC_WB97X_D:  1.00E-14 

   => Molecular Quadrature <=

    Radial Scheme          =       TREUTLER
    Pruning Scheme         =           NONE
    Nuclear Scheme         =       TREUTLER

    BS radius alpha        =              1
    Pruning alpha          =              1
    Radial Points          =             75
    Spherical Points       =            302
    Total Points           =         625014
    Total Blocks           =           4502
    Max Points             =            256
    Max Functions          =            181
    Weights Tolerance      =       1.00E-15


  -Total Gradient:
     Atom            X                  Y                   Z
    ------   -----------------  -----------------  -----------------
       1       -0.000062376843     0.011249238020    -0.001934303340
       2       -0.000399267826    -0.016315556135     0.016535327913
       3       -0.008341475902     0.004806342067     0.000246495045
       4        0.006067034789    -0.003981629594    -0.003467249164
       5       -0.001651582843     0.001155889764    -0.001746016057
       6        0.004708602386     0.000478259354    -0.007810888674
       7        0.009204070235    -0.003540156412     0.000506852920
       8        0.009198038744     0.003278464317    -0.009109493738
       9       -0.001580692849    -0.000530865470     0.000757938023
      10       -0.002140317076    -0.001657794169     0.000901809088
      11       -0.000488156660     0.000404198449     0.001885286617
      12       -0.003193308925    -0.009307023971     0.003760092923
      13       -0.004833363921     0.010577351199     0.002204574021
      14       -0.007003375266    -0.000570145728    -0.007089198730
      15        0.007056117643     0.008662276881     0.000981831400
      16        0.008304438369     0.011961092644    -0.005107889693
      17       -0.002763160407    -0.005967674308     0.001557006514
      18       -0.003397097010     0.005561173142     0.001045818903
      19        0.002330712719    -0.008189841372    -0.001533491716
      20        0.000395851955     0.007181780474    -0.001354066356
      21       -0.001228261348     0.002128508319    -0.006138490932
      22       -0.001073107524     0.000037599257     0.002108539261
      23       -0.000875330570    -0.000168299714     0.001259290212
      24       -0.002008846477    -0.004861123548    -0.005308181985
      25       -0.002928640815     0.000775956044     0.001834381989
      26       -0.001353615543    -0.000533616872    -0.000636232241
      27       -0.006807411528    -0.002247486014     0.005439173580
      28       -0.006365746346    -0.000532325486     0.003051087604
      29        0.006603343836    -0.005268560758     0.002397087786
      30        0.005297142568    -0.004483187688     0.004855530961


*** tstop() called on node74.bme.utexas.edu at Wed Jun  8 12:28:52 2022
Module time:
	user time   =      65.33 seconds =       1.09 minutes
	system time =       1.58 seconds =       0.03 minutes
	total time  =         35 seconds =       0.58 minutes
Total time:
	user time   =     200.81 seconds =       3.35 minutes
	system time =       9.58 seconds =       0.16 minutes
	total time  =        108 seconds =       1.80 minutes

			-----------------------------------------
			 OPTKING 2.0: for geometry optimizations 
			  - R.A. King,  Bethel University        
			-----------------------------------------
	At level 1: Red. Int., RFO, no backsteps, dynamic trust

	Internal coordinates to be generated automatically.
	Detected frag 1 with atoms:  1 2 3 4 5 6 7 8 9 10 11 12 13 14 15 16 17 18 19 20
	 21 22 23 24 25 26 27 28 29 30
	---Fragment 1 Bond Connectivity---
	 1 : 2 8 14
	 2 : 1 3 5
	 3 : 2 4 6 7
	 4 : 3 15 16
	 5 : 2
	 6 : 3
	 7 : 3
	 8 : 1 12 13
	 9 : 10 11 28
	 10 : 9 12 17
	 11 : 9 13 18
	 12 : 8 10 19
	 13 : 8 11 20
	 14 : 1 21 22 23
	 15 : 4 24 25 29
	 16 : 4 26 27 30
	 17 : 10
	 18 : 11
	 19 : 12
	 20 : 13
	 21 : 14
	 22 : 14
	 23 : 14
	 24 : 15
	 25 : 15
	 26 : 16
	 27 : 16
	 28 : 9
	 29 : 15
	 30 : 16

	Assuming in current code that numbering for constraints corresponds to unified fragment.
	Frozen dihedral atom list: 
	     1     2     3     4
	     2     1     8    12
	     8     1     2     3
	     2     3     4    15
	---Fragment 1 Geometry and Gradient---
	 N          -0.5195113976        0.6849880370       -1.3360040442
	 C           1.6301994687       -0.4767475548       -0.2383169399
	 C           4.1849069896        0.0293154324       -1.6247277400
	 N           6.4530186464       -1.1451871491       -0.4662632641
	 O           1.4863346188       -1.6620555903        1.7618598981
	 H           4.1129953517       -0.6072595999       -3.6087115148
	 H           4.5486055695        2.0838162274       -1.7173413276
	 C          -2.9481987524        0.4972569745       -0.0762540274
	 C          -7.7144622066        0.1953184239        2.3190588743
	 C          -6.3527557962       -2.0113941413        1.7838997739
	 C          -6.6986493765        2.5513382503        1.6660564527
	 C          -3.9875405625       -1.8824052154        0.5985690617
	 C          -4.3347399436        2.7229405003        0.4811754953
	 C          -0.5511850972        1.6288155298       -3.9751634256
	 C           8.6426121826       -1.0710872082       -2.1884273740
	 C           7.0949264859        0.0436716818        1.9772225360
	 H          -7.1338873183       -3.8523464354        2.2882279925
	 H          -7.7496375687        4.2780962844        2.0764123706
	 H          -2.9444230796       -3.6178333130        0.2056572057
	 H          -3.5690096894        4.5768071828       -0.0048620641
	 H          -2.4573915242        2.1654694035       -4.5473479300
	 H           0.6550365373        3.2890287482       -4.1577204180
	 H           0.0928449047        0.1637864538       -5.2735262163
	 H           8.1831044882       -2.0911745988       -3.9456383446
	 H           9.1816697880        0.8912724306       -2.6418728270
	 H           7.5215642840        2.0723833843        1.7592105021
	 H           5.4882510984       -0.1982869616        3.2768419945
	 H          -9.5565464467        0.0791323925        3.2409995591
	 H          10.2552534355       -2.0491754357       -1.3047536432
	 H           8.7306375153       -0.9282976125        2.8240220409
	            -0.0000623768        0.0112492380       -0.0019343033
	            -0.0003992678       -0.0163155561        0.0165353279
	            -0.0083414759        0.0048063421        0.0002464950
	             0.0060670348       -0.0039816296       -0.0034672492
	            -0.0016515828        0.0011558898       -0.0017460161
	             0.0047086024        0.0004782594       -0.0078108887
	             0.0092040702       -0.0035401564        0.0005068529
	             0.0091980387        0.0032784643       -0.0091094937
	            -0.0015806928       -0.0005308655        0.0007579380
	            -0.0021403171       -0.0016577942        0.0009018091
	            -0.0004881567        0.0004041984        0.0018852866
	            -0.0031933089       -0.0093070240        0.0037600929
	            -0.0048333639        0.0105773512        0.0022045740
	            -0.0070033753       -0.0005701457       -0.0070891987
	             0.0070561176        0.0086622769        0.0009818314
	             0.0083044384        0.0119610926       -0.0051078897
	            -0.0027631604       -0.0059676743        0.0015570065
	            -0.0033970970        0.0055611731        0.0010458189
	             0.0023307127       -0.0081898414       -0.0015334917
	             0.0003958520        0.0071817805       -0.0013540664
	            -0.0012282613        0.0021285083       -0.0061384909
	            -0.0010731075        0.0000375993        0.0021085393
	            -0.0008753306       -0.0001682997        0.0012592902
	            -0.0020088465       -0.0048611235       -0.0053081820
	            -0.0029286408        0.0007759560        0.0018343820
	            -0.0013536155       -0.0005336169       -0.0006362322
	            -0.0068074115       -0.0022474860        0.0054391736
	            -0.0063657463       -0.0005323255        0.0030510876
	             0.0066033438       -0.0052685608        0.0023970878
	             0.0052971426       -0.0044831877        0.0048555310

	Previous optimization step data not found.  Starting new optimization.

	---Fragment 1 Intrafragment Coordinates---
	 - Coordinate -           - BOHR/RAD -       - ANG/DEG -
	 R(1,2)           =         2.678769	       1.417544
	 R(1,8)           =         2.742396	       1.451213
	 R(1,14)          =         2.803030	       1.483299
	 R(2,3)           =         2.950384	       1.561276
	 R(2,5)           =         2.329455	       1.232694
	 R(3,4)           =         2.804608	       1.484135
	 R(3,6)           =         2.084848	       1.103254
	 R(3,7)           =         2.088499	       1.105186
	 R(4,15)          =         2.786693	       1.474655
	 R(4,16)          =         2.792141	       1.477538
	 R(8,12)          =         2.682985	       1.419775
	 R(8,13)          =         2.680838	       1.418638
	 R(9,10)          =         2.647682	       1.401093
	 R(9,11)          =         2.647474	       1.400983
	 R(9,28)          =         2.063189	       1.091793
	 R(10,12)         =         2.648753	       1.401659
	 R(10,17)         =         2.062430	       1.091391
	 R(11,13)         =         2.649803	       1.402216
	 R(11,18)         =         2.062683	       1.091525
	 R(12,19)         =         2.062567	       1.091464
	 R(13,20)         =         2.063831	       1.092132
	 R(14,21)         =         2.061314	       1.090800
	 R(14,22)         =         2.060244	       1.090234
	 R(14,23)         =         2.060784	       1.090520
	 R(15,24)         =         2.083150	       1.102356
	 R(15,25)         =         2.084958	       1.103312
	 R(15,29)         =         2.082822	       1.102182
	 R(16,26)         =         2.084519	       1.103080
	 R(16,27)         =         2.080615	       1.101014
	 R(16,30)         =         2.082629	       1.102080
	 B(1,2,3)         =         2.013001	     115.336467
	 B(1,2,5)         =         2.121118	     121.531092
	 B(1,8,12)        =         2.116855	     121.286873
	 B(1,8,13)        =         2.090615	     119.783430
	 B(1,14,21)       =         1.938493	     111.067447
	 B(1,14,22)       =         1.926394	     110.374267
	 B(1,14,23)       =         1.928681	     110.505308
	 B(2,1,8)         =         2.086076	     119.523357
	 B(2,1,14)        =         2.142319	     122.745828
	 B(2,3,4)         =         2.020083	     115.742240
	 B(2,3,6)         =         1.944360	     111.403623
	 B(2,3,7)         =         1.918095	     109.898765
	 B(3,2,5)         =         2.146278	     122.972693
	 B(3,4,15)        =         1.948756	     111.655504
	 B(3,4,16)        =         1.948826	     111.659501
	 B(4,3,6)         =         1.868266	     107.043747
	 B(4,3,7)         =         1.864443	     106.824690
	 B(4,15,24)       =         1.912360	     109.570161
	 B(4,15,25)       =         1.941830	     111.258673
	 B(4,15,29)       =         1.910997	     109.492085
	 B(4,16,26)       =         1.949714	     111.710360
	 B(4,16,27)       =         1.896092	     108.638050
	 B(4,16,30)       =         1.915243	     109.735343
	 B(6,3,7)         =         1.838141	     105.317702
	 B(8,1,14)        =         2.032583	     116.458456
	 B(8,12,10)       =         2.096317	     120.110135
	 B(8,12,19)       =         2.097217	     120.161674
	 B(8,13,11)       =         2.095105	     120.040676
	 B(8,13,20)       =         2.100055	     120.324282
	 B(9,10,12)       =         2.104949	     120.604676
	 B(9,10,17)       =         2.094090	     119.982496
	 B(9,11,13)       =         2.106233	     120.678288
	 B(9,11,18)       =         2.094872	     120.027333
	 B(10,9,11)       =         2.088069	     119.637522
	 B(10,9,28)       =         2.097365	     120.170184
	 B(10,12,19)      =         2.089638	     119.727432
	 B(11,9,28)       =         2.097751	     120.192282
	 B(11,13,20)      =         2.088024	     119.634937
	 B(12,8,13)       =         2.075679	     118.927649
	 B(12,10,17)      =         2.084146	     119.412764
	 B(13,11,18)      =         2.082079	     119.294330
	 B(15,4,16)       =         1.927157	     110.417976
	 B(21,14,22)      =         1.882865	     107.880239
	 B(21,14,23)      =         1.874647	     107.409362
	 B(22,14,23)      =         1.911421	     109.516360
	 B(24,15,25)      =         1.911835	     109.540068
	 B(24,15,29)      =         1.874145	     107.380614
	 B(25,15,29)      =         1.911420	     109.516285
	 B(26,16,27)      =         1.914052	     109.667104
	 B(26,16,30)      =         1.913446	     109.632400
	 B(27,16,30)      =         1.873655	     107.352539
	*D(1,2,3,4)       =         3.125102	     179.055132
	 D(1,2,3,6)       =        -1.018635	     -58.363505
	 D(1,2,3,7)       =         1.011814	      57.972670
	 D(1,8,12,10)     =        -3.126740	    -179.148992
	 D(1,8,12,19)     =         0.020397	       1.168654
	 D(1,8,13,11)     =         3.125915	     179.101762
	 D(1,8,13,20)     =        -0.017740	      -1.016410
	*D(2,1,8,12)      =        -0.949657	     -54.411339
	 D(2,1,8,13)      =         2.201121	     126.114934
	 D(2,1,14,21)     =         2.977584	     170.602991
	 D(2,1,14,22)     =        -1.218072	     -69.790411
	 D(2,1,14,23)     =         0.898841	      51.499786
	*D(2,3,4,15)      =         2.911112	     166.794456
	 D(2,3,4,16)      =        -1.205012	     -69.042120
	*D(3,2,1,8)       =        -3.055795	    -175.084148
	 D(3,2,1,14)      =         0.318756	      18.263355
	 D(3,4,15,24)     =        -1.037290	     -59.432333
	 D(3,4,15,25)     =         1.079418	      61.846121
	 D(3,4,15,29)     =        -3.088493	    -176.957597
	 D(3,4,16,26)     =        -1.060461	     -60.759928
	 D(3,4,16,27)     =         1.053198	      60.343809
	 D(3,4,16,30)     =         3.096812	     177.434248
	 D(4,3,2,5)       =         0.062670	       3.590702
	 D(5,2,1,8)       =         0.007887	       0.451873
	 D(5,2,1,14)      =        -2.900748	    -166.200624
	 D(5,2,3,6)       =         2.202118	     126.172065
	 D(5,2,3,7)       =        -2.050618	    -117.491760
	 D(6,3,4,15)      =         0.731895	      41.934495
	 D(6,3,4,16)      =         2.898956	     166.097919
	 D(7,3,4,15)      =        -1.230173	     -70.483711
	 D(7,3,4,16)      =         0.936888	      53.679714
	 D(8,1,14,21)     =         0.062301	       3.569610
	 D(8,1,14,22)     =         2.149830	     123.176208
	 D(8,1,14,23)     =        -2.016442	    -115.533595
	 D(8,12,10,9)     =        -0.001533	      -0.087854
	 D(8,12,10,17)    =         3.138447	     179.819787
	 D(8,13,11,9)     =         0.003490	       0.199965
	 D(8,13,11,18)    =        -3.136709	    -179.720190
	 D(9,10,12,19)    =         3.134539	     179.595884
	 D(9,11,13,20)    =        -3.136054	    -179.682680
	 D(10,9,11,13)    =         0.000806	       0.046169
	 D(10,9,11,18)    =         3.140995	     179.965740
	 D(10,12,8,13)    =         0.005745	       0.329138
	 D(11,9,10,12)    =        -0.001788	      -0.102455
	 D(11,9,10,17)    =         3.141426	     179.990429
	 D(11,13,8,12)    =        -0.006709	      -0.384384
	 D(12,8,1,14)     =         1.973313	     113.062492
	 D(12,8,13,20)    =         3.132821	     179.497443
	 D(12,10,9,28)    =         3.140471	     179.935760
	 D(13,8,1,14)     =        -1.159095	     -66.411235
	 D(13,8,12,19)    =        -3.130304	    -179.353216
	 D(13,11,9,28)    =        -3.141454	    -179.992055
	 D(15,4,16,26)    =         1.118682	      64.095783
	 D(15,4,16,27)    =        -3.050844	    -174.800479
	 D(15,4,16,30)    =        -1.007230	     -57.710040
	 D(16,4,15,24)    =         3.066712	     175.709677
	 D(16,4,15,25)    =        -1.099765	     -63.011870
	 D(16,4,15,29)    =         1.015510	      58.184412
	 D(17,10,9,28)    =         0.000500	       0.028644
	 D(17,10,12,19)   =        -0.008665	      -0.496475
	 D(18,11,9,28)    =        -0.001265	      -0.072483
	 D(18,11,13,20)   =         0.006932	       0.397165
	 R(5,12)          =         5.600456	       2.963634
	 R(5,16)          =         5.866190	       3.104254

	Current energy   :      -613.2729933611

	Generating empirical Hessian (Schlegel '84) for each fragment.
	Taking RFO optimization step.
	Going to follow RFO solution 1.
	Using RFO vector 1.
	Norm of target step-size    0.33311
	Projected energy change by RFO approximation:        -0.0126403371

	Back-transformation to cartesian coordinates...
	Successfully converged to displaced geometry.

	Back-transformation to cartesian coordinates to adjust frozen coordinates...
	Successfully converged to displaced geometry.

	--- Internal Coordinate Step in ANG or DEG, aJ/ANG or AJ/DEG ---
	 ---------------------------------------------------------------------------
	   Coordinate                Previous        Force       Change         New 
	   ----------                --------       ------       ------       ------
	    1 R(1,2)          =      1.417544    -0.216520    -0.032997     1.384547
	    2 R(1,8)          =      1.451213    -0.092995    -0.016775     1.434439
	    3 R(1,14)         =      1.483299    -0.081409    -0.014593     1.468707
	    4 R(2,3)          =      1.561276    -0.170476    -0.042243     1.519033
	    5 R(2,5)          =      1.232694     0.025898     0.001516     1.234211
	    6 R(3,4)          =      1.484135    -0.107047    -0.021438     1.462697
	    7 R(3,6)          =      1.103254    -0.058790    -0.010800     1.092454
	    8 R(3,7)          =      1.105186     0.015763     0.002940     1.108126
	    9 R(4,15)         =      1.474655    -0.056397    -0.009846     1.464809
	   10 R(4,16)         =      1.477538    -0.042387    -0.008649     1.468889
	   11 R(8,12)         =      1.419775    -0.172638    -0.026590     1.393184
	   12 R(8,13)         =      1.418638    -0.173006    -0.025798     1.392841
	   13 R(9,10)         =      1.401093    -0.065003    -0.008203     1.392890
	   14 R(9,11)         =      1.400983    -0.073842    -0.009384     1.391599
	   15 R(9,28)         =      1.091793    -0.058474    -0.010380     1.081413
	   16 R(10,12)        =      1.401659    -0.080717    -0.011066     1.390594
	   17 R(10,17)        =      1.091391    -0.055702    -0.009862     1.081529
	   18 R(11,13)        =      1.402216    -0.078585    -0.010745     1.391471
	   19 R(11,18)        =      1.091525    -0.054441    -0.009641     1.081884
	   20 R(12,19)        =      1.091464    -0.068780    -0.012183     1.079280
	   21 R(13,20)        =      1.092132    -0.056931    -0.010104     1.082028
	   22 R(14,21)        =      1.090800    -0.028161    -0.004976     1.085824
	   23 R(14,22)        =      1.090234     0.006647     0.001187     1.091421
	   24 R(14,23)        =      1.090520     0.007815     0.001401     1.091921
	   25 R(15,24)        =      1.102356    -0.060344    -0.011056     1.091300
	   26 R(15,25)        =      1.103312     0.003623     0.000686     1.103998
	   27 R(15,29)        =      1.102182    -0.070710    -0.012960     1.089222
	   28 R(16,26)        =      1.103080     0.006066     0.001136     1.104216
	   29 R(16,27)        =      1.101014    -0.073507    -0.013430     1.087584
	   30 R(16,30)        =      1.102080    -0.067631    -0.012391     1.089689
	   31 B(1,2,3)        =    115.336467    -0.001092    -2.502890   112.833577
	   32 B(1,2,5)        =    121.531092     0.000453     1.134044   122.665136
	   33 B(1,8,12)       =    121.286873     0.000164     0.155271   121.442144
	   34 B(1,8,13)       =    119.783430    -0.000501    -1.041537   118.741893
	   35 B(1,14,21)      =    111.067447    -0.000693    -3.109277   107.958171
	   36 B(1,14,22)      =    110.374267     0.000291     1.395932   111.770199
	   37 B(1,14,23)      =    110.505308     0.000176     0.682314   111.187622
	   38 B(2,1,8)        =    119.523357     0.000448     0.776188   120.299545
	   39 B(2,1,14)       =    122.745828    -0.000713    -1.496454   121.249374
	   40 B(2,3,4)        =    115.742240    -0.000099    -1.542517   114.199723
	   41 B(2,3,6)        =    111.403623    -0.000286    -2.079133   109.324490
	   42 B(2,3,7)        =    109.898765    -0.000488    -2.409762   107.489003
	   43 B(3,2,5)        =    122.972693     0.000638     1.438334   124.411026
	   44 B(3,4,15)       =    111.655504    -0.000406    -1.450742   110.204762
	   45 B(3,4,16)       =    111.659501     0.000394     1.116948   112.776449
	   46 B(4,3,6)        =    107.043747     0.000242     1.062398   108.106145
	   47 B(4,3,7)        =    106.824690     0.000597     4.482814   111.307504
	   48 B(4,15,24)      =    109.570161     0.000078     0.450402   110.020564
	   49 B(4,15,25)      =    111.258673     0.000372     1.577966   112.836639
	   50 B(4,15,29)      =    109.492085    -0.000171    -0.817287   108.674798
	   51 B(4,16,26)      =    111.710360     0.000073     0.185988   111.896348
	   52 B(4,16,27)      =    108.638050     0.000115     0.710993   109.349043
	   53 B(4,16,30)      =    109.735343    -0.000134    -0.657648   109.077695
	   54 B(6,3,7)        =    105.317702     0.000098     0.785585   106.103288
	   55 B(8,1,14)       =    116.458456     0.000288     1.411298   117.869754
	   56 B(8,12,10)      =    120.110135    -0.000031    -0.280180   119.829955
	   57 B(8,12,19)      =    120.161674    -0.000147    -0.588499   119.573175
	   58 B(8,13,11)      =    120.040676     0.000082     0.137025   120.177701
	   59 B(8,13,20)      =    120.324282    -0.000223    -0.842152   119.482130
	   60 B(9,10,12)      =    120.604676    -0.000087    -0.118782   120.485893
	   61 B(9,10,17)      =    119.982496     0.000058     0.145092   120.127588
	   62 B(9,11,13)      =    120.678288    -0.000192    -0.546153   120.132135
	   63 B(9,11,18)      =    120.027333     0.000089     0.225350   120.252683
	   64 B(10,9,11)      =    119.637522    -0.000109    -0.078819   119.558704
	   65 B(10,9,28)      =    120.170184     0.000064     0.108722   120.278906
	   66 B(10,12,19)     =    119.727432     0.000178     0.858709   120.586142
	   67 B(11,9,28)      =    120.192282     0.000045    -0.030724   120.161558
	   68 B(11,13,20)     =    119.634937     0.000141     0.705213   120.340150
	   69 B(12,8,13)      =    118.927649     0.000337     0.879429   119.807077
	   70 B(12,10,17)     =    119.412764     0.000029    -0.026353   119.386411
	   71 B(13,11,18)     =    119.294330     0.000103     0.316929   119.611259
	   72 B(15,4,16)      =    110.417976    -0.000007     0.594015   111.011991
	   73 B(21,14,22)     =    107.880239     0.000174     0.640037   108.520276
	   74 B(21,14,23)     =    107.409362     0.000203     0.675265   108.084627
	   75 B(22,14,23)     =    109.516360    -0.000153    -0.308931   109.207429
	   76 B(24,15,25)     =    109.540068    -0.000195    -0.711262   108.828807
	   77 B(24,15,29)     =    107.380614     0.000064     0.341563   107.722177
	   78 B(25,15,29)     =    109.516285    -0.000160    -0.895104   108.621181
	   79 B(26,16,27)     =    109.667104    -0.000056    -0.079398   109.587706
	   80 B(26,16,30)     =    109.632400    -0.000080    -0.760112   108.872288
	   81 B(27,16,30)     =    107.352539     0.000083     0.620231   107.972770
	   82 *D(1,2,3,4)     =    179.055132    -0.000000    -0.000000   179.055132
	   83 D(1,2,3,6)      =    -58.363505     0.000004    -1.338947   -59.702452
	   84 D(1,2,3,7)      =     57.972670    -0.000077    -2.924549    55.048121
	   85 D(1,8,12,10)    =   -179.148992     0.000007     0.473536  -178.675456
	   86 D(1,8,12,19)    =      1.168654     0.000016     1.340232     2.508886
	   87 D(1,8,13,11)    =    179.101762    -0.000013    -1.117315   177.984447
	   88 D(1,8,13,20)    =     -1.016410    -0.000012    -1.050042    -2.066453
	   89 *D(2,1,8,12)    =    -54.411339    -0.000000    -0.000000   -54.411339
	   90 D(2,1,8,13)     =    126.114934     0.000009     0.560498   126.675433
	   91 D(2,1,14,21)    =    170.602991     0.000022     2.928378   173.531369
	   92 D(2,1,14,22)    =    -69.790411     0.000013     2.596100   -67.194311
	   93 D(2,1,14,23)    =     51.499786     0.000040     3.632424    55.132209
	   94 *D(2,3,4,15)    =    166.794456     0.000000    -0.000000   166.794456
	   95 D(2,3,4,16)     =    -69.042120    -0.000004     0.510969   -68.531150
	   96 *D(3,2,1,8)     =   -175.084148    -0.000000    -0.000000  -175.084148
	   97 D(3,2,1,14)     =     18.263355    -0.000037    -4.418551    13.844803
	   98 D(3,4,15,24)    =    -59.432333     0.000022     0.383782   -59.048551
	   99 D(3,4,15,25)    =     61.846121     0.000034     0.851602    62.697723
	  100 D(3,4,15,29)    =   -176.957597     0.000017     0.189688  -176.767910
	  101 D(3,4,16,26)    =    -60.759928     0.000011    -0.600874   -61.360802
	  102 D(3,4,16,27)    =     60.343809     0.000024    -0.098138    60.245671
	  103 D(3,4,16,30)    =    177.434248     0.000045     0.682810   178.117058
	  104 D(4,3,2,5)      =      3.590702     0.000001    -1.151920     2.438782
	  105 D(5,2,1,8)      =      0.451873     0.000002     1.148069     1.599943
	  106 D(5,2,1,14)     =   -166.200624    -0.000035    -3.270482  -169.471106
	  107 D(5,2,3,6)      =    126.172065     0.000004    -2.490867   123.681198
	  108 D(5,2,3,7)      =   -117.491760    -0.000076    -4.076469  -121.568229
	  109 D(6,3,4,15)     =     41.934495     0.000058     2.946040    44.880535
	  110 D(6,3,4,16)     =    166.097919     0.000054     3.457009   169.554929
	  111 D(7,3,4,15)     =    -70.483711    -0.000055    -0.788176   -71.271887
	  112 D(7,3,4,16)     =     53.679714    -0.000059    -0.277207    53.402507
	  113 D(8,1,14,21)    =      3.569610    -0.000019    -1.319133     2.250477
	  114 D(8,1,14,22)    =    123.176208    -0.000028    -1.651411   121.524797
	  115 D(8,1,14,23)    =   -115.533595    -0.000001    -0.615087  -116.148682
	  116 D(8,12,10,9)    =     -0.087854     0.000007     0.556244     0.468390
	  117 D(8,12,10,17)   =    179.819787     0.000006     0.529398   180.349185
	  118 D(8,13,11,9)    =      0.199965     0.000007     0.776079     0.976043
	  119 D(8,13,11,18)   =   -179.720190    -0.000001    -0.022421  -179.742612
	  120 D(9,10,12,19)   =    179.595884    -0.000002    -0.324028   179.271856
	  121 D(9,11,13,20)   =   -179.682680     0.000007     0.710064  -178.972616
	  122 D(10,9,11,13)   =      0.046169    -0.000004    -0.327174    -0.281005
	  123 D(10,9,11,18)   =    179.965740     0.000004     0.476557   180.442297
	  124 D(10,12,8,13)   =      0.329138    -0.000003    -0.102753     0.226385
	  125 D(11,9,10,12)   =     -0.102455    -0.000003    -0.338896    -0.441352
	  126 D(11,9,10,17)   =    179.990429    -0.000002    -0.311690   179.678738
	  127 D(11,13,8,12)   =     -0.384384    -0.000004    -0.562607    -0.946990
	  128 D(12,8,1,14)    =    113.062492     0.000004     3.893375   116.955867
	  129 D(12,8,13,20)   =    179.497443    -0.000003    -0.495334   179.002110
	  130 D(12,10,9,28)   =    179.935760    -0.000001    -0.045910   179.889850
	  131 D(13,8,1,14)    =    -66.411235     0.000013     4.453873   -61.957362
	  132 D(13,8,12,19)   =   -179.353216     0.000006     0.763944  -178.589273
	  133 D(13,11,9,28)   =   -179.992055    -0.000006    -0.619757  -180.611812
	  134 D(15,4,16,26)   =     64.095783    -0.000045    -1.224642    62.871141
	  135 D(15,4,16,27)   =   -174.800479    -0.000033    -0.721906  -175.522385
	  136 D(15,4,16,30)   =    -57.710040    -0.000012     0.059041   -57.650999
	  137 D(16,4,15,24)   =    175.709677    -0.000026    -0.438731   175.270946
	  138 D(16,4,15,25)   =    -63.011870    -0.000014     0.029090   -62.982779
	  139 D(16,4,15,29)   =     58.184412    -0.000031    -0.632825    57.551588
	  140 D(17,10,9,28)   =      0.028644     0.000000    -0.018704     0.009940
	  141 D(17,10,12,19)  =     -0.496475    -0.000003    -0.350875    -0.847350
	  142 D(18,11,9,28)   =     -0.072483     0.000002     0.183974     0.111491
	  143 D(18,11,13,20)  =      0.397165    -0.000001    -0.088436     0.308729
	  144 R(5,12)         =      2.963634    -0.018173    -0.008332     2.955302
	  145 R(5,16)         =      3.104254    -0.044235    -0.053842     3.050412
	 ---------------------------------------------------------------------------
	Successfully symmetrized geometry.

  ==> Convergence Check <==

  Measures of convergence in internal coordinates in au.
  Criteria marked as inactive (o), active & met (*), and active & unmet ( ).
  --------------------------------------------------------------------------------------------- ~
   Step     Total Energy     Delta E     MAX Force     RMS Force      MAX Disp      RMS Disp    ~
  --------------------------------------------------------------------------------------------- ~
    Convergence Criteria             o    2.50e-03 *    1.70e-03 *    1.00e-02 *    6.70e-03 *  ~
  --------------------------------------------------------------------------------------------- ~
      1    -613.27299336   -6.13e+02 o    2.63e-02      5.56e-03      1.02e-01      2.77e-02    ~
  ---------------------------------------------------------------------------------------------

	Writing optimization data to binary file.
	Structure for next step:
	Cartesian Geometry (in Angstrom)
	    N    -0.2331144596   0.3025931253  -0.6776994343
	    C     0.8571682224  -0.2933457273  -0.0668723582
	    C     2.1569019265  -0.0519022759  -0.8151096264
	    N     3.3325083349  -0.6505983997  -0.1834491397
	    O     0.7719184232  -0.8970291916   1.0062420984
	    H     2.0721847115  -0.4559279748  -1.8265647929
	    H     2.2760051952   1.0437182428  -0.9307563673
	    C    -1.5231074452   0.2657949292  -0.0514576831
	    C    -4.0634802103   0.2583897435   1.1027176669
	    C    -3.3711651503  -0.9362295804   0.9190673403
	    C    -3.4780665629   1.4583864218   0.7104839252
	    C    -2.1069755940  -0.9371157462   0.3397792203
	    C    -2.2070558683   1.4632694155   0.1441814502
	    C    -0.1517411597   0.8122181977  -2.0527488014
	    C     4.4653669601  -0.6417959802  -1.1120061912
	    C     3.6873592896  -0.0032828340   1.0864711504
	    H    -3.8152649162  -1.8736208399   1.2253000973
	    H    -4.0027597912   2.3935058878   0.8544305040
	    H    -1.5642057583  -1.8605433704   0.2073835269
	    H    -1.7419031216   2.3958824814  -0.1467669363
	    H    -1.1470832819   1.1253361994  -2.3531897447
	    H     0.5188754332   1.6700569266  -2.1274907157
	    H     0.1816409206   0.0344266470  -2.7428130543
	    H     4.2120844173  -1.1987194534  -2.0156766701
	    H     4.7773478984   0.3779592511  -1.3976278819
	    H     3.9393008573   1.0629669226   0.9488857086
	    H     2.8563555917  -0.0947596058   1.7821030850
	    H    -5.0471672569   0.2550114326   1.5519413690
	    H     5.3082634990  -1.1436029129  -0.6385925865
	    H     4.5462500811  -0.5153761821   1.5194700580
			--------------------------
			 OPTKING Finished Execution 
			--------------------------

    Structure for next step:
    Molecular point group: c1
    Full point group: C1

    Geometry (in Angstrom), charge = 0, multiplicity = 1:

    N           -0.235221452777     0.298673458106    -0.679534083520
    C            0.855061233559    -0.297265396773    -0.068707005050
    C            2.154794942771    -0.055821944505    -0.816944276125
    N            3.330401355746    -0.654518070659    -0.185283787021
    O            0.769811434011    -0.900948863528     1.004407455764
    H            2.070077727422    -0.459847644992    -1.828399446647
    H            2.273898211926     1.039798578594    -0.932591017485
    C           -1.525214443376     0.261875261917    -0.053292329885
    C           -4.065587218528     0.254470076182     1.100883024716
    C           -3.373272155729    -0.940149252390     0.917232697356
    C           -3.480173568822     1.454466759160     0.708649281410
    C           -2.109082594513    -0.941035418237     0.337944575089
    C           -2.209162869225     1.459349752880     0.142346804221
    C           -0.153848152560     0.808298532496    -2.054583456056
    C            4.463259985448    -0.645715651047    -1.113840842117
    C            3.685252311919    -0.007202502362     1.084636508068
    H           -3.817371923378    -1.877540515609     1.223465455555
    H           -4.004866799148     2.389586228886     0.852595860793
    H           -1.566312756641    -1.864463046047     0.205548881144
    H           -1.744010120633     2.391962822412    -0.148601583410
    H           -1.149190278636     1.121416535473    -2.355024400463
    H            0.516768443014     1.666137264763    -2.129325370598
    H            0.179533929079     0.030506978796    -2.744647711614
    H            4.209977441660    -1.202639126437    -2.017511324591
    H            4.775240924941     0.374039584226    -1.399462533971
    H            3.937193880559     1.059047258399     0.947051065799
    H            2.854248610740    -0.098679274552     1.780268445462
    H           -5.049274268939     0.251091765256     1.550106728587
    H            5.306156527610    -1.147522585793    -0.640427235587
    H            4.544143106778    -0.519295852449     1.517635417412


Scratch directory: /scratch/bdw2292/Psi4-25_27_Index_0-farH_in17/

Scratch directory: /scratch/bdw2292/Psi4-25_27_Index_0-farH_in17/
gradient() will perform analytic gradient computation.

*** tstart() called on node74.bme.utexas.edu
*** at Wed Jun  8 12:28:53 2022

   => Loading Basis Set <=

    Name: 6-311G
    Role: ORBITAL
    Keyword: BASIS
    atoms 1, 4       entry N          line   109 file /home/bdw2292/miniconda3/envs/newamoebamdpoltype/share/psi4/basis/6-311g.gbs 
    atoms 2-3, 8-16  entry C          line    92 file /home/bdw2292/miniconda3/envs/newamoebamdpoltype/share/psi4/basis/6-311g.gbs 
    atoms 5          entry O          line   126 file /home/bdw2292/miniconda3/envs/newamoebamdpoltype/share/psi4/basis/6-311g.gbs 
    atoms 6-7, 17-30 entry H          line    21 file /home/bdw2292/miniconda3/envs/newamoebamdpoltype/share/psi4/basis/6-311g.gbs 

   => WB97X-D: Empirical Dispersion <=

    Chai and Head-Gordon Dispersion Correction
    Chai, J.-D.; Head-Gordon, M. (2010), J. Chem. Phys., 132: 6615-6620

        s6 =       1.000000


         ---------------------------------------------------------
                                   SCF
               by Justin Turney, Rob Parrish, Andy Simmonett
                          and Daniel G. A. Smith
                              RKS Reference
                        2 Threads,   7788 MiB Core
         ---------------------------------------------------------

  ==> Geometry <==

    Molecular point group: c1
    Full point group: C1

    Geometry (in Angstrom), charge = 0, multiplicity = 1:

       Center              X                  Y                   Z               Mass       
    ------------   -----------------  -----------------  -----------------  -----------------
         N           -0.235221452777     0.298673458106    -0.679534083520    14.003074004430
         C            0.855061233559    -0.297265396773    -0.068707005050    12.000000000000
         C            2.154794942771    -0.055821944505    -0.816944276125    12.000000000000
         N            3.330401355746    -0.654518070659    -0.185283787021    14.003074004430
         O            0.769811434011    -0.900948863528     1.004407455764    15.994914619570
         H            2.070077727422    -0.459847644992    -1.828399446647     1.007825032230
         H            2.273898211926     1.039798578594    -0.932591017485     1.007825032230
         C           -1.525214443376     0.261875261917    -0.053292329885    12.000000000000
         C           -4.065587218528     0.254470076182     1.100883024716    12.000000000000
         C           -3.373272155729    -0.940149252390     0.917232697356    12.000000000000
         C           -3.480173568822     1.454466759160     0.708649281410    12.000000000000
         C           -2.109082594513    -0.941035418237     0.337944575089    12.000000000000
         C           -2.209162869225     1.459349752880     0.142346804221    12.000000000000
         C           -0.153848152560     0.808298532496    -2.054583456056    12.000000000000
         C            4.463259985448    -0.645715651047    -1.113840842117    12.000000000000
         C            3.685252311919    -0.007202502362     1.084636508068    12.000000000000
         H           -3.817371923378    -1.877540515609     1.223465455555     1.007825032230
         H           -4.004866799148     2.389586228886     0.852595860793     1.007825032230
         H           -1.566312756641    -1.864463046047     0.205548881144     1.007825032230
         H           -1.744010120633     2.391962822412    -0.148601583410     1.007825032230
         H           -1.149190278636     1.121416535473    -2.355024400463     1.007825032230
         H            0.516768443014     1.666137264763    -2.129325370598     1.007825032230
         H            0.179533929079     0.030506978796    -2.744647711614     1.007825032230
         H            4.209977441660    -1.202639126437    -2.017511324591     1.007825032230
         H            4.775240924941     0.374039584226    -1.399462533971     1.007825032230
         H            3.937193880559     1.059047258399     0.947051065799     1.007825032230
         H            2.854248610740    -0.098679274552     1.780268445462     1.007825032230
         H           -5.049274268939     0.251091765256     1.550106728587     1.007825032230
         H            5.306156527610    -1.147522585793    -0.640427235587     1.007825032230
         H            4.544143106778    -0.519295852449     1.517635417412     1.007825032230

  Running in c1 symmetry.

  Rotational constants: A =      0.06057  B =      0.01074  C =      0.01009 [cm^-1]
  Rotational constants: A =   1815.96095  B =    322.10301  C =    302.63217 [MHz]
  Nuclear repulsion =  882.300066456025206

  Charge       = 0
  Multiplicity = 1
  Electrons    = 104
  Nalpha       = 52
  Nbeta        = 52

  ==> Algorithm <==

  SCF Algorithm Type is DF.
  DIIS enabled.
  MOM disabled.
  Fractional occupation disabled.
  Guess Type is READ.
  Energy threshold   = 1.00e-08
  Density threshold  = 1.00e-08
  Integral threshold = 1.00e-12

  ==> Primary Basis <==

  Basis Set: 6-311G
    Blend: 6-311G
    Number of shells: 146
    Number of basis functions: 230
    Number of Cartesian functions: 230
    Spherical Harmonics?: true
    Max angular momentum: 1

  ==> DFT Potential <==

   => LibXC <=

    Version 5.1.5
    S. Lehtola, C. Steigemann, M. J. Oliveira, and M. A. Marques, SoftwareX 7, 1 (2018) (10.1016/j.softx.2017.11.002)

   => Composite Functional: WB97X-D <= 

    wB97X-D Hyb-GGA Exchange-Correlation Functional

    J.-D. Chai and M. Head-Gordon, Phys. Chem. Chem. Phys. 10, 6615 (2008) (10.1039/B810189B)

    Deriv               =              1
    GGA                 =           TRUE
    Meta                =          FALSE

    Exchange Hybrid     =           TRUE
    MP2 Hybrid          =          FALSE

   => Exchange-Correlation Functionals <=

    1.0000   wB97X-D range-separated functional

   => Exact (HF) Exchange <=

    0.7780            HF,LR [omega = 0.2000]
    0.2220               HF 

   => LibXC Density Thresholds  <==

    XC_HYB_GGA_XC_WB97X_D:  1.00E-14 

   => Molecular Quadrature <=

    Radial Scheme          =       TREUTLER
    Pruning Scheme         =           NONE
    Nuclear Scheme         =       TREUTLER

    BS radius alpha        =              1
    Pruning alpha          =              1
    Radial Points          =             75
    Spherical Points       =            302
    Total Points           =         624018
    Total Blocks           =           4478
    Max Points             =            256
    Max Functions          =            181
    Weights Tolerance      =       1.00E-15

   => Loading Basis Set <=

    Name: (6-311G AUX)
    Role: JKFIT
    Keyword: DF_BASIS_SCF
    atoms 1, 4       entry N          line   177 file /home/bdw2292/miniconda3/envs/newamoebamdpoltype/share/psi4/basis/cc-pvtz-jkfit.gbs 
    atoms 2-3, 8-16  entry C          line   125 file /home/bdw2292/miniconda3/envs/newamoebamdpoltype/share/psi4/basis/cc-pvtz-jkfit.gbs 
    atoms 5          entry O          line   229 file /home/bdw2292/miniconda3/envs/newamoebamdpoltype/share/psi4/basis/cc-pvtz-jkfit.gbs 
    atoms 6-7, 17-30 entry H          line    51 file /home/bdw2292/miniconda3/envs/newamoebamdpoltype/share/psi4/basis/cc-pvtz-jkfit.gbs 

   => Loading Basis Set <=

    Name: 6-311G
    Role: ORBITAL
    Keyword: BASIS
    atoms 1, 4       entry N          line   109 file /home/bdw2292/miniconda3/envs/newamoebamdpoltype/share/psi4/basis/6-311g.gbs 
    atoms 2-3, 8-16  entry C          line    92 file /home/bdw2292/miniconda3/envs/newamoebamdpoltype/share/psi4/basis/6-311g.gbs 
    atoms 5          entry O          line   126 file /home/bdw2292/miniconda3/envs/newamoebamdpoltype/share/psi4/basis/6-311g.gbs 
    atoms 6-7, 17-30 entry H          line    21 file /home/bdw2292/miniconda3/envs/newamoebamdpoltype/share/psi4/basis/6-311g.gbs 

  Reading orbitals from file /scratch/bdw2292/Psi4-25_27_Index_0-farH_in17/25_27_Index_0-opt-1_2-3-179.default.1106430.180.npy, no projection.

  ==> Integral Setup <==

  DFHelper Memory: AOs need 1.530 GiB; user supplied 3.532 GiB. Using in-core AOs.

  ==> MemDFJK: Density-Fitted J/K Matrices <==

    J tasked:                   Yes
    K tasked:                   Yes
    wK tasked:                  Yes
    Omega:                2.000E-01
    OpenMP threads:               2
    Memory [MiB]:              3617
    Algorithm:                 Core
    Schwarz Cutoff:           1E-12
    Mask sparsity (%):      20.0416
    Fitting Condition:        1E-10

   => Auxiliary Basis Set <=

  Basis Set: (6-311G AUX)
    Blend: CC-PVTZ-JKFIT
    Number of shells: 510
    Number of basis functions: 1586
    Number of Cartesian functions: 1904
    Spherical Harmonics?: true
    Max angular momentum: 4

  Cached 100.0% of DFT collocation blocks in 2.172 [GiB].

  Minimum eigenvalue in the overlap matrix is 2.4480110892E-04.
  Reciprocal condition number of the overlap matrix is 3.3803438973E-05.
    Using symmetric orthogonalization.

  ==> Pre-Iterations <==

  SCF Guess: Orbitals guess was supplied from a previous computation.

   -------------------------------------------------------
    Irrep   Nso     Nmo     Nalpha   Nbeta   Ndocc  Nsocc
   -------------------------------------------------------
     A        230     230      52      52      52       0
   -------------------------------------------------------
    Total     230     230      52      52      52       0
   -------------------------------------------------------

  ==> Iterations <==

                           Total Energy        Delta E     RMS |[F,P]|

   @DF-RKS iter   0:  -613.38310048190385   -6.13383e+02   1.18294e-03 
   @DF-RKS iter   1:  -613.27937140592564    1.03729e-01   1.42396e-04 DIIS
   @DF-RKS iter   2:  -613.28011139031173   -7.39984e-04   1.04502e-04 DIIS
   @DF-RKS iter   3:  -613.28035403226079   -2.42642e-04   4.66581e-05 DIIS
   @DF-RKS iter   4:  -613.28040530438011   -5.12721e-05   2.15265e-05 DIIS
   @DF-RKS iter   5:  -613.28041612197899   -1.08176e-05   4.60201e-06 DIIS
   @DF-RKS iter   6:  -613.28041674264307   -6.20664e-07   1.87897e-06 DIIS
   @DF-RKS iter   7:  -613.28041686567769   -1.23035e-07   3.95543e-07 DIIS
   @DF-RKS iter   8:  -613.28041687418499   -8.50730e-09   1.89018e-07 DIIS
   @DF-RKS iter   9:  -613.28041687513087   -9.45874e-10   4.05447e-08 DIIS
   @DF-RKS iter  10:  -613.28041687521431   -8.34461e-11   1.43415e-08 DIIS
   @DF-RKS iter  11:  -613.28041687522659   -1.22782e-11   5.40234e-09 DIIS
  Energy and wave function converged.


  ==> Post-Iterations <==

   Electrons on quadrature grid:
      Ntotal   =  104.0000696305 ; deviation = 6.963e-05 

    Orbital Energies [Eh]
    ---------------------

    Doubly Occupied:                                                      

       1A    -19.213298     2A    -14.475179     3A    -14.428731  
       4A    -10.400433     5A    -10.336872     6A    -10.331903  
       7A    -10.326513     8A    -10.301130     9A    -10.296396  
      10A    -10.295668    11A    -10.293672    12A    -10.292964  
      13A    -10.291932    14A    -10.287799    15A     -1.154884  
      16A     -1.055269    17A     -1.028544    18A     -0.966002  
      19A     -0.871200    20A     -0.858545    21A     -0.837440  
      22A     -0.812575    23A     -0.804079    24A     -0.737054  
      25A     -0.713486    26A     -0.691520    27A     -0.651019  
      28A     -0.610164    29A     -0.600384    30A     -0.587604  
      31A     -0.576471    32A     -0.558794    33A     -0.554009  
      34A     -0.538929    35A     -0.535804    36A     -0.522377  
      37A     -0.516514    38A     -0.503899    39A     -0.493724  
      40A     -0.479199    41A     -0.473813    42A     -0.466707  
      43A     -0.455931    44A     -0.447641    45A     -0.445296  
      46A     -0.439861    47A     -0.432704    48A     -0.355784  
      49A     -0.340863    50A     -0.329228    51A     -0.308773  
      52A     -0.288499  

    Virtual:                                                              

      53A      0.055645    54A      0.062765    55A      0.091564  
      56A      0.102682    57A      0.126566    58A      0.137791  
      59A      0.146949    60A      0.159206    61A      0.166487  
      62A      0.173158    63A      0.178989    64A      0.184501  
      65A      0.192680    66A      0.198604    67A      0.204339  
      68A      0.207874    69A      0.215354    70A      0.230998  
      71A      0.234031    72A      0.239686    73A      0.259963  
      74A      0.266748    75A      0.296397    76A      0.301654  
      77A      0.314098    78A      0.332573    79A      0.348130  
      80A      0.352505    81A      0.363160    82A      0.373590  
      83A      0.381563    84A      0.388620    85A      0.401044  
      86A      0.409451    87A      0.430271    88A      0.442524  
      89A      0.451537    90A      0.463848    91A      0.469729  
      92A      0.483862    93A      0.490018    94A      0.496132  
      95A      0.505200    96A      0.508122    97A      0.518981  
      98A      0.520977    99A      0.543140   100A      0.549026  
     101A      0.553979   102A      0.564378   103A      0.568660  
     104A      0.582369   105A      0.591763   106A      0.601352  
     107A      0.616440   108A      0.627110   109A      0.632137  
     110A      0.642883   111A      0.650611   112A      0.654386  
     113A      0.663178   114A      0.667072   115A      0.675866  
     116A      0.681651   117A      0.686451   118A      0.692622  
     119A      0.695749   120A      0.701239   121A      0.703394  
     122A      0.703973   123A      0.717824   124A      0.728869  
     125A      0.746871   126A      0.748003   127A      0.752404  
     128A      0.760878   129A      0.769150   130A      0.777724  
     131A      0.820584   132A      0.845028   133A      0.857718  
     134A      0.862766   135A      0.883845   136A      0.899075  
     137A      0.909166   138A      0.917533   139A      0.933096  
     140A      0.963942   141A      0.971769   142A      0.991741  
     143A      1.000171   144A      1.009582   145A      1.033493  
     146A      1.074933   147A      1.103561   148A      1.108950  
     149A      1.141651   150A      1.147124   151A      1.203178  
     152A      1.249812   153A      1.269629   154A      1.303221  
     155A      1.377497   156A      1.487345   157A      1.516736  
     158A      1.792019   159A      2.264851   160A      2.307235  
     161A      2.317149   162A      2.319693   163A      2.335171  
     164A      2.356218   165A      2.359278   166A      2.371690  
     167A      2.373067   168A      2.404353   169A      2.414341  
     170A      2.430244   171A      2.452744   172A      2.462735  
     173A      2.478584   174A      2.635420   175A      2.639922  
     176A      2.673730   177A      2.688810   178A      2.704606  
     179A      2.762915   180A      2.778971   181A      2.843089  
     182A      2.851809   183A      2.895608   184A      2.912315  
     185A      2.931547   186A      2.939132   187A      2.963309  
     188A      2.984601   189A      2.998701   190A      3.009446  
     191A      3.025331   192A      3.054442   193A      3.074273  
     194A      3.090036   195A      3.112151   196A      3.136980  
     197A      3.155841   198A      3.173815   199A      3.188238  
     200A      3.204779   201A      3.239278   202A      3.273009  
     203A      3.317398   204A      3.335148   205A      3.377438  
     206A      3.394921   207A      3.522205   208A      3.931687  
     209A      3.946904   210A      4.097388   211A      4.119455  
     212A      4.159566   213A      4.281350   214A      5.010792  
     215A      5.091318   216A      5.139353   217A     23.242035  
     218A     23.447749   219A     23.483065   220A     23.493519  
     221A     23.550877   222A     23.564765   223A     23.599562  
     224A     23.693405   225A     23.736417   226A     23.765145  
     227A     24.019548   228A     35.566723   229A     35.574946  
     230A     50.071325  

    Final Occupation by Irrep:
              A 
    DOCC [    52 ]

  @DF-RKS Final Energy:  -613.28041687522659

   => Energetics <=

    Nuclear Repulsion Energy =            882.3000664560252062
    One-Electron Energy =               -2580.8705000409195236
    Two-Electron Energy =                1145.8273597318325301
    DFT Exchange-Correlation Energy =     -60.5177088798335916
    Empirical Dispersion Energy =          -0.0196341423312060
    VV10 Nonlocal Energy =                  0.0000000000000000
    Total Energy =                       -613.2804168752265923

Computation Completed


Properties will be evaluated at   0.000000,   0.000000,   0.000000 [a0]

Properties computed using the SCF density matrix

  Nuclear Dipole Moment: [e a0]
     X:    12.4970      Y:     2.9531      Z:    -5.7293

  Electronic Dipole Moment: [e a0]
     X:   -12.6781      Y:    -2.0111      Z:     4.3500

  Dipole Moment: [e a0]
     X:    -0.1810      Y:     0.9421      Z:    -1.3794     Total:     1.6802

  Dipole Moment: [D]
     X:    -0.4602      Y:     2.3945      Z:    -3.5060     Total:     4.2705


*** tstop() called on node74.bme.utexas.edu at Wed Jun  8 12:29:58 2022
Module time:
	user time   =     121.90 seconds =       2.03 minutes
	system time =       6.16 seconds =       0.10 minutes
	total time  =         65 seconds =       1.08 minutes
Total time:
	user time   =     323.59 seconds =       5.39 minutes
	system time =      15.78 seconds =       0.26 minutes
	total time  =        174 seconds =       2.90 minutes

*** tstart() called on node74.bme.utexas.edu
*** at Wed Jun  8 12:29:58 2022


         ------------------------------------------------------------
                                   SCF GRAD                          
                          Rob Parrish, Justin Turney,                
                       Andy Simmonett, and Alex Sokolov              
         ------------------------------------------------------------

  ==> Geometry <==

    Molecular point group: c1
    Full point group: C1

    Geometry (in Angstrom), charge = 0, multiplicity = 1:

       Center              X                  Y                   Z               Mass       
    ------------   -----------------  -----------------  -----------------  -----------------
         N           -0.235221452777     0.298673458106    -0.679534083520    14.003074004430
         C            0.855061233559    -0.297265396773    -0.068707005050    12.000000000000
         C            2.154794942771    -0.055821944505    -0.816944276125    12.000000000000
         N            3.330401355746    -0.654518070659    -0.185283787021    14.003074004430
         O            0.769811434011    -0.900948863528     1.004407455764    15.994914619570
         H            2.070077727422    -0.459847644992    -1.828399446647     1.007825032230
         H            2.273898211926     1.039798578594    -0.932591017485     1.007825032230
         C           -1.525214443376     0.261875261917    -0.053292329885    12.000000000000
         C           -4.065587218528     0.254470076182     1.100883024716    12.000000000000
         C           -3.373272155729    -0.940149252390     0.917232697356    12.000000000000
         C           -3.480173568822     1.454466759160     0.708649281410    12.000000000000
         C           -2.109082594513    -0.941035418237     0.337944575089    12.000000000000
         C           -2.209162869225     1.459349752880     0.142346804221    12.000000000000
         C           -0.153848152560     0.808298532496    -2.054583456056    12.000000000000
         C            4.463259985448    -0.645715651047    -1.113840842117    12.000000000000
         C            3.685252311919    -0.007202502362     1.084636508068    12.000000000000
         H           -3.817371923378    -1.877540515609     1.223465455555     1.007825032230
         H           -4.004866799148     2.389586228886     0.852595860793     1.007825032230
         H           -1.566312756641    -1.864463046047     0.205548881144     1.007825032230
[...]
	 D(8,13,11,18)    =        -3.141144	    -179.974314
	 D(9,10,12,19)    =         3.129283	     179.294723
	 D(9,11,13,20)    =        -3.117390	    -178.613319
	 D(10,9,11,13)    =        -0.002277	      -0.130475
	 D(10,9,11,18)    =        -3.132027	    -179.451932
	 D(10,12,8,13)    =        -0.000252	      -0.014456
	 D(11,9,10,12)    =        -0.008987	      -0.514912
	 D(11,9,10,17)    =         3.136506	     179.708564
	 D(11,13,8,12)    =        -0.010946	      -0.627137
	 D(12,8,1,14)     =         2.300541	     131.811314
	 D(12,8,13,20)    =         3.118699	     178.688311
	 D(12,10,9,28)    =         3.136906	     179.731460
	 D(13,8,1,14)     =        -0.815160	     -46.705236
	 D(13,8,12,19)    =        -3.119554	    -178.737263
	 D(13,11,9,28)    =         3.135017	     179.623218
	 D(15,4,16,26)    =         1.141832	      65.422174
	 D(15,4,16,27)    =        -3.016092	    -172.809364
	 D(15,4,16,30)    =        -0.949179	     -54.383975
	 D(16,4,15,24)    =         3.030533	     173.636737
	 D(16,4,15,25)    =        -1.136637	     -65.124481
	 D(16,4,15,29)    =         0.963271	      55.191388
	 D(17,10,9,28)    =        -0.000787	      -0.045064
	 D(17,10,12,19)   =        -0.016184	      -0.927293
	 D(18,11,9,28)    =         0.005267	       0.301761
	 D(18,11,13,20)   =         0.012422	       0.711752
	 R(5,12)          =         5.490327	       2.905356
	 R(5,16)          =         5.629782	       2.979152

	Current energy   :      -613.2822306633

	Energy change for the previous step:
		Projected    :        -0.0000010627
		Actual       :        -0.0000032096

	Performing BFGS update.
	Previous computed or guess Hessian on step 1.
	Steps to be used in Hessian update: 1
	Taking RFO optimization step.
	Going to follow RFO solution 1.
	Using RFO vector 1.
	Norm of target step-size    0.01376
	Projected energy change by RFO approximation:        -0.0000044138

	Back-transformation to cartesian coordinates...
	Successfully converged to displaced geometry.

	Back-transformation to cartesian coordinates to adjust frozen coordinates...
	Successfully converged to displaced geometry.

	--- Internal Coordinate Step in ANG or DEG, aJ/ANG or AJ/DEG ---
	 ---------------------------------------------------------------------------
	   Coordinate                Previous        Force       Change         New 
	   ----------                --------       ------       ------       ------
	    1 R(1,2)          =      1.382957     0.002902     0.000321     1.383278
	    2 R(1,8)          =      1.434749    -0.000684    -0.000090     1.434659
	    3 R(1,14)         =      1.465924    -0.000948    -0.000150     1.465774
	    4 R(2,3)          =      1.523140     0.000009    -0.000064     1.523077
	    5 R(2,5)          =      1.239694    -0.001137    -0.000139     1.239555
	    6 R(3,4)          =      1.449683     0.001734     0.000280     1.449963
	    7 R(3,6)          =      1.093338     0.000174    -0.000044     1.093294
	    8 R(3,7)          =      1.109243    -0.000659    -0.000121     1.109122
	    9 R(4,15)         =      1.459825    -0.000443     0.000089     1.459914
	   10 R(4,16)         =      1.462629     0.000320     0.000088     1.462717
	   11 R(8,12)         =      1.395274     0.000172     0.000049     1.395324
	   12 R(8,13)         =      1.396093    -0.000350    -0.000069     1.396025
	   13 R(9,10)         =      1.394108     0.000551     0.000096     1.394205
	   14 R(9,11)         =      1.392541    -0.000537    -0.000083     1.392458
	   15 R(9,28)         =      1.081290    -0.000032    -0.000032     1.081258
	   16 R(10,12)        =      1.391219    -0.000671    -0.000099     1.391120
	   17 R(10,17)        =      1.081337    -0.000042    -0.000022     1.081315
	   18 R(11,13)        =      1.392900     0.000319     0.000079     1.392980
	   19 R(11,18)        =      1.081561     0.000029    -0.000006     1.081555
	   20 R(12,19)        =      1.078215     0.000156    -0.000004     1.078211
	   21 R(13,20)        =      1.081907    -0.000013    -0.000016     1.081891
	   22 R(14,21)        =      1.086575     0.000407     0.000025     1.086600
	   23 R(14,22)        =      1.093300     0.000378     0.000040     1.093340
	   24 R(14,23)        =      1.088820    -0.000687    -0.000144     1.088677
	   25 R(15,24)        =      1.090916    -0.000197    -0.000053     1.090863
	   26 R(15,25)        =      1.105757    -0.000169    -0.000050     1.105707
	   27 R(15,29)        =      1.089453     0.000104    -0.000011     1.089443
	   28 R(16,26)        =      1.106074    -0.000164    -0.000059     1.106015
	   29 R(16,27)        =      1.085101    -0.000059     0.000007     1.085108
	   30 R(16,30)        =      1.089581     0.000032    -0.000027     1.089554
	   31 B(1,2,3)        =    115.323112     0.000015     0.029102   115.352214
	   32 B(1,2,5)        =    121.890851    -0.000005    -0.012348   121.878503
	   33 B(1,8,12)       =    120.727528    -0.000003    -0.005847   120.721681
	   34 B(1,8,13)       =    119.460371     0.000003     0.008962   119.469333
	   35 B(1,14,21)      =    108.438492    -0.000003    -0.002112   108.436379
	   36 B(1,14,22)      =    112.406284     0.000000     0.013785   112.420068
	   37 B(1,14,23)      =    110.994201     0.000004     0.011597   111.005798
	   38 B(2,1,8)        =    120.054379    -0.000001    -0.011051   120.043327
	   39 B(2,1,14)       =    122.173126     0.000023     0.044213   122.217339
	   40 B(2,3,4)        =    114.075617    -0.000003    -0.021108   114.054509
	   41 B(2,3,6)        =    107.987434    -0.000003    -0.004263   107.983171
	   42 B(2,3,7)        =    108.616979     0.000004     0.014992   108.631971
	   43 B(3,2,5)        =    122.783733    -0.000011    -0.015310   122.768424
	   44 B(3,4,15)       =    111.705470     0.000001     0.001334   111.706805
	   45 B(3,4,16)       =    113.892940     0.000007     0.001016   113.893956
	   46 B(4,3,6)        =    107.785310     0.000004     0.001426   107.786736
	   47 B(4,3,7)        =    111.736034    -0.000004    -0.018437   111.717597
	   48 B(4,15,24)      =    110.137469    -0.000004    -0.011202   110.126267
	   49 B(4,15,25)      =    112.881019    -0.000001    -0.009629   112.871390
	   50 B(4,15,29)      =    109.297274    -0.000003    -0.007974   109.289299
	   51 B(4,16,26)      =    111.993300    -0.000000     0.000728   111.994028
	   52 B(4,16,27)      =    109.624213    -0.000002    -0.019028   109.605185
	   53 B(4,16,30)      =    109.089333     0.000001     0.007474   109.096807
	   54 B(6,3,7)        =    106.283794     0.000002     0.031407   106.315201
	   55 B(8,1,14)       =    117.465689    -0.000021    -0.050968   117.414721
	   56 B(8,12,10)      =    119.794336     0.000001     0.007089   119.801424
	   57 B(8,12,19)      =    119.515796    -0.000000    -0.003617   119.512179
	   58 B(8,13,11)      =    120.142183    -0.000000     0.001514   120.143697
	   59 B(8,13,20)      =    119.817275     0.000003     0.012935   119.830210
	   60 B(9,10,12)      =    120.535167    -0.000000    -0.001717   120.533450
	   61 B(9,10,17)      =    120.060965     0.000000     0.002154   120.063120
	   62 B(9,11,13)      =    120.123807    -0.000000     0.002749   120.126556
	   63 B(9,11,18)      =    120.201949     0.000001     0.006498   120.208448
	   64 B(10,9,11)      =    119.603304    -0.000000    -0.003411   119.599893
	   65 B(10,9,28)      =    120.211183    -0.000000    -0.002920   120.208263
	   66 B(10,12,19)     =    120.677368    -0.000000    -0.003471   120.673898
	   67 B(11,9,28)      =    120.185053     0.000001     0.006431   120.191484
	   68 B(11,13,20)     =    120.036998    -0.000002    -0.014278   120.022720
	   69 B(12,8,13)      =    119.795537    -0.000000    -0.005945   119.789592
	   70 B(12,10,17)     =    119.403494    -0.000000    -0.000474   119.403020
	   71 B(13,11,18)     =    119.670787    -0.000001    -0.009177   119.661609
	   72 B(15,4,16)      =    112.250826    -0.000008    -0.015137   112.235689
	   73 B(21,14,22)     =    108.652180     0.000000    -0.017490   108.634690
	   74 B(21,14,23)     =    107.645044    -0.000000    -0.006798   107.638246
	   75 B(22,14,23)     =    108.568622    -0.000000    -0.000516   108.568107
	   76 B(24,15,25)     =    108.344558     0.000003     0.012532   108.357090
	   77 B(24,15,29)     =    107.957124     0.000003     0.009845   107.966969
	   78 B(25,15,29)     =    108.085030     0.000003     0.007772   108.092802
	   79 B(26,16,27)     =    109.514399     0.000002     0.007187   109.521587
	   80 B(26,16,30)     =    108.244525     0.000001     0.013019   108.257544
	   81 B(27,16,30)     =    108.292753    -0.000001    -0.009339   108.283414
	   82 *D(1,2,3,4)     =    179.055132    -0.000000     0.000000   179.055132
	   83 D(1,2,3,6)      =    -61.155293     0.000000    -0.014474   -61.169767
	   84 D(1,2,3,7)      =     53.708010     0.000001     0.027877    53.735887
	   85 D(1,8,12,10)    =   -178.526061     0.000000     0.044526  -178.481536
	   86 D(1,8,12,19)    =      2.751132     0.000000     0.044542     2.795674
	   87 D(1,8,13,11)    =    177.903429    -0.000001    -0.049844   177.853585
	   88 D(1,8,13,20)    =     -2.781124    -0.000000    -0.033230    -2.814354
	   89 *D(2,1,8,12)    =    -54.411339    -0.000000     0.000000   -54.411339
	   90 D(2,1,8,13)     =    127.072112     0.000001     0.121813   127.193924
	   91 D(2,1,14,21)    =    165.172490     0.000000    -0.016662   165.155828
	   92 D(2,1,14,22)    =    -74.687106    -0.000000    -0.031313   -74.718419
	   93 D(2,1,14,23)    =     47.126269     0.000000    -0.013832    47.112437
	   94 *D(2,3,4,15)    =    166.794456    -0.000000     0.000000   166.794456
	   95 D(2,3,4,16)     =    -64.736218    -0.000001    -0.019012   -64.755230
	   96 *D(3,2,1,8)     =   -175.084148     0.000000     0.000000  -175.084148
	   97 D(3,2,1,14)     =     -1.608342    -0.000000    -0.189407    -1.797749
	   98 D(3,4,15,24)    =    -57.027117     0.000000    -0.049794   -57.076911
	   99 D(3,4,15,25)    =     64.211665     0.000000    -0.048323    64.163342
	  100 D(3,4,15,29)    =   -175.472466     0.000000    -0.050292  -175.522758
	  101 D(3,4,16,26)    =    -62.768762     0.000000     0.093829   -62.674932
	  102 D(3,4,16,27)    =     58.999700     0.000000     0.090200    59.089900
	  103 D(3,4,16,30)    =    177.425089    -0.000000     0.072145   177.497234
	  104 D(4,3,2,5)      =     -0.401851    -0.000001    -0.211340    -0.613191
	  105 D(5,2,1,8)      =      4.378167     0.000001     0.209253     4.587420
	  106 D(5,2,1,14)     =    177.853974     0.000000     0.019845   177.873819
	  107 D(5,2,3,6)      =    119.387724    -0.000001    -0.225814   119.161909
	  108 D(5,2,3,7)      =   -125.748974     0.000000    -0.183463  -125.932437
	  109 D(6,3,4,15)     =     46.891195     0.000001     0.017612    46.908806
	  110 D(6,3,4,16)     =    175.360521    -0.000000    -0.001400   175.359121
	  111 D(7,3,4,15)     =    -69.525509     0.000000    -0.011051   -69.536559
	  112 D(7,3,4,16)     =     58.943818    -0.000001    -0.030062    58.913755
	  113 D(8,1,14,21)    =    -21.191206     0.000000    -0.199066   -21.390271
	  114 D(8,1,14,22)    =     98.949199    -0.000000    -0.213717    98.735482
	  115 D(8,1,14,23)    =   -139.237426     0.000000    -0.196236  -139.433662
	  116 D(8,12,10,9)    =      0.587016     0.000000     0.029793     0.616809
	  117 D(8,12,10,17)   =   -179.635000     0.000000     0.019162  -179.615838
	  118 D(8,13,11,9)    =      0.700616    -0.000000    -0.016070     0.684546
	  119 D(8,13,11,18)   =   -179.974314     0.000000    -0.009184  -179.983498
	  120 D(9,10,12,19)   =    179.294723     0.000000     0.029777   179.324500
	  121 D(9,11,13,20)   =   -178.613319    -0.000000    -0.032903  -178.646222
	  122 D(10,9,11,13)   =     -0.130475    -0.000000    -0.031724    -0.162199
	  123 D(10,9,11,18)   =   -179.451932    -0.000000    -0.038541  -179.490473
	  124 D(10,12,8,13)   =     -0.014456    -0.000001    -0.077455    -0.091911
	  125 D(11,9,10,12)   =     -0.514912     0.000000     0.024936    -0.489976
	  126 D(11,9,10,17)   =    179.708564     0.000000     0.035644   179.744207
	  127 D(11,13,8,12)   =     -0.627137     0.000000     0.070819    -0.556318
	  128 D(12,8,1,14)    =    131.811314    -0.000000     0.174488   131.985802
	  129 D(12,8,13,20)   =    178.688311     0.000001     0.087433   178.775743
	  130 D(12,10,9,28)   =    179.731460    -0.000000    -0.003554   179.727906
	  131 D(13,8,1,14)    =    -46.705236     0.000001     0.296301   -46.408936
	  132 D(13,8,12,19)   =   -178.737263    -0.000001    -0.077439  -178.814702
	  133 D(13,11,9,28)   =    179.623218     0.000000    -0.003262   179.619956
	  134 D(15,4,16,26)   =     65.422174     0.000000     0.083175    65.505350
	  135 D(15,4,16,27)   =   -172.809364     0.000000     0.079547  -172.729818
	  136 D(15,4,16,30)   =    -54.383975    -0.000000     0.061491   -54.322484
	  137 D(16,4,15,24)   =    173.636737    -0.000001    -0.039468   173.597269
	  138 D(16,4,15,25)   =    -65.124481    -0.000000    -0.037998   -65.162479
	  139 D(16,4,15,29)   =     55.191388    -0.000000    -0.039966    55.151422
	  140 D(17,10,9,28)   =     -0.045064     0.000000     0.007153    -0.037911
	  141 D(17,10,12,19)  =     -0.927293     0.000000     0.019146    -0.908147
	  142 D(18,11,9,28)   =      0.301761    -0.000000    -0.010079     0.291682
	  143 D(18,11,13,20)  =      0.711752    -0.000000    -0.026017     0.685734
	  144 R(5,12)         =      2.905356    -0.000510    -0.001536     2.903820
	  145 R(5,16)         =      2.979152     0.000099     0.001163     2.980316
	 ---------------------------------------------------------------------------
	Successfully symmetrized geometry.

  ==> Convergence Check <==

  Measures of convergence in internal coordinates in au.
  Criteria marked as inactive (o), active & met (*), and active & unmet ( ).
  ---------------------------------------------------------------------------------------------
   Step     Total Energy     Delta E     MAX Force     RMS Force      MAX Disp      RMS Disp   
  ---------------------------------------------------------------------------------------------
    Convergence Criteria             o    2.50e-03 *    1.70e-03 *    1.00e-02 *    6.70e-03 *
  ---------------------------------------------------------------------------------------------
      2    -613.28223066   -3.21e-06 o    3.52e-04 *    6.31e-05 *    5.17e-03 *    1.14e-03 *  ~
  ---------------------------------------------------------------------------------------------


  **** Optimization is complete! (in 2 steps) ****

  ==> Optimization Summary <==

  Measures of convergence in internal coordinates in au.
  --------------------------------------------------------------------------------------------------------------- ~
   Step         Total Energy             Delta E       MAX Force       RMS Force        MAX Disp        RMS Disp  ~
  --------------------------------------------------------------------------------------------------------------- ~
      1    -613.282227453707   -613.282227453707      0.00048686      0.00009204      0.01267984      0.00281415  ~
      2    -613.282230663336     -0.000003209628      0.00035221      0.00006309      0.00517142      0.00114253  ~
  --------------------------------------------------------------------------------------------------------------- ~

	Writing optimization data to binary file.
	Final energy is   -613.2822306633358
	Final (previous) structure:
	Cartesian Geometry (in Angstrom)
	    N    -0.2312351640   0.2321194147  -0.7566681443
	    C     0.8524878092  -0.2978853253  -0.0804956798
	    C     2.1905490085  -0.1774014480  -0.7981528554
	    N     3.3106656992  -0.7219624183  -0.0562815745
	    O     0.7346219954  -0.8231326161   1.0362248706
	    H     2.1177853740  -0.7241122200  -1.7421866538
	    H     2.3538777729   0.8864039225  -1.0665979555
	    C    -1.5213002409   0.2688822292  -0.1298620123
	    C    -4.0656951047   0.3613861088   1.0179917793
	    C    -3.3614977760  -0.8405340632   0.9629335676
	    C    -3.4911229851   1.5196187790   0.5007538782
	    C    -2.0963293885  -0.8927366904   0.3866393790
	    C    -2.2192193810   1.4762898598  -0.0654223456
	    C    -0.0919207058   0.8955135936  -2.0564499664
	    C     4.4961591167  -0.8648556251  -0.8960882150
	    C     3.5971000367  -0.0120078804   1.1899937540
	    H    -3.7986654187  -1.7434358443   1.3665938677
	    H    -4.0251439191   2.4590420080   0.5463528038
	    H    -1.5449611566  -1.8186990458   0.3529575042
	    H    -1.7649789720   2.3812290073  -0.4465707499
	    H    -1.0782967174   0.9875085166  -2.5028170857
	    H     0.3472936303   1.8929949188  -1.9702737172
	    H     0.5224811157   0.3033777480  -2.7327747382
	    H     4.2715940277  -1.4933861859  -1.7590006500
	    H     4.8827981340   0.1041286334  -1.2625285188
	    H     3.8893342051   1.0394642925   1.0099779331
	    H     2.7245612561  -0.0404670105   1.8344393002
	    H    -5.0504940431   0.3950973353   1.4632133811
	    H     5.2863778269  -1.3497257631  -0.3239309757
	    H     4.4181597792  -0.5110734257   1.7037850231
	Saving final (previous) structure.
	Cleaning optimization helper files.
			--------------------------
			 OPTKING Finished Execution 
			--------------------------

    Final optimized geometry and variables:
    Molecular point group: c1
    Full point group: C1

    Geometry (in Angstrom), charge = 0, multiplicity = 1:

    N           -0.231235164917     0.232119415578    -0.756668147306
    C            0.852487812525    -0.297885326452    -0.080495680141
    C            2.190549017066    -0.177401448710    -0.798152858521
    N            3.310665712174    -0.721962421143    -0.056281574734
    O            0.734621998284    -0.823132619333     1.036224874670
    H            2.117785382324    -0.724112222823    -1.742186660645
    H            2.353877782185     0.886403925989    -1.066597959718
    C           -1.521300246840     0.268882230215    -0.129862012849
    C           -4.065695120694     0.361386110210     1.017991783349
    C           -3.361497789240    -0.840534066496     0.962933571426
    C           -3.491122998823     1.519618784946     0.500753880179
    C           -2.096329396780    -0.892736693899     0.386639380525
    C           -2.219219389729     1.476289865572    -0.065422345900
    C           -0.091920706140     0.895513597103    -2.056449974447
    C            4.496159134336    -0.864855628462    -0.896088218514
    C            3.597100050814    -0.012007880468     1.189993758725
    H           -3.798665433633    -1.743435851196     1.366593873048
    H           -4.025143934935     2.459042017638     0.546352805921
    H           -1.544961162715    -1.818699052926     0.352957505620
    H           -1.764978978948     2.381229016642    -0.446570751682
    H           -1.078296721601     0.987508520480    -2.502817095496
    H            0.347293631668     1.892994926257    -1.970273724979
    H            0.522481117744     0.303377749156    -2.732774748952
    H            4.271594044451    -1.493386191724    -1.759000656952
    H            4.882798153202     0.104128633817    -1.262528523713
    H            3.889334220407     1.039464296582     1.009977937083
    H            2.724561266773    -0.040467010688     1.834439307368
    H           -5.050494062915     0.395097336859     1.463213386864
    H            5.286377847707    -1.349725768455    -0.323930976972
    H            4.418159796546    -0.511073427729     1.703785029817

	Removing binary optimization data file.
	Cleaning optimization helper files.

    Psi4 stopped on: Wednesday, 08 June 2022 12:43PM
    Psi4 wall time for execution: 0:16:24.19

*** Psi4 exiting successfully. Buy a developer a beer!
