
    -----------------------------------------------------------------------
          Psi4: An Open-Source Ab Initio Electronic Structure Package
                               Psi4 1.5 release

                         Git: Rev {HEAD} e9f4d6d 


    D. G. A. Smith, L. A. Burns, A. C. Simmonett, R. M. Parrish,
    M. C. Schieber, R. Galvelis, P. Kraus, H. Kruse, R. Di Remigio,
    A. Alenaizan, A. M. James, S. Lehtola, J. P. Misiewicz, M. Scheurer,
    R. A. Shaw, J. B. Schriber, Y. Xie, Z. L. Glick, D. A. Sirianni,
    J. S. O'Brien, J. M. Waldrop, A. Kumar, E. G. Hohenstein,
    B. P. Pritchard, B. R. Brooks, H. F. Schaefer III, A. Yu. Sokolov,
    K. Patkowski, A. E. DePrince III, U. Bozkaya, R. A. King,
    F. A. Evangelista, J. M. Turney, T. D. Crawford, C. D. Sherrill,
    J. Chem. Phys. 152(18) 184108 (2020). https://doi.org/10.1063/5.0006002

                            Additional Code Authors
    E. T. Seidl, C. L. Janssen, E. F. Valeev, M. L. Leininger,
    J. F. Gonthier, R. M. Richard, H. R. McAlexander, M. Saitow, X. Wang,
    P. Verma, M. H. Lechner, and A. Jiang

             Previous Authors, Complete List of Code Contributors,
                       and Citations for Specific Modules
    https://github.com/psi4/psi4/blob/master/codemeta.json
    https://github.com/psi4/psi4/graphs/contributors
    http://psicode.org/psi4manual/master/introduction.html#citing-psifour

    -----------------------------------------------------------------------


    Psi4 started on: Wednesday, 08 June 2022 01:49PM

    Process ID: 1121655
    Host:       node74.bme.utexas.edu
    PSIDATADIR: /home/bdw2292/miniconda3/envs/newamoebamdpoltype/share/psi4
    Memory:     500.0 MiB
    Threads:    1
    
  ==> Input File <==

--------------------------------------------------------------------------
molecule { 
0 1
 N   -0.059224    0.292709   -0.309948
 C    0.927874    0.846023    0.550230
 C    2.404303    0.988168    0.071696
 N    2.989199    0.013830   -0.874239
 O    0.620842    1.253635    1.670825
 H    2.552790    1.996818   -0.350802
 H    3.048629    0.986949    0.969051
 C   -1.445175    0.264219    0.137115
 C   -4.134370    0.258159    1.024522
 C   -3.135449   -0.342750    1.800665
 C   -3.793294    0.873711   -0.186258
 C   -1.800847   -0.340321    1.372909
 C   -2.463585    0.891379   -0.631056
 C    0.209713   -0.224198   -1.673670
 C    4.264505    0.499203   -1.439082
 C    3.195633   -1.299201   -0.221500
 H   -3.393735   -0.818204    2.748557
 H   -4.566407    1.348088   -0.793644
 H   -1.034131   -0.803143    1.996740
 H   -2.220268    1.396141   -1.568332
 H   -0.708908   -0.358040   -2.244197
 H    0.845776    0.464398   -2.228535
 H    0.700464   -1.194487   -1.617732
 H    4.089641    1.440839   -1.985224
 H    5.014135    0.669318   -0.647542
 H    3.933690   -1.228902    0.595599
 H    2.242971   -1.669465    0.191461
 H   -5.172137    0.250495    1.363641
 H    4.653376   -0.235585   -2.163030
 H    3.544064   -2.031318   -0.968346
}
set optking { 
  frozen_dihedral = ("
    1 2 3 4
    2 1 8 12
    8 1 2 3
    2 3 4 15
  ")
}
set {
  geom_maxiter 400
  g_convergence GAU_LOOSE
  dynamic_level 1
}
memory 8.166666666666666GB
set_num_threads(2)
psi4_io.set_default_path("/scratch/bdw2292/Psi4-25_27_Index_0-farH_in17")
for _ in range(1):
  try:
    set opt_coordinates both
    optimize('wb97x-d/6-311G')
    break
  except OptimizationConvergenceError:
    break
  else:
    try:
      set opt_coordinates cartesian
      optimize('wb97x-d/6-311G')
      break
    except OptimizationConvergenceError:
      pass
clean()
--------------------------------------------------------------------------

  Memory set to   7.606 GiB by Python driver.
  Threads set to 2 by Python driver.

Scratch directory: /scratch/bdw2292/Psi4-25_27_Index_0-farH_in17/

Scratch directory: /scratch/bdw2292/Psi4-25_27_Index_0-farH_in17/
gradient() will perform analytic gradient computation.

*** tstart() called on node74.bme.utexas.edu
*** at Wed Jun  8 13:49:27 2022

   => Loading Basis Set <=

    Name: 6-311G
    Role: ORBITAL
    Keyword: BASIS
    atoms 1, 4       entry N          line   109 file /home/bdw2292/miniconda3/envs/newamoebamdpoltype/share/psi4/basis/6-311g.gbs 
    atoms 2-3, 8-16  entry C          line    92 file /home/bdw2292/miniconda3/envs/newamoebamdpoltype/share/psi4/basis/6-311g.gbs 
    atoms 5          entry O          line   126 file /home/bdw2292/miniconda3/envs/newamoebamdpoltype/share/psi4/basis/6-311g.gbs 
    atoms 6-7, 17-30 entry H          line    21 file /home/bdw2292/miniconda3/envs/newamoebamdpoltype/share/psi4/basis/6-311g.gbs 

   => WB97X-D: Empirical Dispersion <=

    Chai and Head-Gordon Dispersion Correction
    Chai, J.-D.; Head-Gordon, M. (2010), J. Chem. Phys., 132: 6615-6620

        s6 =       1.000000


         ---------------------------------------------------------
                                   SCF
               by Justin Turney, Rob Parrish, Andy Simmonett
                          and Daniel G. A. Smith
                              RKS Reference
                        2 Threads,   7788 MiB Core
         ---------------------------------------------------------

  ==> Geometry <==

    Molecular point group: c1
    Full point group: C1

    Geometry (in Angstrom), charge = 0, multiplicity = 1:

       Center              X                  Y                   Z               Mass       
    ------------   -----------------  -----------------  -----------------  -----------------
         N           -0.035002896177     0.014076854632    -0.377895587290    14.003074004430
         C            0.952095103823     0.567390854632     0.482282412710    12.000000000000
         C            2.428524103823     0.709535854632     0.003748412710    12.000000000000
         N            3.013420103823    -0.264802145368    -0.942186587290    14.003074004430
         O            0.645063103823     0.975002854632     1.602877412710    15.994914619570
         H            2.577011103823     1.718185854632    -0.418749587290     1.007825032230
         H            3.072850103823     0.708316854632     0.901103412710     1.007825032230
         C           -1.420953896177    -0.014413145368     0.069167412710    12.000000000000
         C           -4.110148896177    -0.020473145368     0.956574412710    12.000000000000
         C           -3.111227896177    -0.621382145368     1.732717412710    12.000000000000
         C           -3.769072896177     0.595078854632    -0.254205587290    12.000000000000
         C           -1.776625896177    -0.618953145368     1.304961412710    12.000000000000
         C           -2.439363896177     0.612746854632    -0.699003587290    12.000000000000
         C            0.233934103823    -0.502830145368    -1.741617587290    12.000000000000
         C            4.288726103823     0.220570854632    -1.507029587290    12.000000000000
         C            3.219854103823    -1.577833145368    -0.289447587290    12.000000000000
         H           -3.369513896177    -1.096836145368     2.680609412710     1.007825032230
         H           -4.542185896177     1.069455854632    -0.861591587290     1.007825032230
         H           -1.009909896177    -1.081775145368     1.928792412710     1.007825032230
         H           -2.196046896177     1.117508854632    -1.636279587290     1.007825032230
         H           -0.684686896177    -0.636672145368    -2.312144587290     1.007825032230
         H            0.869997103823     0.185765854632    -2.296482587290     1.007825032230
         H            0.724685103823    -1.473119145368    -1.685679587290     1.007825032230
         H            4.113862103823     1.162206854632    -2.053171587290     1.007825032230
         H            5.038356103823     0.390685854632    -0.715489587290     1.007825032230
         H            3.957911103823    -1.507534145368     0.527651412710     1.007825032230
         H            2.267192103823    -1.948097145368     0.123513412710     1.007825032230
         H           -5.147915896177    -0.028137145368     1.295693412710     1.007825032230
         H            4.677597103823    -0.514217145368    -2.230977587290     1.007825032230
         H            3.568285103823    -2.309950145368    -1.036293587290     1.007825032230

  Running in c1 symmetry.

  Rotational constants: A =      0.05923  B =      0.01108  C =      0.01050 [cm^-1]
  Rotational constants: A =   1775.74335  B =    332.07767  C =    314.71313 [MHz]
  Nuclear repulsion =  880.462541363228866

  Charge       = 0
  Multiplicity = 1
  Electrons    = 104
  Nalpha       = 52
  Nbeta        = 52

  ==> Algorithm <==

  SCF Algorithm Type is DF.
  DIIS enabled.
  MOM disabled.
  Fractional occupation disabled.
  Guess Type is SAD.
  Energy threshold   = 1.00e-08
  Density threshold  = 1.00e-08
  Integral threshold = 1.00e-12

  ==> Primary Basis <==

  Basis Set: 6-311G
    Blend: 6-311G
    Number of shells: 146
    Number of basis functions: 230
    Number of Cartesian functions: 230
    Spherical Harmonics?: true
    Max angular momentum: 1

  ==> DFT Potential <==

   => LibXC <=

    Version 5.1.5
    S. Lehtola, C. Steigemann, M. J. Oliveira, and M. A. Marques, SoftwareX 7, 1 (2018) (10.1016/j.softx.2017.11.002)

   => Composite Functional: WB97X-D <= 

    wB97X-D Hyb-GGA Exchange-Correlation Functional

    J.-D. Chai and M. Head-Gordon, Phys. Chem. Chem. Phys. 10, 6615 (2008) (10.1039/B810189B)

    Deriv               =              1
    GGA                 =           TRUE
    Meta                =          FALSE

    Exchange Hybrid     =           TRUE
    MP2 Hybrid          =          FALSE

   => Exchange-Correlation Functionals <=

    1.0000   wB97X-D range-separated functional

   => Exact (HF) Exchange <=

    0.7780            HF,LR [omega = 0.2000]
    0.2220               HF 

   => LibXC Density Thresholds  <==

    XC_HYB_GGA_XC_WB97X_D:  1.00E-14 

   => Molecular Quadrature <=

    Radial Scheme          =       TREUTLER
    Pruning Scheme         =           NONE
    Nuclear Scheme         =       TREUTLER

    BS radius alpha        =              1
    Pruning alpha          =              1
    Radial Points          =             75
    Spherical Points       =            302
    Total Points           =         623309
    Total Blocks           =           4482
    Max Points             =            256
    Max Functions          =            182
    Weights Tolerance      =       1.00E-15

   => Loading Basis Set <=

    Name: (6-311G AUX)
    Role: JKFIT
    Keyword: DF_BASIS_SCF
    atoms 1, 4       entry N          line   177 file /home/bdw2292/miniconda3/envs/newamoebamdpoltype/share/psi4/basis/cc-pvtz-jkfit.gbs 
    atoms 2-3, 8-16  entry C          line   125 file /home/bdw2292/miniconda3/envs/newamoebamdpoltype/share/psi4/basis/cc-pvtz-jkfit.gbs 
    atoms 5          entry O          line   229 file /home/bdw2292/miniconda3/envs/newamoebamdpoltype/share/psi4/basis/cc-pvtz-jkfit.gbs 
    atoms 6-7, 17-30 entry H          line    51 file /home/bdw2292/miniconda3/envs/newamoebamdpoltype/share/psi4/basis/cc-pvtz-jkfit.gbs 

  ==> Integral Setup <==

  DFHelper Memory: AOs need 1.542 GiB; user supplied 3.499 GiB. Using in-core AOs.

  ==> MemDFJK: Density-Fitted J/K Matrices <==

    J tasked:                   Yes
    K tasked:                   Yes
    wK tasked:                  Yes
    Omega:                2.000E-01
    OpenMP threads:               2
    Memory [MiB]:              3582
    Algorithm:                 Core
    Schwarz Cutoff:           1E-12
    Mask sparsity (%):      19.3686
    Fitting Condition:        1E-10

   => Auxiliary Basis Set <=

  Basis Set: (6-311G AUX)
    Blend: CC-PVTZ-JKFIT
    Number of shells: 510
    Number of basis functions: 1586
    Number of Cartesian functions: 1904
    Spherical Harmonics?: true
    Max angular momentum: 4

  Cached 100.0% of DFT collocation blocks in 2.205 [GiB].

  Minimum eigenvalue in the overlap matrix is 2.7120638692E-04.
  Reciprocal condition number of the overlap matrix is 3.7815703264E-05.
    Using symmetric orthogonalization.

  ==> Pre-Iterations <==

  SCF Guess: Superposition of Atomic Densities via on-the-fly atomic UHF (no occupation information).

   -------------------------
    Irrep   Nso     Nmo    
   -------------------------
     A        230     230 
   -------------------------
    Total     230     230
   -------------------------

  ==> Iterations <==

                           Total Energy        Delta E     RMS |[F,P]|

   @DF-RKS iter SAD:  -612.16371235712199   -6.12164e+02   0.00000e+00 
   @DF-RKS iter   1:  -612.77183753438248   -6.08125e-01   4.39664e-03 DIIS
   @DF-RKS iter   2:  -612.88185977420221   -1.10022e-01   4.30647e-03 DIIS
   @DF-RKS iter   3:  -613.24606467656122   -3.64205e-01   1.14562e-03 DIIS
   @DF-RKS iter   4:  -613.27191658312825   -2.58519e-02   2.44169e-04 DIIS
   @DF-RKS iter   5:  -613.27311628754717   -1.19970e-03   1.03359e-04 DIIS
   @DF-RKS iter   6:  -613.27335994803639   -2.43660e-04   1.96622e-05 DIIS
   @DF-RKS iter   7:  -613.27337014601142   -1.01980e-05   6.15156e-06 DIIS
   @DF-RKS iter   8:  -613.27337157226657   -1.42626e-06   1.81875e-06 DIIS
   @DF-RKS iter   9:  -613.27337173446278   -1.62196e-07   9.66262e-07 DIIS
   @DF-RKS iter  10:  -613.27337177576578   -4.13030e-08   2.34481e-07 DIIS
   @DF-RKS iter  11:  -613.27337177978120   -4.01542e-09   9.77970e-08 DIIS
   @DF-RKS iter  12:  -613.27337178018809   -4.06885e-10   2.64409e-08 DIIS
   @DF-RKS iter  13:  -613.27337178025084   -6.27551e-11   9.08285e-09 DIIS
  Energy and wave function converged.


  ==> Post-Iterations <==

   Electrons on quadrature grid:
      Ntotal   =  104.0000149033 ; deviation = 1.490e-05 

    Orbital Energies [Eh]
    ---------------------

    Doubly Occupied:                                                      

       1A    -19.215606     2A    -14.473512     3A    -14.442497  
       4A    -10.408653     5A    -10.340533     6A    -10.332444  
       7A    -10.315713     8A    -10.312808     9A    -10.312730  
      10A    -10.298188    11A    -10.295156    12A    -10.293812  
      13A    -10.292884    14A    -10.291947    15A     -1.155800  
      16A     -1.039485    17A     -1.030531    18A     -0.951840  
      19A     -0.853477    20A     -0.849840    21A     -0.831616  
      22A     -0.815693    23A     -0.797163    24A     -0.725960  
      25A     -0.707181    26A     -0.698781    27A     -0.650234  
      28A     -0.600695    29A     -0.591531    30A     -0.578121  
      31A     -0.571139    32A     -0.560514    33A     -0.551828  
      34A     -0.530674    35A     -0.524014    36A     -0.518526  
      37A     -0.508484    38A     -0.499523    39A     -0.491049  
      40A     -0.482009    41A     -0.480739    42A     -0.469914  
      43A     -0.459266    44A     -0.454266    45A     -0.442342  
      46A     -0.437273    47A     -0.430144    48A     -0.351384  
      49A     -0.341299    50A     -0.325817    51A     -0.300882  
      52A     -0.298211  

    Virtual:                                                              

      53A      0.053008    54A      0.064970    55A      0.085683  
      56A      0.106918    57A      0.126299    58A      0.143941  
      59A      0.147825    60A      0.154341    61A      0.159002  
      62A      0.171769    63A      0.174824    64A      0.182194  
      65A      0.191417    66A      0.195401    67A      0.203611  
      68A      0.208934    69A      0.219874    70A      0.221416  
      71A      0.229019    72A      0.229726    73A      0.234450  
      74A      0.252779    75A      0.276036    76A      0.293279  
      77A      0.302888    78A      0.315666    79A      0.339130  
      80A      0.348797    81A      0.355025    82A      0.366212  
      83A      0.372783    84A      0.382261    85A      0.392928  
      86A      0.419851    87A      0.430622    88A      0.446537  
      89A      0.456202    90A      0.461484    91A      0.466478  
      92A      0.474250    93A      0.484283    94A      0.488610  
      95A      0.493952    96A      0.508399    97A      0.510881  
      98A      0.520893    99A      0.542935   100A      0.547653  
     101A      0.550087   102A      0.556962   103A      0.563252  
     104A      0.576359   105A      0.584925   106A      0.600103  
     107A      0.615293   108A      0.626834   109A      0.632838  
     110A      0.641873   111A      0.646802   112A      0.653346  
     113A      0.658309   114A      0.662477   115A      0.675758  
     116A      0.678683   117A      0.685059   118A      0.687873  
     119A      0.691136   120A      0.695638   121A      0.701862  
     122A      0.706916   123A      0.714265   124A      0.722073  
     125A      0.732364   126A      0.744397   127A      0.753105  
     128A      0.758787   129A      0.760993   130A      0.795352  
     131A      0.823325   132A      0.842628   133A      0.853791  
     134A      0.857408   135A      0.873680   136A      0.877560  
     137A      0.908979   138A      0.916919   139A      0.928224  
     140A      0.949823   141A      0.962734   142A      0.977884  
     143A      0.987309   144A      1.025585   145A      1.031061  
     146A      1.065327   147A      1.087571   148A      1.097987  
     149A      1.119317   150A      1.156044   151A      1.210303  
     152A      1.235659   153A      1.280853   154A      1.302346  
     155A      1.372513   156A      1.468481   157A      1.541471  
     158A      1.774770   159A      2.300235   160A      2.303120  
     161A      2.308403   162A      2.335577   163A      2.344589  
     164A      2.351751   165A      2.357743   166A      2.364040  
     167A      2.380491   168A      2.404944   169A      2.410179  
     170A      2.417504   171A      2.427207   172A      2.443843  
     173A      2.466989   174A      2.631762   175A      2.639255  
     176A      2.675648   177A      2.697323   178A      2.713467  
     179A      2.785168   180A      2.795144   181A      2.829816  
     182A      2.852284   183A      2.875417   184A      2.900177  
     185A      2.917740   186A      2.926959   187A      2.955389  
     188A      2.964207   189A      2.983816   190A      3.020496  
     191A      3.024428   192A      3.052594   193A      3.064563  
     194A      3.076383   195A      3.093427   196A      3.126587  
     197A      3.136077   198A      3.153308   199A      3.181514  
     200A      3.199094   201A      3.244314   202A      3.282709  
     203A      3.322595   204A      3.339144   205A      3.351533  
     206A      3.372757   207A      3.509051   208A      3.936749  
     209A      3.995819   210A      4.061720   211A      4.115915  
     212A      4.167425   213A      4.266908   214A      5.000834  
     215A      5.068546   216A      5.115190   217A     23.246544  
     218A     23.453414   219A     23.480420   220A     23.493836  
     221A     23.523479   222A     23.569624   223A     23.575799  
     224A     23.663088   225A     23.723406   226A     23.753351  
     227A     23.992853   228A     35.540630   229A     35.567186  
     230A     50.059060  

    Final Occupation by Irrep:
              A 
    DOCC [    52 ]

  @DF-RKS Final Energy:  -613.27337178025084

   => Energetics <=

    Nuclear Repulsion Energy =            880.4625413632288655
    One-Electron Energy =               -2577.4293616106770060
    Two-Electron Energy =                1144.1051433593572710
    DFT Exchange-Correlation Energy =     -60.3910729448525245
    Empirical Dispersion Energy =          -0.0206219473074279
    VV10 Nonlocal Energy =                  0.0000000000000000
    Total Energy =                       -613.2733717802508409

Computation Completed


Properties will be evaluated at   0.000000,   0.000000,   0.000000 [a0]

Properties computed using the SCF density matrix

  Nuclear Dipole Moment: [e a0]
     X:    13.0417      Y:    -3.9734      Z:    -7.2909

  Electronic Dipole Moment: [e a0]
     X:   -12.4727      Y:     3.4245      Z:     6.0931

  Dipole Moment: [e a0]
     X:     0.5689      Y:    -0.5489      Z:    -1.1977     Total:     1.4351

  Dipole Moment: [D]
     X:     1.4461      Y:    -1.3953      Z:    -3.0444     Total:     3.6478


*** tstop() called on node74.bme.utexas.edu at Wed Jun  8 13:50:37 2022
Module time:
	user time   =     132.19 seconds =       2.20 minutes
	system time =       5.77 seconds =       0.10 minutes
	total time  =         70 seconds =       1.17 minutes
Total time:
	user time   =     132.19 seconds =       2.20 minutes
	system time =       5.77 seconds =       0.10 minutes
	total time  =         70 seconds =       1.17 minutes

*** tstart() called on node74.bme.utexas.edu
*** at Wed Jun  8 13:50:37 2022


         ------------------------------------------------------------
                                   SCF GRAD                          
                          Rob Parrish, Justin Turney,                
                       Andy Simmonett, and Alex Sokolov              
         ------------------------------------------------------------

  ==> Geometry <==

    Molecular point group: c1
    Full point group: C1

    Geometry (in Angstrom), charge = 0, multiplicity = 1:

       Center              X                  Y                   Z               Mass       
    ------------   -----------------  -----------------  -----------------  -----------------
         N           -0.035002896177     0.014076854632    -0.377895587290    14.003074004430
         C            0.952095103823     0.567390854632     0.482282412710    12.000000000000
         C            2.428524103823     0.709535854632     0.003748412710    12.000000000000
         N            3.013420103823    -0.264802145368    -0.942186587290    14.003074004430
         O            0.645063103823     0.975002854632     1.602877412710    15.994914619570
         H            2.577011103823     1.718185854632    -0.418749587290     1.007825032230
         H            3.072850103823     0.708316854632     0.901103412710     1.007825032230
         C           -1.420953896177    -0.014413145368     0.069167412710    12.000000000000
         C           -4.110148896177    -0.020473145368     0.956574412710    12.000000000000
         C           -3.111227896177    -0.621382145368     1.732717412710    12.000000000000
         C           -3.769072896177     0.595078854632    -0.254205587290    12.000000000000
         C           -1.776625896177    -0.618953145368     1.304961412710    12.000000000000
         C           -2.439363896177     0.612746854632    -0.699003587290    12.000000000000
         C            0.233934103823    -0.502830145368    -1.741617587290    12.000000000000
         C            4.288726103823     0.220570854632    -1.507029587290    12.000000000000
         C            3.219854103823    -1.577833145368    -0.289447587290    12.000000000000
         H           -3.369513896177    -1.096836145368     2.680609412710     1.007825032230
         H           -4.542185896177     1.069455854632    -0.861591587290     1.007825032230
         H           -1.009909896177    -1.081775145368     1.928792412710     1.007825032230
         H           -2.196046896177     1.117508854632    -1.636279587290     1.007825032230
         H           -0.684686896177    -0.636672145368    -2.312144587290     1.007825032230
         H            0.869997103823     0.185765854632    -2.296482587290     1.007825032230
         H            0.724685103823    -1.473119145368    -1.685679587290     1.007825032230
         H            4.113862103823     1.162206854632    -2.053171587290     1.007825032230
         H            5.038356103823     0.390685854632    -0.715489587290     1.007825032230
         H            3.957911103823    -1.507534145368     0.527651412710     1.007825032230
         H            2.267192103823    -1.948097145368     0.123513412710     1.007825032230
         H           -5.147915896177    -0.028137145368     1.295693412710     1.007825032230
         H            4.677597103823    -0.514217145368    -2.230977587290     1.007825032230
         H            3.568285103823    -2.309950145368    -1.036293587290     1.007825032230

  Nuclear repulsion =  880.462541363228866

  ==> Basis Set <==

  Basis Set: 6-311G
    Blend: 6-311G
    Number of shells: 146
    Number of basis functions: 230
    Number of Cartesian functions: 230
    Spherical Harmonics?: true
    Max angular momentum: 1

  ==> DFJKGrad: Density-Fitted SCF Gradients <==

    Gradient:                    1
    J tasked:                  Yes
    K tasked:                  Yes
    wK tasked:                 Yes
    Omega:               2.000E-01
    OpenMP threads:              2
    Integrals threads:           2
    Memory [MiB]:             5841
    Schwarz Cutoff:          1E-12
    Fitting Condition:       1E-10

   => Auxiliary Basis Set <=

  Basis Set: (6-311G AUX)
    Blend: CC-PVTZ-JKFIT
    Number of shells: 510
    Number of basis functions: 1586
    Number of Cartesian functions: 1904
    Spherical Harmonics?: true
    Max angular momentum: 4

  ==> DFT Potential <==

   => LibXC <=

    Version 5.1.5
    S. Lehtola, C. Steigemann, M. J. Oliveira, and M. A. Marques, SoftwareX 7, 1 (2018) (10.1016/j.softx.2017.11.002)

   => Composite Functional: WB97X-D <= 

    wB97X-D Hyb-GGA Exchange-Correlation Functional

    J.-D. Chai and M. Head-Gordon, Phys. Chem. Chem. Phys. 10, 6615 (2008) (10.1039/B810189B)

    Deriv               =              1
    GGA                 =           TRUE
    Meta                =          FALSE

    Exchange Hybrid     =           TRUE
    MP2 Hybrid          =          FALSE

   => Exchange-Correlation Functionals <=

    1.0000   wB97X-D range-separated functional

   => Exact (HF) Exchange <=

    0.7780            HF,LR [omega = 0.2000]
    0.2220               HF 

   => LibXC Density Thresholds  <==

    XC_HYB_GGA_XC_WB97X_D:  1.00E-14 

   => Molecular Quadrature <=

    Radial Scheme          =       TREUTLER
    Pruning Scheme         =           NONE
    Nuclear Scheme         =       TREUTLER

    BS radius alpha        =              1
    Pruning alpha          =              1
    Radial Points          =             75
    Spherical Points       =            302
    Total Points           =         623309
    Total Blocks           =           4482
    Max Points             =            256
    Max Functions          =            182
    Weights Tolerance      =       1.00E-15


  -Total Gradient:
     Atom            X                  Y                   Z
    ------   -----------------  -----------------  -----------------
       1       -0.002045819774    -0.006564710354    -0.006527616245
       2        0.005995232959     0.018371070534     0.031455006111
       3       -0.008926703836    -0.002099945177     0.002111325180
       4        0.000213671563     0.006854818567    -0.005145060929
       5       -0.003347399348    -0.005774715869    -0.009301579074
       6        0.008671522754     0.005817619052     0.000344157366
       7        0.010122630433    -0.001905856866    -0.005834451389
       8        0.007421346409    -0.004859359545    -0.010444474960
       9       -0.000996442474    -0.000168665809     0.000669466492
      10       -0.002311205643    -0.000823571658     0.002088341220
      11       -0.001638762588     0.001425917461     0.000691809008
      12       -0.002400985321    -0.002114190608     0.010955519385
      13       -0.008087153365     0.006991304988    -0.007085818469
      14       -0.005497530658    -0.004176625521    -0.001311541563
      15        0.008629126059    -0.002770520342     0.006444510578
      16        0.008490180124     0.000076715426     0.007100620561
      17       -0.001983395589    -0.003051694344     0.005700131872
      18       -0.004824973121     0.002479207587    -0.003859968200
      19        0.004401603187    -0.004570830555     0.006002040558
      20       -0.000556167269     0.003561957966    -0.006239321357
      21        0.003275382385    -0.002965212776    -0.007229753685
      22       -0.000926031891     0.003366888733    -0.001974689863
      23       -0.002140974595    -0.001083183703     0.001661750780
      24       -0.002214238987     0.005913276395    -0.004646708233
      25       -0.001617290071    -0.000397440814     0.002363192425
      26        0.000804712926     0.001635899178     0.000154180544
      27       -0.006337343710    -0.003303438715     0.002095364664
      28       -0.006670543952    -0.000195525705     0.002269316395
      29        0.002785255494    -0.004422292592    -0.007005298695
      30        0.001522788449    -0.005625075361    -0.005767990891


*** tstop() called on node74.bme.utexas.edu at Wed Jun  8 13:51:11 2022
Module time:
	user time   =      65.19 seconds =       1.09 minutes
	system time =       0.77 seconds =       0.01 minutes
	total time  =         34 seconds =       0.57 minutes
Total time:
	user time   =     197.38 seconds =       3.29 minutes
	system time =       6.54 seconds =       0.11 minutes
	total time  =        104 seconds =       1.73 minutes

			-----------------------------------------
			 OPTKING 2.0: for geometry optimizations 
			  - R.A. King,  Bethel University        
			-----------------------------------------
	At level 1: Red. Int., RFO, no backsteps, dynamic trust

	Internal coordinates to be generated automatically.
	Detected frag 1 with atoms:  1 2 3 4 5 6 7 8 9 10 11 12 13 14 15 16 17 18 19 20
	 21 22 23 24 25 26 27 28 29 30
	---Fragment 1 Bond Connectivity---
	 1 : 2 8 14
	 2 : 1 3 5
	 3 : 2 4 6 7
	 4 : 3 15 16
	 5 : 2
	 6 : 3
	 7 : 3
	 8 : 1 12 13
	 9 : 10 11 28
	 10 : 9 12 17
	 11 : 9 13 18
	 12 : 8 10 19
	 13 : 8 11 20
	 14 : 1 21 22 23
	 15 : 4 24 25 29
	 16 : 4 26 27 30
	 17 : 10
	 18 : 11
	 19 : 12
	 20 : 13
	 21 : 14
	 22 : 14
	 23 : 14
	 24 : 15
	 25 : 15
	 26 : 16
	 27 : 16
	 28 : 9
	 29 : 15
	 30 : 16

	Assuming in current code that numbering for constraints corresponds to unified fragment.
	Frozen dihedral atom list: 
	     1     2     3     4
	     2     1     8    12
	     8     1     2     3
	     2     3     4    15
	---Fragment 1 Geometry and Gradient---
	 N          -0.0661458874        0.0266014000       -0.7141191640
	 C           1.7991989916        1.0722133213        0.9113816751
	 C           4.5892454453        1.3408284414        0.0070834734
	 N           5.6945386972       -0.5004035322       -1.7804746091
	 O           1.2189925999        1.8424883668        3.0289993227
	 H           4.8698452085        3.2469006979       -0.7913220351
	 H           5.8068451208        1.3385248653        1.7028386607
	 C          -2.6852137007       -0.0272368974        0.1307074668
	 C          -7.7670557486       -0.0386886377        1.8076636586
	 C          -5.8793686377       -1.1742420740        3.2743613628
	 C          -7.1225155207        1.1245360583       -0.4803789395
	 C          -3.3573363712       -1.1696519292        2.4660196743
	 C          -4.6097296841        1.1579237395       -1.3209253407
	 C           0.4420713876       -0.9502112624       -3.2911802553
	 C           8.1045177633        0.4168185065       -2.8478731829
	 C           6.0846424202       -2.9816725164       -0.5469766677
	 H          -6.3674584397       -2.0727199192        5.0656176393
	 H          -8.5834873547        2.0209786685       -1.6281721320
	 H          -1.9084531152       -2.0442587541        3.6448894129
	 H          -4.1499271924        2.1117856780       -3.0921202847
	 H          -1.2938707155       -1.2031359865       -4.3693200324
	 H           1.6440562562        0.3510465887       -4.3397231419
	 H           1.3694563734       -2.7837917349       -3.1854727553
	 H           7.7740726941        2.1962526564       -3.8799319886
	 H           9.5211131588        0.7382892663       -1.3520793656
	 H           7.4793680151       -2.8488266595        0.9971166597
	 H           4.2843721500       -3.6813700705        0.2334065228
	 H          -9.7281511607       -0.0531714987        2.4485056926
	 H           8.8393774515       -0.9717295738       -4.2159366320
	 H           6.7430815838       -4.3651731382       -1.9583110655
	            -0.0020458198       -0.0065647104       -0.0065276162
	             0.0059952330        0.0183710705        0.0314550061
	            -0.0089267038       -0.0020999452        0.0021113252
	             0.0002136716        0.0068548186       -0.0051450609
	            -0.0033473993       -0.0057747159       -0.0093015791
	             0.0086715228        0.0058176191        0.0003441574
	             0.0101226304       -0.0019058569       -0.0058344514
	             0.0074213464       -0.0048593595       -0.0104444750
	            -0.0009964425       -0.0001686658        0.0006694665
	            -0.0023112056       -0.0008235717        0.0020883412
	            -0.0016387626        0.0014259175        0.0006918090
	            -0.0024009853       -0.0021141906        0.0109555194
	            -0.0080871534        0.0069913050       -0.0070858185
	            -0.0054975307       -0.0041766255       -0.0013115416
	             0.0086291261       -0.0027705203        0.0064445106
	             0.0084901801        0.0000767154        0.0071006206
	            -0.0019833956       -0.0030516943        0.0057001319
	            -0.0048249731        0.0024792076       -0.0038599682
	             0.0044016032       -0.0045708306        0.0060020406
	            -0.0005561673        0.0035619580       -0.0062393214
	             0.0032753824       -0.0029652128       -0.0072297537
	            -0.0009260319        0.0033668887       -0.0019746899
	            -0.0021409746       -0.0010831837        0.0016617508
	            -0.0022142390        0.0059132764       -0.0046467082
	            -0.0016172901       -0.0003974408        0.0023631924
	             0.0008047129        0.0016358992        0.0001541805
	            -0.0063373437       -0.0033034387        0.0020953647
	            -0.0066705440       -0.0001955257        0.0022693164
	             0.0027852555       -0.0044222926       -0.0070052987
	             0.0015227884       -0.0056250754       -0.0057679909

	Previous optimization step data not found.  Starting new optimization.

	---Fragment 1 Intrafragment Coordinates---
	 - Coordinate -           - BOHR/RAD -       - ANG/DEG -
	 R(1,2)           =         2.686088	       1.421417
	 R(1,8)           =         2.752480	       1.456550
	 R(1,14)          =         2.802444	       1.482989
	 R(2,3)           =         2.945211	       1.558539
	 R(2,5)           =         2.326858	       1.231320
	 R(3,4)           =         2.794132	       1.478591
	 R(3,6)           =         2.085497	       1.103598
	 R(3,7)           =         2.087616	       1.104719
	 R(4,15)          =         2.790813	       1.476834
	 R(4,16)          =         2.798284	       1.480788
	 R(8,12)          =         2.685246	       1.420971
	 R(8,13)          =         2.686188	       1.421469
	 R(9,10)          =         2.646516	       1.400476
	 R(9,11)          =         2.646443	       1.400438
	 R(9,28)          =         2.063197	       1.091797
	 R(10,12)         =         2.648412	       1.401479
	 R(10,17)         =         2.062545	       1.091452
	 R(11,13)         =         2.649854	       1.402242
	 R(11,18)         =         2.062881	       1.091630
	 R(12,19)         =         2.062507	       1.091432
	 R(13,20)         =         2.063590	       1.092005
	 R(14,21)         =         2.059090	       1.089623
	 R(14,22)         =         2.058514	       1.089319
	 R(14,23)         =         2.057483	       1.088773
	 R(15,24)         =         2.083441	       1.102509
	 R(15,25)         =         2.085062	       1.103367
	 R(15,29)         =         2.083190	       1.102377
	 R(16,26)         =         2.084978	       1.103323
	 R(16,27)         =         2.083158	       1.102360
	 R(16,30)         =         2.083142	       1.102351
	 B(1,2,3)         =         2.103143	     120.501208
	 B(1,2,5)         =         2.101846	     120.426878
	 B(1,8,12)        =         2.109969	     120.892297
	 B(1,8,13)        =         2.102757	     120.479111
	 B(1,14,21)       =         1.951331	     111.803040
	 B(1,14,22)       =         1.932597	     110.729652
	 B(1,14,23)       =         1.923164	     110.189208
	 B(2,1,8)         =         2.074484	     118.859205
	 B(2,1,14)        =         2.172725	     124.487955
	 B(2,3,4)         =         2.107221	     120.734885
	 B(2,3,6)         =         1.905367	     109.169465
	 B(2,3,7)         =         1.878650	     107.638723
	 B(3,2,5)         =         2.077678	     119.042167
	 B(3,4,15)        =         1.949492	     111.697663
	 B(3,4,16)        =         1.936332	     110.943679
	 B(4,3,6)         =         1.879816	     107.705495
	 B(4,3,7)         =         1.863165	     106.751484
	 B(4,15,24)       =         1.910492	     109.463115
	 B(4,15,25)       =         1.942266	     111.283636
	 B(4,15,29)       =         1.914235	     109.677560
	 B(4,16,26)       =         1.942507	     111.297459
	 B(4,16,27)       =         1.920359	     110.028449
	 B(4,16,30)       =         1.911679	     109.531117
	 B(6,3,7)         =         1.806481	     103.503760
	 B(8,1,14)        =         2.035310	     116.614697
	 B(8,12,10)       =         2.099643	     120.300676
	 B(8,12,19)       =         2.096314	     120.109927
	 B(8,13,11)       =         2.097181	     120.159619
	 B(8,13,20)       =         2.103818	     120.539903
	 B(9,10,12)       =         2.105215	     120.619936
	 B(9,10,17)       =         2.093731	     119.961959
	 B(9,11,13)       =         2.106837	     120.712890
	 B(9,11,18)       =         2.093900	     119.971648
	 B(10,9,11)       =         2.087510	     119.605489
	 B(10,9,28)       =         2.097660	     120.187068
	 B(10,12,19)      =         2.087223	     119.589079
	 B(11,9,28)       =         2.098006	     120.206905
	 B(11,13,20)      =         2.082169	     119.299488
	 B(12,8,13)       =         2.069583	     118.578383
	 B(12,10,17)      =         2.084239	     119.418097
	 B(13,11,18)      =         2.082446	     119.315367
	 B(15,4,16)       =         1.917324	     109.854574
	 B(21,14,22)      =         1.878859	     107.650713
	 B(21,14,23)      =         1.872801	     107.303616
	 B(22,14,23)      =         1.903208	     109.045784
	 B(24,15,25)      =         1.908628	     109.356317
	 B(24,15,29)      =         1.875411	     107.453142
	 B(25,15,29)      =         1.911576	     109.525221
	 B(26,16,27)      =         1.898709	     108.788039
	 B(26,16,30)      =         1.909880	     109.428050
	 B(27,16,30)      =         1.879565	     107.691162
	*D(1,2,3,4)       =        -0.557761	     -31.957346
	 D(1,2,3,6)       =         1.633351	      93.584114
	 D(1,2,3,7)       =        -2.700084	    -154.703392
	 D(1,8,12,10)     =         3.124570	     179.024691
	 D(1,8,12,19)     =        -0.013429	      -0.769424
	 D(1,8,13,11)     =        -3.128209	    -179.233180
	 D(1,8,13,20)     =         0.007021	       0.402275
	*D(2,1,8,12)      =        -0.954084	     -54.664975
	 D(2,1,8,13)      =         2.141891	     122.721330
	 D(2,1,14,21)     =        -2.882947	    -165.180670
	 D(2,1,14,22)     =        -0.787885	     -45.142509
	 D(2,1,14,23)     =         1.319164	      75.582508
	*D(2,3,4,15)      =         2.905619	     166.479713
	 D(2,3,4,16)      =        -1.231951	     -70.585614
	*D(3,2,1,8)       =        -3.065830	    -175.659114
	 D(3,2,1,14)      =         0.035155	       2.014260
	 D(3,4,15,24)     =        -1.055348	     -60.467011
	 D(3,4,15,25)     =         1.056371	      60.525575
	 D(3,4,15,29)     =        -3.108886	    -178.126067
	 D(3,4,16,26)     =        -1.117600	     -64.033784
	 D(3,4,16,27)     =         0.988419	      56.632248
	 D(3,4,16,30)     =         3.051347	     174.829296
	 D(4,3,2,5)       =         2.618307	     150.017948
	 D(5,2,1,8)       =         0.040808	       2.338122
	 D(5,2,1,14)      =        -3.141392	    -179.988504
	 D(5,2,3,6)       =        -1.473766	     -84.440591
	 D(5,2,3,7)       =         0.475984	      27.271902
	 D(6,3,4,15)      =         0.702730	      40.263469
	 D(6,3,4,16)      =         2.848345	     163.198142
	 D(7,3,4,15)      =        -1.227852	     -70.350761
	 D(7,3,4,16)      =         0.917762	      52.583912
	 D(8,1,14,21)     =         0.218867	      12.540174
	 D(8,1,14,22)     =         2.313928	     132.578334
	 D(8,1,14,23)     =        -1.862208	    -106.696649
	 D(8,12,10,9)     =        -0.009071	      -0.519727
	 D(8,12,10,17)    =         3.133099	     179.513363
	 D(8,13,11,9)     =         0.016096	       0.922238
	 D(8,13,11,18)    =        -3.127455	    -179.189961
	 D(9,10,12,19)    =         3.128947	     179.275459
	 D(9,11,13,20)    =        -3.119213	    -178.717730
	 D(10,9,11,13)    =         0.003133	       0.179518
	 D(10,9,11,18)    =        -3.136488	    -179.707549
	 D(10,12,8,13)    =         0.027745	       1.589692
	 D(11,9,10,12)    =        -0.006667	      -0.382016
	 D(11,9,10,17)    =         3.134345	     179.584715
	 D(11,13,8,12)    =        -0.031193	      -1.787221
	 D(12,8,1,14)     =         2.224945	     127.479932
	 D(12,8,13,20)    =         3.104037	     177.848234
	 D(12,10,9,28)    =         3.139573	     179.884275
	 D(13,8,1,14)     =        -0.962266	     -55.133763
	 D(13,8,12,19)    =        -3.110254	    -178.204422
	 D(13,11,9,28)    =         3.140077	     179.913174
	 D(15,4,16,26)    =         1.046479	      59.958852
	 D(15,4,16,27)    =        -3.130686	    -179.375116
	 D(15,4,16,30)    =        -1.067759	     -61.178068
	 D(16,4,15,24)    =         3.071437	     175.980402
	 D(16,4,15,25)    =        -1.100029	     -63.027012
	 D(16,4,15,29)    =         1.017900	      58.321345
	 D(17,10,9,28)    =        -0.002600	      -0.148995
	 D(17,10,12,19)   =        -0.012068	      -0.691451
	 D(18,11,9,28)    =         0.000456	       0.026107
	 D(18,11,13,20)   =         0.020422	       1.170071
	 R(1,16)          =         6.849076	       3.624375
	 R(4,14)          =         5.483883	       2.901946
	 R(5,12)          =         5.507515	       2.914451
	 R(14,16)         =         6.595157	       3.490007

	Current energy   :      -613.2733717803

	Generating empirical Hessian (Schlegel '84) for each fragment.
	Taking RFO optimization step.
	Going to follow RFO solution 1.
	Using RFO vector 1.
	Norm of target step-size    0.35138
	Projected energy change by RFO approximation:        -0.0111074272

	Back-transformation to cartesian coordinates...
	Successfully converged to displaced geometry.

	Back-transformation to cartesian coordinates to adjust frozen coordinates...
	Successfully converged to displaced geometry.

	--- Internal Coordinate Step in ANG or DEG, aJ/ANG or AJ/DEG ---
	 ---------------------------------------------------------------------------
	   Coordinate                Previous        Force       Change         New 
	   ----------                --------       ------       ------       ------
	    1 R(1,2)          =      1.421417    -0.190053    -0.032054     1.389363
	    2 R(1,8)          =      1.456550    -0.118252    -0.021868     1.434682
	    3 R(1,14)         =      1.482989    -0.069686    -0.012562     1.470427
	    4 R(2,3)          =      1.558539    -0.139635    -0.035584     1.522955
	    5 R(2,5)          =      1.231320     0.080429     0.005562     1.236882
	    6 R(3,4)          =      1.478591    -0.041528    -0.009648     1.468943
	    7 R(3,6)          =      1.103598    -0.052438    -0.009600     1.093998
	    8 R(3,7)          =      1.104719    -0.009686    -0.001732     1.102987
	    9 R(4,15)         =      1.476834    -0.058604    -0.010291     1.466543
	   10 R(4,16)         =      1.480788    -0.041097    -0.009589     1.471199
	   11 R(8,12)         =      1.420971    -0.175520    -0.027418     1.393553
	   12 R(8,13)         =      1.421469    -0.181825    -0.027423     1.394046
	   13 R(9,10)         =      1.400476    -0.063957    -0.007897     1.392579
	   14 R(9,11)         =      1.400438    -0.071780    -0.008949     1.391489
	   15 R(9,28)         =      1.091797    -0.058029    -0.010300     1.081497
	   16 R(10,12)        =      1.401479    -0.083370    -0.011401     1.390078
	   17 R(10,17)        =      1.091452    -0.055620    -0.009814     1.081638
	   18 R(11,13)        =      1.402242    -0.080169    -0.010983     1.391260
	   19 R(11,18)        =      1.091630    -0.054682    -0.009660     1.081969
	   20 R(12,19)        =      1.091432    -0.069750    -0.012327     1.079105
	   21 R(13,20)        =      1.092005    -0.056650    -0.010014     1.081990
	   22 R(14,21)        =      1.089623    -0.011339    -0.001967     1.087657
	   23 R(14,22)        =      1.089319    -0.021409    -0.003732     1.085587
	   24 R(14,23)        =      1.088773    -0.000667    -0.000074     1.088698
	   25 R(15,24)        =      1.102509    -0.063538    -0.011606     1.090904
	   26 R(15,25)        =      1.103367    -0.004513    -0.000779     1.102588
	   27 R(15,29)        =      1.102377    -0.070165    -0.012840     1.089536
	   28 R(16,26)        =      1.103323    -0.006363    -0.001118     1.102204
	   29 R(16,27)        =      1.102360    -0.060659    -0.011119     1.091240
	   30 R(16,30)        =      1.102351    -0.066803    -0.012221     1.090131
	   31 B(1,2,3)        =    120.501208     0.000482     0.864765   121.365973
	   32 B(1,2,5)        =    120.426878     0.000595     1.408253   121.835132
	   33 B(1,8,12)       =    120.892297     0.000198     0.200768   121.093065
	   34 B(1,8,13)       =    120.479111    -0.000534    -1.146916   119.332195
	   35 B(1,14,21)      =    111.803040    -0.000948    -4.062563   107.740477
	   36 B(1,14,22)      =    110.729652     0.000167     0.800770   111.530422
	   37 B(1,14,23)      =    110.189208     0.000317     1.480365   111.669574
	   38 B(2,1,8)        =    118.859205     0.000247    -0.294611   118.564594
	   39 B(2,1,14)       =    124.487955     0.000002     0.232490   124.720444
	   40 B(2,3,4)        =    120.734885     0.000266    -0.726465   120.008420
	   41 B(2,3,6)        =    109.169465    -0.000444    -2.844919   106.324545
	   42 B(2,3,7)        =    107.638723    -0.000776    -3.453157   104.185566
	   43 B(3,2,5)        =    119.042167    -0.001082    -2.356645   116.685522
	   44 B(3,4,15)       =    111.697663    -0.000228    -0.774218   110.923444
	   45 B(3,4,16)       =    110.943679     0.000213     0.446998   111.390677
	   46 B(4,3,6)        =    107.705495     0.000076     0.121321   107.826816
	   47 B(4,3,7)        =    106.751484     0.000639     5.056647   111.808131
	   48 B(4,15,24)      =    109.463115     0.000078     0.480852   109.943966
	   49 B(4,15,25)      =    111.283636     0.000295     1.220193   112.503830
	   50 B(4,15,29)      =    109.677560    -0.000165    -0.797151   108.880410
	   51 B(4,16,26)      =    111.297459     0.000180     0.730581   112.028040
	   52 B(4,16,27)      =    110.028449    -0.000081    -0.342914   109.685535
	   53 B(4,16,30)      =    109.531117    -0.000005     0.025262   109.556379
	   54 B(6,3,7)        =    103.503760     0.000273     2.227354   105.731114
	   55 B(8,1,14)       =    116.614697    -0.000251    -0.092870   116.521827
	   56 B(8,12,10)      =    120.300676    -0.000011    -0.245203   120.055473
	   57 B(8,12,19)      =    120.109927    -0.000159    -0.546163   119.563764
	   58 B(8,13,11)      =    120.159619     0.000081     0.028971   120.188590
	   59 B(8,13,20)      =    120.539903    -0.000209    -0.689711   119.850193
	   60 B(9,10,12)      =    120.619936    -0.000090    -0.186701   120.433235
	   61 B(9,10,17)      =    119.961959     0.000074     0.251515   120.213474
	   62 B(9,11,13)      =    120.712890    -0.000169    -0.459520   120.253370
	   63 B(9,11,18)      =    119.971648     0.000091     0.281581   120.253229
	   64 B(10,9,11)      =    119.605489    -0.000148    -0.122912   119.482577
	   65 B(10,9,28)      =    120.187068     0.000086     0.107235   120.294304
	   66 B(10,12,19)     =    119.589079     0.000170     0.786119   120.375198
	   67 B(11,9,28)      =    120.206905     0.000062     0.015498   120.222403
	   68 B(11,13,20)     =    119.299488     0.000127     0.661381   119.960868
	   69 B(12,8,13)      =    118.578383     0.000338     0.995089   119.573472
	   70 B(12,10,17)     =    119.418097     0.000017    -0.064807   119.353290
	   71 B(13,11,18)     =    119.315367     0.000078     0.174289   119.489656
	   72 B(15,4,16)      =    109.854574    -0.000024     0.609380   110.463953
	   73 B(21,14,22)     =    107.650713     0.000377     1.403678   109.054391
	   74 B(21,14,23)     =    107.303616     0.000314     1.308651   108.612267
	   75 B(22,14,23)     =    109.045784    -0.000215    -0.877279   108.168505
	   76 B(24,15,25)     =    109.356317    -0.000159    -0.588677   108.767640
	   77 B(24,15,29)     =    107.453142     0.000075     0.440214   107.893356
	   78 B(25,15,29)     =    109.525221    -0.000132    -0.786175   108.739046
	   79 B(26,16,27)     =    108.788039    -0.000074    -0.407446   108.380593
	   80 B(26,16,30)     =    109.428050    -0.000091    -0.387999   109.040051
	   81 B(27,16,30)     =    107.691162     0.000067     0.368679   108.059841
	   82 *D(1,2,3,4)     =    -31.957346     0.000000     0.000000   -31.957346
	   83 D(1,2,3,6)      =     93.584114    -0.000023    -3.025308    90.558806
	   84 D(1,2,3,7)      =   -154.703392    -0.000088    -3.303680  -158.007072
	   85 D(1,8,12,10)    =    179.024691     0.000008     1.299827   180.324518
	   86 D(1,8,12,19)    =     -0.769424     0.000014     1.948727     1.179303
	   87 D(1,8,13,11)    =   -179.233180    -0.000017    -1.740229  -180.973409
	   88 D(1,8,13,20)    =      0.402275    -0.000014    -1.590661    -1.188387
	   89 *D(2,1,8,12)    =    -54.664975     0.000000     0.000000   -54.664975
	   90 D(2,1,8,13)     =    122.721330     0.000019     2.202159   124.923489
	   91 D(2,1,14,21)    =   -165.180670     0.000014     2.335675  -162.844995
	   92 D(2,1,14,22)    =    -45.142509     0.000004     1.946981   -43.195528
	   93 D(2,1,14,23)    =     75.582508     0.000016     2.383338    77.965846
	   94 *D(2,3,4,15)    =    166.479713    -0.000000     0.000000   166.479713
	   95 D(2,3,4,16)     =    -70.585614    -0.000009     0.552718   -70.032896
	   96 *D(3,2,1,8)     =   -175.659114    -0.000000     0.000000  -175.659114
	   97 D(3,2,1,14)     =      2.014260    -0.000017    -2.910498    -0.896238
	   98 D(3,4,15,24)    =    -60.467011     0.000010     0.064118   -60.402893
	   99 D(3,4,15,25)    =     60.525575     0.000020     0.457336    60.982911
	  100 D(3,4,15,29)    =   -178.126067     0.000001    -0.280708  -178.406775
	  101 D(3,4,16,26)    =    -64.033784     0.000022     0.557101   -63.476683
	  102 D(3,4,16,27)    =     56.632248     0.000016     0.290452    56.922700
	  103 D(3,4,16,30)    =    174.829296     0.000022     0.550331   175.379627
	  104 D(4,3,2,5)      =    150.017948     0.000029     1.827826   151.845774
	  105 D(5,2,1,8)      =      2.338122    -0.000037    -1.997257     0.340865
	  106 D(5,2,1,14)     =   -179.988504    -0.000054    -4.907755  -184.896259
	  107 D(5,2,3,6)      =    -84.440591     0.000006    -1.197482   -85.638074
	  108 D(5,2,3,7)      =     27.271902    -0.000059    -1.475854    25.796048
	  109 D(6,3,4,15)     =     40.263469     0.000078     4.434360    44.697829
	  110 D(6,3,4,16)     =    163.198142     0.000069     4.987078   168.185220
	  111 D(7,3,4,15)     =    -70.350761    -0.000068    -0.763866   -71.114628
	  112 D(7,3,4,16)     =     52.583912    -0.000077    -0.211149    52.372763
	  113 D(8,1,14,21)    =     12.540174    -0.000001    -0.525538    12.014636
	  114 D(8,1,14,22)    =    132.578334    -0.000010    -0.914232   131.664102
	  115 D(8,1,14,23)    =   -106.696649     0.000001    -0.477875  -107.174524
	  116 D(8,12,10,9)    =     -0.519727     0.000006     0.695788     0.176061
	  117 D(8,12,10,17)   =    179.513363     0.000006     0.652470   180.165833
	  118 D(8,13,11,9)    =      0.922238     0.000002     0.188604     1.110842
	  119 D(8,13,11,18)   =   -179.189961    -0.000004    -0.401317  -179.591277
	  120 D(9,10,12,19)   =    179.275459    -0.000001     0.038806   179.314265
	  121 D(9,11,13,20)   =   -178.717730    -0.000000     0.043789  -178.673941
	  122 D(10,9,11,13)   =      0.179518    -0.000003    -0.372386    -0.192867
	  123 D(10,9,11,18)   =   -179.707549     0.000002     0.222197  -179.485352
	  124 D(10,12,8,13)   =      1.589692    -0.000006    -0.852659     0.737033
	  125 D(11,9,10,12)   =     -0.382016    -0.000001    -0.068023    -0.450039
	  126 D(11,9,10,17)   =    179.584715    -0.000001    -0.024437   179.560277
	  127 D(11,13,8,12)   =     -1.787221     0.000001     0.408614    -1.378607
	  128 D(12,8,1,14)    =    127.479932     0.000015     2.664927   130.144859
	  129 D(12,8,13,20)   =    177.848234     0.000004     0.558181   178.406415
	  130 D(12,10,9,28)   =    179.884275     0.000000    -0.027125   179.857149
	  131 D(13,8,1,14)    =    -55.133763     0.000034     4.867086   -50.266677
	  132 D(13,8,12,19)   =   -178.204422     0.000001    -0.203759  -178.408181
	  133 D(13,11,9,28)   =    179.913174    -0.000004    -0.413005   179.500170
	  134 D(15,4,16,26)   =     59.958852    -0.000014     0.312923    60.271775
	  135 D(15,4,16,27)   =   -179.375116    -0.000021     0.046274  -179.328842
	  136 D(15,4,16,30)   =    -61.178068    -0.000014     0.306152   -60.871915
	  137 D(16,4,15,24)   =    175.980402    -0.000012    -0.401021   175.579381
	  138 D(16,4,15,25)   =    -63.027012    -0.000002    -0.007802   -63.034815
	  139 D(16,4,15,29)   =     58.321345    -0.000021    -0.745847    57.575499
	  140 D(17,10,9,28)   =     -0.148995    -0.000000     0.016460    -0.132535
	  141 D(17,10,12,19)  =     -0.691451    -0.000000    -0.004511    -0.695962
	  142 D(18,11,9,28)   =      0.026107     0.000002     0.181578     0.207685
	  143 D(18,11,13,20)  =      1.170071    -0.000006    -0.546132     0.623939
	  144 R(1,16)         =      3.624375    -0.041270    -0.062486     3.561889
	  145 R(4,14)         =      2.901946    -0.013457    -0.025728     2.876218
	  146 R(5,12)         =      2.914451    -0.028424    -0.018350     2.896101
	  147 R(14,16)        =      3.490007    -0.013562    -0.016299     3.473708
	 ---------------------------------------------------------------------------
	Successfully symmetrized geometry.

  ==> Convergence Check <==

  Measures of convergence in internal coordinates in au.
  Criteria marked as inactive (o), active & met (*), and active & unmet ( ).
  --------------------------------------------------------------------------------------------- ~
   Step     Total Energy     Delta E     MAX Force     RMS Force      MAX Disp      RMS Disp    ~
  --------------------------------------------------------------------------------------------- ~
    Convergence Criteria             o    2.50e-03 *    1.70e-03 *    1.00e-02 *    6.70e-03 *  ~
  --------------------------------------------------------------------------------------------- ~
      1    -613.27337178   -6.13e+02 o    2.31e-02      5.39e-03      1.18e-01      2.90e-02    ~
  ---------------------------------------------------------------------------------------------

	Writing optimization data to binary file.
	Structure for next step:
	Cartesian Geometry (in Angstrom)
	    N    -0.0212370013   0.0029185343  -0.3660361820
	    C     0.9592925726   0.5831893426   0.4290590052
	    C     2.3959918078   0.7199491615  -0.0573395764
	    N     2.9633451140  -0.2863085918  -0.9647259731
	    O     0.6967079777   1.0780110520   1.5318182846
	    H     2.4614592432   1.6929169851  -0.5532015531
	    H     2.9869850594   0.8160293656   0.8689841573
	    C    -1.3736135127  -0.0103644261   0.1127256910
	    C    -4.0224725987  -0.0315704510   0.9994518809
	    C    -3.0099107446  -0.5589783111   1.7968442108
	    C    -3.7038865793   0.5136021002  -0.2405203531
	    C    -1.6912379408  -0.5512823938   1.3571181404
	    C    -2.3835021230   0.5351995684  -0.6783812611
	    C     0.1988410812  -0.5105056418  -1.7262265782
	    C     4.2180411069   0.1898601034  -1.5561228752
	    C     3.1731022844  -1.5704618513  -0.2781553698
	    H    -3.2432734579  -0.9792401523   2.7657936280
	    H    -4.4795918007   0.9342749757  -0.8665979144
	    H    -0.9058549889  -0.9501979489   1.9804213211
	    H    -2.1382895583   0.9795887405  -1.6339398528
	    H    -0.7734666476  -0.6151613994  -2.2023167308
	    H     0.8100813774   0.1673770880  -2.3138991795
	    H     0.6865636996  -1.4837753237  -1.7145242496
	    H     4.0374694655   1.1008154616  -2.1285084596
	    H     4.9911080496   0.3951331084  -0.7972212303
	    H     3.9115248203  -1.4881765423   0.5359794604
	    H     2.2300852366  -1.9185920011   0.1464972520
	    H    -5.0479754430  -0.0408055157   1.3428087674
	    H     4.5940803408  -0.5679166455  -2.2427513029
	    H     3.5163412272  -2.3160247361  -0.9955867466
			--------------------------
			 OPTKING Finished Execution 
			--------------------------

    Structure for next step:
    Molecular point group: c1
    Full point group: C1

    Geometry (in Angstrom), charge = 0, multiplicity = 1:

    N           -0.037965818018    -0.000572984134    -0.365509528421
    C            0.942563759722     0.579697826385     0.429585661949
    C            2.379263000576     0.716457645873    -0.056812921530
    N            2.946616309076    -0.289800111386    -0.964199321850
    O            0.679979163838     1.074519537726     1.532344945625
    H            2.444730436250     1.689425473332    -0.552674900218
    H            2.970256254484     0.812537850353     0.869510815748
    C           -1.390342334733    -0.013855944565     0.113252346521
    C           -4.039201431146    -0.035061969634     0.999978539904
    C           -3.026639573017    -0.562469831735     1.797370872928
    C           -3.720615410529     0.510110583708    -0.239993698957
    C           -1.707966764029    -0.554773914473     1.357644800779
    C           -2.400230949001     0.531708052062    -0.677854608748
    C            0.182112265330    -0.513997162250    -1.725699929958
    C            4.201312306851     0.186368585704    -1.555596226243
    C            3.156373480206    -1.573953375928    -0.277628715856
    H           -3.260002287251    -0.982731674586     2.766320293971
    H           -4.496320634913     0.930783460923    -0.866071262765
    H           -0.922583809054    -0.953689471121     1.980947983931
    H           -2.155018383346     0.976097225894    -1.633413204189
    H           -0.790195467221    -0.618652920251    -2.201790084390
    H            0.793352563916     0.163885570233    -2.313372533510
    H            0.669834885723    -1.487266848036    -1.713997601311
    H            4.020740664796     1.097323947436    -2.127981812896
    H            4.974379252630     0.391641591454    -0.796694578410
    H            3.894796019020    -1.491668066617     0.536506117520
    H            2.213356428788    -1.922083527126     0.147023907659
    H           -5.064704279473    -0.044297034285     1.343335427765
    H            4.577351542236    -0.571408166192    -2.242224656665
    H            3.499612424364    -2.319516263650    -0.995060095487


Scratch directory: /scratch/bdw2292/Psi4-25_27_Index_0-farH_in17/

Scratch directory: /scratch/bdw2292/Psi4-25_27_Index_0-farH_in17/
gradient() will perform analytic gradient computation.

*** tstart() called on node74.bme.utexas.edu
*** at Wed Jun  8 13:51:12 2022

   => Loading Basis Set <=

    Name: 6-311G
    Role: ORBITAL
    Keyword: BASIS
    atoms 1, 4       entry N          line   109 file /home/bdw2292/miniconda3/envs/newamoebamdpoltype/share/psi4/basis/6-311g.gbs 
    atoms 2-3, 8-16  entry C          line    92 file /home/bdw2292/miniconda3/envs/newamoebamdpoltype/share/psi4/basis/6-311g.gbs 
    atoms 5          entry O          line   126 file /home/bdw2292/miniconda3/envs/newamoebamdpoltype/share/psi4/basis/6-311g.gbs 
    atoms 6-7, 17-30 entry H          line    21 file /home/bdw2292/miniconda3/envs/newamoebamdpoltype/share/psi4/basis/6-311g.gbs 

   => WB97X-D: Empirical Dispersion <=

    Chai and Head-Gordon Dispersion Correction
    Chai, J.-D.; Head-Gordon, M. (2010), J. Chem. Phys., 132: 6615-6620

        s6 =       1.000000


         ---------------------------------------------------------
                                   SCF
               by Justin Turney, Rob Parrish, Andy Simmonett
                          and Daniel G. A. Smith
                              RKS Reference
                        2 Threads,   7788 MiB Core
         ---------------------------------------------------------

  ==> Geometry <==

    Molecular point group: c1
    Full point group: C1

    Geometry (in Angstrom), charge = 0, multiplicity = 1:

       Center              X                  Y                   Z               Mass       
    ------------   -----------------  -----------------  -----------------  -----------------
         N           -0.037965818018    -0.000572984134    -0.365509528421    14.003074004430
         C            0.942563759722     0.579697826385     0.429585661949    12.000000000000
         C            2.379263000576     0.716457645873    -0.056812921530    12.000000000000
         N            2.946616309076    -0.289800111386    -0.964199321850    14.003074004430
         O            0.679979163838     1.074519537726     1.532344945625    15.994914619570
         H            2.444730436250     1.689425473332    -0.552674900218     1.007825032230
         H            2.970256254484     0.812537850353     0.869510815748     1.007825032230
         C           -1.390342334733    -0.013855944565     0.113252346521    12.000000000000
         C           -4.039201431146    -0.035061969634     0.999978539904    12.000000000000
         C           -3.026639573017    -0.562469831735     1.797370872928    12.000000000000
         C           -3.720615410529     0.510110583708    -0.239993698957    12.000000000000
         C           -1.707966764029    -0.554773914473     1.357644800779    12.000000000000
         C           -2.400230949001     0.531708052062    -0.677854608748    12.000000000000
         C            0.182112265330    -0.513997162250    -1.725699929958    12.000000000000
         C            4.201312306851     0.186368585704    -1.555596226243    12.000000000000
         C            3.156373480206    -1.573953375928    -0.277628715856    12.000000000000
         H           -3.260002287251    -0.982731674586     2.766320293971     1.007825032230
         H           -4.496320634913     0.930783460923    -0.866071262765     1.007825032230
         H           -0.922583809054    -0.953689471121     1.980947983931     1.007825032230
         H           -2.155018383346     0.976097225894    -1.633413204189     1.007825032230
         H           -0.790195467221    -0.618652920251    -2.201790084390     1.007825032230
         H            0.793352563916     0.163885570233    -2.313372533510     1.007825032230
         H            0.669834885723    -1.487266848036    -1.713997601311     1.007825032230
         H            4.020740664796     1.097323947436    -2.127981812896     1.007825032230
         H            4.974379252630     0.391641591454    -0.796694578410     1.007825032230
         H            3.894796019020    -1.491668066617     0.536506117520     1.007825032230
         H            2.213356428788    -1.922083527126     0.147023907659     1.007825032230
         H           -5.064704279473    -0.044297034285     1.343335427765     1.007825032230
         H            4.577351542236    -0.571408166192    -2.242224656665     1.007825032230
         H            3.499612424364    -2.319516263650    -0.995060095487     1.007825032230

  Running in c1 symmetry.

  Rotational constants: A =      0.05989  B =      0.01145  C =      0.01083 [cm^-1]
  Rotational constants: A =   1795.54897  B =    343.26558  C =    324.66809 [MHz]
  Nuclear repulsion =  891.459973428281160

  Charge       = 0
  Multiplicity = 1
  Electrons    = 104
  Nalpha       = 52
  Nbeta        = 52

  ==> Algorithm <==

  SCF Algorithm Type is DF.
  DIIS enabled.
  MOM disabled.
  Fractional occupation disabled.
  Guess Type is READ.
  Energy threshold   = 1.00e-08
  Density threshold  = 1.00e-08
  Integral threshold = 1.00e-12

  ==> Primary Basis <==

  Basis Set: 6-311G
    Blend: 6-311G
    Number of shells: 146
    Number of basis functions: 230
    Number of Cartesian functions: 230
    Spherical Harmonics?: true
    Max angular momentum: 1

  ==> DFT Potential <==

   => LibXC <=

    Version 5.1.5
    S. Lehtola, C. Steigemann, M. J. Oliveira, and M. A. Marques, SoftwareX 7, 1 (2018) (10.1016/j.softx.2017.11.002)

   => Composite Functional: WB97X-D <= 

    wB97X-D Hyb-GGA Exchange-Correlation Functional

    J.-D. Chai and M. Head-Gordon, Phys. Chem. Chem. Phys. 10, 6615 (2008) (10.1039/B810189B)

    Deriv               =              1
    GGA                 =           TRUE
    Meta                =          FALSE

    Exchange Hybrid     =           TRUE
    MP2 Hybrid          =          FALSE

   => Exchange-Correlation Functionals <=

    1.0000   wB97X-D range-separated functional

   => Exact (HF) Exchange <=

    0.7780            HF,LR [omega = 0.2000]
    0.2220               HF 

   => LibXC Density Thresholds  <==

    XC_HYB_GGA_XC_WB97X_D:  1.00E-14 

   => Molecular Quadrature <=

    Radial Scheme          =       TREUTLER
    Pruning Scheme         =           NONE
    Nuclear Scheme         =       TREUTLER

    BS radius alpha        =              1
    Pruning alpha          =              1
    Radial Points          =             75
    Spherical Points       =            302
    Total Points           =         622519
    Total Blocks           =           4498
    Max Points             =            256
    Max Functions          =            186
    Weights Tolerance      =       1.00E-15

   => Loading Basis Set <=

    Name: (6-311G AUX)
    Role: JKFIT
    Keyword: DF_BASIS_SCF
    atoms 1, 4       entry N          line   177 file /home/bdw2292/miniconda3/envs/newamoebamdpoltype/share/psi4/basis/cc-pvtz-jkfit.gbs 
    atoms 2-3, 8-16  entry C          line   125 file /home/bdw2292/miniconda3/envs/newamoebamdpoltype/share/psi4/basis/cc-pvtz-jkfit.gbs 
    atoms 5          entry O          line   229 file /home/bdw2292/miniconda3/envs/newamoebamdpoltype/share/psi4/basis/cc-pvtz-jkfit.gbs 
    atoms 6-7, 17-30 entry H          line    51 file /home/bdw2292/miniconda3/envs/newamoebamdpoltype/share/psi4/basis/cc-pvtz-jkfit.gbs 

   => Loading Basis Set <=

    Name: 6-311G
    Role: ORBITAL
    Keyword: BASIS
    atoms 1, 4       entry N          line   109 file /home/bdw2292/miniconda3/envs/newamoebamdpoltype/share/psi4/basis/6-311g.gbs 
    atoms 2-3, 8-16  entry C          line    92 file /home/bdw2292/miniconda3/envs/newamoebamdpoltype/share/psi4/basis/6-311g.gbs 
    atoms 5          entry O          line   126 file /home/bdw2292/miniconda3/envs/newamoebamdpoltype/share/psi4/basis/6-311g.gbs 
    atoms 6-7, 17-30 entry H          line    21 file /home/bdw2292/miniconda3/envs/newamoebamdpoltype/share/psi4/basis/6-311g.gbs 

  Reading orbitals from file /scratch/bdw2292/Psi4-25_27_Index_0-farH_in17/25_27_Index_0-opt-1_2-3-329.default.1121655.180.npy, no projection.

  ==> Integral Setup <==

  DFHelper Memory: AOs need 1.555 GiB; user supplied 3.478 GiB. Using in-core AOs.

  ==> MemDFJK: Density-Fitted J/K Matrices <==

    J tasked:                   Yes
    K tasked:                   Yes
    wK tasked:                  Yes
    Omega:                2.000E-01
    OpenMP threads:               2
    Memory [MiB]:              3561
    Algorithm:                 Core
    Schwarz Cutoff:           1E-12
    Mask sparsity (%):      18.6957
    Fitting Condition:        1E-10

   => Auxiliary Basis Set <=

  Basis Set: (6-311G AUX)
    Blend: CC-PVTZ-JKFIT
    Number of shells: 510
    Number of basis functions: 1586
    Number of Cartesian functions: 1904
    Spherical Harmonics?: true
    Max angular momentum: 4

  Cached 100.0% of DFT collocation blocks in 2.226 [GiB].

  Minimum eigenvalue in the overlap matrix is 2.4445016944E-04.
  Reciprocal condition number of the overlap matrix is 3.3855620162E-05.
    Using symmetric orthogonalization.

  ==> Pre-Iterations <==

  SCF Guess: Orbitals guess was supplied from a previous computation.

   -------------------------------------------------------
    Irrep   Nso     Nmo     Nalpha   Nbeta   Ndocc  Nsocc
   -------------------------------------------------------
     A        230     230      52      52      52       0
   -------------------------------------------------------
    Total     230     230      52      52      52       0
   -------------------------------------------------------

  ==> Iterations <==

                           Total Energy        Delta E     RMS |[F,P]|

   @DF-RKS iter   0:  -613.37908887612298   -6.13379e+02   1.18377e-03 
   @DF-RKS iter   1:  -613.27974979717703    9.93391e-02   2.07348e-04 DIIS
   @DF-RKS iter   2:  -613.28005107874412   -3.01282e-04   2.68125e-04 DIIS
   @DF-RKS iter   3:  -613.28141748251744   -1.36640e-03   4.25771e-05 DIIS
   @DF-RKS iter   4:  -613.28147901475074   -6.15322e-05   1.96817e-05 DIIS
   @DF-RKS iter   5:  -613.28149208353784   -1.30688e-05   4.32800e-06 DIIS
   @DF-RKS iter   6:  -613.28149271521102   -6.31673e-07   2.04523e-06 DIIS
   @DF-RKS iter   7:  -613.28149284026142   -1.25050e-07   4.65189e-07 DIIS
   @DF-RKS iter   8:  -613.28149285216057   -1.18991e-08   1.54293e-07 DIIS
   @DF-RKS iter   9:  -613.28149285296820   -8.07631e-10   5.28122e-08 DIIS
   @DF-RKS iter  10:  -613.28149285310224   -1.34037e-10   2.00543e-08 DIIS
   @DF-RKS iter  11:  -613.28149285312213   -1.98952e-11   7.40928e-09 DIIS
  Energy and wave function converged.


  ==> Post-Iterations <==

   Electrons on quadrature grid:
      Ntotal   =  103.9999451764 ; deviation = -5.482e-05 

    Orbital Energies [Eh]
    ---------------------

    Doubly Occupied:                                                      

       1A    -19.208228     2A    -14.473685     3A    -14.441613  
       4A    -10.400094     5A    -10.333436     6A    -10.325121  
       7A    -10.313353     8A    -10.311112     9A    -10.309589  
      10A    -10.292567    11A    -10.291819    12A    -10.289693  
      13A    -10.288531    14A    -10.287798    15A     -1.152719  
      16A     -1.048975    17A     -1.038090    18A     -0.960072  
      19A     -0.861071    20A     -0.855129    21A     -0.835915  
      22A     -0.818985    23A     -0.804842    24A     -0.730497  
      25A     -0.713199    26A     -0.703056    27A     -0.654743  
      28A     -0.605352    29A     -0.595941    30A     -0.583287  
      31A     -0.573281    32A     -0.563324    33A     -0.554832  
      34A     -0.534450    35A     -0.526405    36A     -0.520304  
      37A     -0.510517    38A     -0.500866    39A     -0.490867  
      40A     -0.484358    41A     -0.482125    42A     -0.468941  
      43A     -0.461240    44A     -0.459229    45A     -0.443760  
      46A     -0.436650    47A     -0.431090    48A     -0.355419  
      49A     -0.338633    50A     -0.325504    51A     -0.302604  
      52A     -0.299280  

    Virtual:                                                              

      53A      0.056668    54A      0.066391    55A      0.090880  
      56A      0.109837    57A      0.128201    58A      0.143978  
      59A      0.149646    60A      0.155184    61A      0.162153  
      62A      0.174238    63A      0.177734    64A      0.184255  
      65A      0.193984    66A      0.197139    67A      0.207235  
      68A      0.212428    69A      0.223614    70A      0.224073  
      71A      0.231173    72A      0.234027    73A      0.241925  
      74A      0.259657    75A      0.286071    76A      0.299056  
      77A      0.310956    78A      0.323802    79A      0.344521  
      80A      0.351280    81A      0.359129    82A      0.371356  
      83A      0.376640    84A      0.387674    85A      0.398498  
      86A      0.426759    87A      0.435977    88A      0.452599  
      89A      0.459965    90A      0.462645    91A      0.474090  
      92A      0.483359    93A      0.485303    94A      0.491338  
      95A      0.498167    96A      0.513109    97A      0.514186  
      98A      0.526040    99A      0.546705   100A      0.551962  
     101A      0.559421   102A      0.559933   103A      0.564806  
     104A      0.576602   105A      0.585576   106A      0.609866  
     107A      0.620420   108A      0.632149   109A      0.637201  
     110A      0.645227   111A      0.654483   112A      0.659625  
     113A      0.664247   114A      0.667789   115A      0.678897  
     116A      0.682708   117A      0.688314   118A      0.694187  
     119A      0.696295   120A      0.699831   121A      0.704805  
     122A      0.711760   123A      0.721561   124A      0.726799  
     125A      0.741160   126A      0.750375   127A      0.753336  
     128A      0.760451   129A      0.766885   130A      0.799203  
     131A      0.824496   132A      0.845946   133A      0.858015  
     134A      0.861667   135A      0.885324   136A      0.891189  
     137A      0.916603   138A      0.923287   139A      0.933075  
     140A      0.960009   141A      0.970640   142A      0.981450  
     143A      0.993796   144A      1.037706   145A      1.043795  
     146A      1.065398   147A      1.086199   148A      1.106582  
     149A      1.126939   150A      1.164258   151A      1.215976  
     152A      1.234168   153A      1.275304   154A      1.309909  
     155A      1.381019   156A      1.476107   157A      1.547099  
     158A      1.795275   159A      2.301339   160A      2.307082  
     161A      2.315961   162A      2.344237   163A      2.352368  
     164A      2.355992   165A      2.361602   166A      2.368991  
     167A      2.388084   168A      2.408784   169A      2.414185  
     170A      2.418881   171A      2.432907   172A      2.450825  
     173A      2.477706   174A      2.641022   175A      2.643881  
     176A      2.681222   177A      2.702755   178A      2.722640  
     179A      2.767322   180A      2.783479   181A      2.834122  
     182A      2.852924   183A      2.877625   184A      2.906940  
     185A      2.921376   186A      2.932826   187A      2.967449  
     188A      2.974008   189A      2.987227   190A      3.021084  
     191A      3.028433   192A      3.059293   193A      3.066347  
     194A      3.094456   195A      3.099241   196A      3.136095  
     197A      3.139525   198A      3.170783   199A      3.194070  
     200A      3.209754   201A      3.257027   202A      3.304914  
     203A      3.336767   204A      3.356134   205A      3.383014  
     206A      3.394195   207A      3.525449   208A      3.942759  
     209A      4.002098   210A      4.069353   211A      4.112803  
     212A      4.172345   213A      4.280213   214A      5.008432  
     215A      5.074684   216A      5.120822   217A     23.247522  
     218A     23.458346   219A     23.487725   220A     23.500559  
     221A     23.532331   222A     23.576904   223A     23.585215  
     224A     23.689146   225A     23.744339   226A     23.770113  
     227A     24.023985   228A     35.544983   229A     35.578390  
     230A     50.070737  

    Final Occupation by Irrep:
              A 
    DOCC [    52 ]

  @DF-RKS Final Energy:  -613.28149285312213

   => Energetics <=

    Nuclear Repulsion Energy =            891.4599734282811596
    One-Electron Energy =               -2599.2414964461177078
    Two-Electron Energy =                1155.0361415697425400
    DFT Exchange-Correlation Energy =     -60.5153061339120910
    Empirical Dispersion Energy =          -0.0208052711159640
    VV10 Nonlocal Energy =                  0.0000000000000000
    Total Energy =                       -613.2814928531221312

Computation Completed


Properties will be evaluated at   0.000000,   0.000000,   0.000000 [a0]

Properties computed using the SCF density matrix

  Nuclear Dipole Moment: [e a0]
     X:    12.5284      Y:    -4.0529      Z:    -7.3007

  Electronic Dipole Moment: [e a0]
     X:   -12.0521      Y:     3.4206      Z:     6.0804

  Dipole Moment: [e a0]
     X:     0.4763      Y:    -0.6323      Z:    -1.2203     Total:     1.4546

  Dipole Moment: [D]
     X:     1.2107      Y:    -1.6072      Z:    -3.1017     Total:     3.6972


*** tstop() called on node74.bme.utexas.edu at Wed Jun  8 13:52:15 2022
Module time:
	user time   =     120.46 seconds =       2.01 minutes
	system time =       4.70 seconds =       0.08 minutes
	total time  =         63 seconds =       1.05 minutes
Total time:
	user time   =     319.20 seconds =       5.32 minutes
	system time =      11.31 seconds =       0.19 minutes
	total time  =        168 seconds =       2.80 minutes

*** tstart() called on node74.bme.utexas.edu
*** at Wed Jun  8 13:52:15 2022


         ------------------------------------------------------------
                                   SCF GRAD                          
                          Rob Parrish, Justin Turney,                
                       Andy Simmonett, and Alex Sokolov              
         ------------------------------------------------------------

  ==> Geometry <==

    Molecular point group: c1
    Full point group: C1

    Geometry (in Angstrom), charge = 0, multiplicity = 1:

       Center              X                  Y                   Z               Mass       
    ------------   -----------------  -----------------  -----------------  -----------------
         N           -0.037965818018    -0.000572984134    -0.365509528421    14.003074004430
         C            0.942563759722     0.579697826385     0.429585661949    12.000000000000
         C            2.379263000576     0.716457645873    -0.056812921530    12.000000000000
         N            2.946616309076    -0.289800111386    -0.964199321850    14.003074004430
         O            0.679979163838     1.074519537726     1.532344945625    15.994914619570
         H            2.444730436250     1.689425473332    -0.552674900218     1.007825032230
         H            2.970256254484     0.812537850353     0.869510815748     1.007825032230
         C           -1.390342334733    -0.013855944565     0.113252346521    12.000000000000
         C           -4.039201431146    -0.035061969634     0.999978539904    12.000000000000
         C           -3.026639573017    -0.562469831735     1.797370872928    12.000000000000
         C           -3.720615410529     0.510110583708    -0.239993698957    12.000000000000
         C           -1.707966764029    -0.554773914473     1.357644800779    12.000000000000
         C           -2.400230949001     0.531708052062    -0.677854608748    12.000000000000
         C            0.182112265330    -0.513997162250    -1.725699929958    12.000000000000
         C            4.201312306851     0.186368585704    -1.555596226243    12.000000000000
         C            3.156373480206    -1.573953375928    -0.277628715856    12.000000000000
[...]
	   60 B(9,10,12)      =    120.534409    -0.000001    -0.002090   120.532319
	   61 B(9,10,17)      =    120.083675     0.000000     0.005253   120.088929
	   62 B(9,11,13)      =    120.247119    -0.000002    -0.012475   120.234644
	   63 B(9,11,18)      =    120.235215     0.000003     0.016042   120.251257
	   64 B(10,9,11)      =    119.471432     0.000001     0.008293   119.479726
	   65 B(10,9,28)      =    120.275945    -0.000002    -0.006270   120.269675
	   66 B(10,12,19)     =    120.434905     0.000001     0.007506   120.442411
	   67 B(11,9,28)      =    120.251783     0.000001    -0.002112   120.249671
	   68 B(11,13,20)     =    119.725304    -0.000000    -0.005715   119.719589
	   69 B(12,8,13)      =    119.573695    -0.000002    -0.005268   119.568427
	   70 B(12,10,17)     =    119.381905     0.000001    -0.003155   119.378751
	   71 B(13,11,18)     =    119.513801    -0.000001    -0.003210   119.510591
	   72 B(15,4,16)      =    112.524566     0.000005     0.036190   112.560756
	   73 B(21,14,22)     =    108.812345    -0.000000     0.029811   108.842157
	   74 B(21,14,23)     =    109.818755     0.000024     0.150792   109.969547
	   75 B(22,14,23)     =    107.760747     0.000003    -0.041583   107.719165
	   76 B(24,15,25)     =    108.356914     0.000006     0.040026   108.396939
	   77 B(24,15,29)     =    108.146847     0.000001    -0.025449   108.121398
	   78 B(25,15,29)     =    108.239649     0.000002     0.025647   108.265296
	   79 B(26,16,27)     =    108.179577     0.000009     0.038980   108.218557
	   80 B(26,16,30)     =    108.509068     0.000007     0.027142   108.536210
	   81 B(27,16,30)     =    108.165554     0.000003     0.002368   108.167922
	   82 *D(1,2,3,4)     =    -31.957346     0.000000     0.000000   -31.957346
	   83 D(1,2,3,6)      =     89.748142    -0.000001    -0.040248    89.707894
	   84 D(1,2,3,7)      =   -157.663941     0.000001    -0.010994  -157.674935
	   85 D(1,8,12,10)    =   -179.333229     0.000001     0.090956  -179.242274
	   86 D(1,8,12,19)    =      1.738788    -0.000000    -0.030149     1.708638
	   87 D(1,8,13,11)    =    178.798664     0.000000    -0.011881   178.786783
	   88 D(1,8,13,20)    =     -1.939331    -0.000000    -0.101095    -2.040427
	   89 *D(2,1,8,12)    =    -54.664975     0.000000     0.000000   -54.664975
	   90 D(2,1,8,13)     =    125.228471     0.000001     0.091914   125.320385
	   91 D(2,1,14,21)    =    175.207797    -0.000002    -0.161791   175.046006
	   92 D(2,1,14,22)    =    -65.340458    -0.000002    -0.081312   -65.421770
	   93 D(2,1,14,23)    =     54.798331    -0.000005    -0.251236    54.547096
	   94 *D(2,3,4,15)    =    166.479713     0.000000    -0.000000   166.479713
	   95 D(2,3,4,16)     =    -65.368394     0.000002     0.035984   -65.332409
	   96 *D(3,2,1,8)     =   -175.659114     0.000000     0.000000  -175.659114
	   97 D(3,2,1,14)     =    -12.845486    -0.000001    -0.034272   -12.879758
	   98 D(3,4,15,24)    =    -58.360856    -0.000000    -0.029095   -58.389951
	   99 D(3,4,15,25)    =     62.567693     0.000001     0.026920    62.594613
	  100 D(3,4,15,29)    =   -176.981200     0.000001     0.041676  -176.939524
	  101 D(3,4,16,26)    =    -63.738909    -0.000001    -0.051467   -63.790376
	  102 D(3,4,16,27)    =     56.740151    -0.000001    -0.035658    56.704493
	  103 D(3,4,16,30)    =    175.492337    -0.000001    -0.044971   175.447365
	  104 D(4,3,2,5)      =    148.851587     0.000001     0.062085   148.913673
	  105 D(5,2,1,8)      =      3.489326    -0.000001    -0.064515     3.424811
	  106 D(5,2,1,14)     =    166.302954    -0.000002    -0.098787   166.204168
	  107 D(5,2,3,6)      =    -89.442925     0.000000     0.021837   -89.421088
	  108 D(5,2,3,7)      =     23.144992     0.000001     0.051091    23.196083
	  109 D(6,3,4,15)     =     45.629076    -0.000000     0.019000    45.648076
	  110 D(6,3,4,16)     =    173.780969     0.000001     0.054984   173.835953
	  111 D(7,3,4,15)     =    -71.935603     0.000001     0.085212   -71.850390
	  112 D(7,3,4,16)     =     56.216290     0.000003     0.121197    56.337487
	  113 D(8,1,14,21)    =    -21.665228    -0.000003    -0.198022   -21.863250
	  114 D(8,1,14,22)    =     97.786517    -0.000002    -0.117543    97.668974
	  115 D(8,1,14,23)    =   -142.074694    -0.000006    -0.287467  -142.362160
	  116 D(8,12,10,9)    =      0.152520    -0.000001    -0.062924     0.089597
	  117 D(8,12,10,17)   =   -179.884032    -0.000000    -0.015454  -179.899486
	  118 D(8,13,11,9)    =      0.918376    -0.000001    -0.095459     0.822918
	  119 D(8,13,11,18)   =   -179.795049    -0.000001    -0.061635  -179.856684
	  120 D(9,10,12,19)   =    179.071299     0.000000     0.059051   179.130351
	  121 D(9,11,13,20)   =   -178.346241    -0.000000    -0.006575  -178.352815
	  122 D(10,9,11,13)   =      0.010442     0.000000     0.032146     0.042588
	  123 D(10,9,11,18)   =   -179.270954    -0.000000    -0.001790  -179.272744
	  124 D(10,12,8,13)   =      0.772872    -0.000000    -0.000569     0.772303
	  125 D(11,9,10,12)   =     -0.546048     0.000001     0.047021    -0.499027
	  126 D(11,9,10,17)   =    179.490761     0.000000    -0.000783   179.489978
	  127 D(11,13,8,12)   =     -1.306979     0.000001     0.079248    -1.227731
	  128 D(12,8,1,14)    =    141.324509     0.000001     0.030668   141.355177
	  129 D(12,8,13,20)   =    177.955026     0.000000    -0.009966   177.945060
	  130 D(12,10,9,28)   =    179.786395     0.000001     0.064140   179.850535
	  131 D(13,8,1,14)    =    -38.782045     0.000001     0.122582   -38.659463
	  132 D(13,8,12,19)   =   -178.155111    -0.000001    -0.121674  -178.276785
	  133 D(13,11,9,28)   =    179.678081     0.000000     0.015016   179.693097
	  134 D(15,4,16,26)   =     64.479626     0.000000    -0.025241    64.454385
	  135 D(15,4,16,27)   =   -175.041314     0.000001    -0.009432  -175.050746
	  136 D(15,4,16,30)   =    -56.289128     0.000000    -0.018745   -56.307873
	  137 D(16,4,15,24)   =    173.696945    -0.000001    -0.028514   173.668430
	  138 D(16,4,15,25)   =    -65.374506     0.000000     0.027501   -65.347006
	  139 D(16,4,15,29)   =     55.076601    -0.000000     0.042257    55.118858
	  140 D(17,10,9,28)   =     -0.176797     0.000000     0.016336    -0.160460
	  141 D(17,10,12,19)  =     -0.965253     0.000001     0.106521    -0.858732
	  142 D(18,11,9,28)   =      0.396685    -0.000000    -0.018919     0.377766
	  143 D(18,11,13,20)  =      0.940334    -0.000000     0.027249     0.967583
	  144 R(1,16)         =      3.428775     0.000656     0.000798     3.429573
	  145 R(4,14)         =      2.879870     0.001189     0.001689     2.881560
	  146 R(5,12)         =      2.856562    -0.001353    -0.001187     2.855374
	  147 R(14,16)        =      3.480345     0.001700     0.001640     3.481985
	  148 R(1,X)          =     -0.019222     0.000711    -0.000159    -0.019381
	  149 R(1,Y)          =     -0.015818     0.000187     0.000034    -0.015784
	  150 R(1,Z)          =     -0.363972     0.000838     0.000069    -0.363903
	  151 R(2,X)          =      0.947735    -0.000151    -0.000037     0.947698
	  152 R(2,Y)          =      0.623396    -0.000006    -0.000377     0.623020
	  153 R(2,Z)          =      0.385031     0.000844    -0.000053     0.384978
	  154 R(3,X)          =      2.374915     0.000178     0.000088     2.375003
	  155 R(3,Y)          =      0.784581    -0.000935    -0.000893     0.783688
	  156 R(3,Z)          =     -0.129233    -0.000295    -0.000143    -0.129376
	  157 R(4,X)          =      2.913356     0.001195     0.000974     2.914330
	  158 R(4,Y)          =     -0.259448     0.000587    -0.000034    -0.259482
	  159 R(4,Z)          =     -0.992784     0.000321    -0.000052    -0.992836
	  160 R(5,X)          =      0.698348    -0.000763    -0.000979     0.697370
	  161 R(5,Y)          =      1.110710    -0.001237     0.000237     1.110947
	  162 R(5,Z)          =      1.504895    -0.003901    -0.001154     1.503741
	  163 R(6,X)          =      2.401906     0.000205    -0.000048     2.401858
	  164 R(6,Y)          =      1.730368    -0.001563    -0.001195     1.729172
	  165 R(6,Z)          =     -0.679865    -0.001199    -0.000742    -0.680607
	  166 R(7,X)          =      2.976438     0.001645     0.001148     2.977586
	  167 R(7,Y)          =      0.931633    -0.001445    -0.000808     0.930825
	  168 R(7,Z)          =      0.779721    -0.001503    -0.000948     0.778772
	  169 R(8,X)          =     -1.364993     0.000159    -0.000072    -1.365064
	  170 R(8,Y)          =     -0.046748     0.000341     0.000716    -0.046032
	  171 R(8,Z)          =      0.143864     0.000451     0.000421     0.144285
	  172 R(9,X)          =     -3.988456    -0.000953    -0.000348    -3.988804
	  173 R(9,Y)          =     -0.130065    -0.000036    -0.000176    -0.130241
	  174 R(9,Z)          =      1.107065    -0.000235    -0.000033     1.107031
	  175 R(10,X)         =     -2.933097     0.000069    -0.000113    -2.933210
	  176 R(10,Y)         =     -0.583995    -0.000291    -0.000168    -0.584163
	  177 R(10,Z)         =      1.896905     0.000580     0.000137     1.897042
	  178 R(11,X)         =     -3.725388    -0.001396    -0.000567    -3.725955
	  179 R(11,Y)         =      0.374866    -0.000063    -0.000062     0.374804
	  180 R(11,Z)         =     -0.162769    -0.000239    -0.000016    -0.162785
	  181 R(12,X)         =     -1.627412    -0.000496    -0.000076    -1.627489
	  182 R(12,Y)         =     -0.545716     0.000487     0.000933    -0.544782
	  183 R(12,Z)         =      1.421019     0.000724     0.000536     1.421556
	  184 R(13,X)         =     -2.417816    -0.000790    -0.000486    -2.418302
	  185 R(13,Y)         =      0.425967    -0.000188    -0.000537     0.425430
	  186 R(13,Z)         =     -0.640611    -0.000440    -0.000184    -0.640795
	  187 R(14,X)         =      0.147785     0.000307    -0.000711     0.147073
	  188 R(14,Y)         =     -0.343212     0.000055     0.000487    -0.342725
	  189 R(14,Z)         =     -1.791692    -0.000832    -0.000361    -1.792053
	  190 R(15,X)         =      4.143626     0.001609     0.001183     4.144808
	  191 R(15,Y)         =      0.146905     0.001345     0.000507     0.147411
	  192 R(15,Z)         =     -1.666446     0.000098     0.000490    -1.665956
	  193 R(16,X)         =      3.053384     0.000351     0.000295     3.053679
	  194 R(16,Y)         =     -1.535839    -0.001994    -0.000829    -1.536668
	  195 R(16,Z)         =     -0.292380     0.001399     0.000447    -0.291932
	  196 R(17,X)         =     -3.125349     0.000207     0.000023    -3.125326
	  197 R(17,Y)         =     -0.970704    -0.000175    -0.000193    -0.970896
	  198 R(17,Z)         =      2.888452    -0.000009     0.000015     2.888467
	  199 R(18,X)         =     -4.533494    -0.000636    -0.000399    -4.533893
	  200 R(18,Y)         =      0.741257    -0.000397    -0.000176     0.741080
	  201 R(18,Z)         =     -0.781407    -0.000138    -0.000068    -0.781475
	  202 R(19,X)         =     -0.810755    -0.000245    -0.000076    -0.810832
	  203 R(19,Y)         =     -0.883319     0.000475     0.000169    -0.883150
	  204 R(19,Z)         =      2.038869     0.000194     0.000054     2.038923
	  205 R(20,X)         =     -2.220041    -0.000933    -0.000564    -2.220605
	  206 R(20,Y)         =      0.844649    -0.000822    -0.000633     0.844016
	  207 R(20,Z)         =     -1.617815     0.000212    -0.000034    -1.617849
	  208 R(21,X)         =     -0.720659     0.002026     0.001088    -0.719571
	  209 R(21,Y)         =     -0.914682    -0.001138    -0.001680    -0.916362
	  210 R(21,Z)         =     -2.108151    -0.000133    -0.000119    -2.108270
	  211 R(22,X)         =      0.217672    -0.001732    -0.002285     0.215387
	  212 R(22,Y)         =      0.559996     0.000073     0.000345     0.560341
	  213 R(22,Z)         =     -2.403825    -0.001040    -0.000662    -2.404487
	  214 R(23,X)         =      1.048416    -0.000328     0.001206     1.049622
	  215 R(23,Y)         =     -0.923227     0.007251     0.005039    -0.918188
	  216 R(23,Z)         =     -1.954344     0.004921     0.002424    -1.951920
	  217 R(24,X)         =      3.961896     0.001038     0.000734     3.962630
	  218 R(24,Y)         =      1.040803     0.000421     0.000189     1.040992
	  219 R(24,Z)         =     -2.263867     0.000340     0.000342    -2.263525
	  220 R(25,X)         =      4.963792     0.000508     0.000886     4.964678
	  221 R(25,Y)         =      0.361809     0.000471     0.000166     0.361976
	  222 R(25,Z)         =     -0.960019    -0.000630     0.000150    -0.959869
	  223 R(26,X)         =      3.779999    -0.000272     0.000053     3.780052
	  224 R(26,Y)         =     -1.482698    -0.000425    -0.000268    -1.482966
	  225 R(26,Z)         =      0.535333     0.000589     0.000335     0.535668
	  226 R(27,X)         =      2.090264     0.000002     0.000011     2.090275
	  227 R(27,Y)         =     -1.840024    -0.000962    -0.000455    -1.840478
	  228 R(27,Z)         =      0.119297    -0.000161    -0.000163     0.119134
	  229 R(28,X)         =     -5.002894    -0.000039    -0.000117    -5.003012
	  230 R(28,Y)         =     -0.164961    -0.000216    -0.000101    -0.165063
	  231 R(28,Z)         =      1.480105    -0.000091     0.000077     1.480182
	  232 R(29,X)         =      4.470049     0.000436     0.000509     4.470558
	  233 R(29,Y)         =     -0.648657     0.001301     0.000651    -0.648006
	  234 R(29,Z)         =     -2.336423     0.000468     0.000261    -2.336162
	  235 R(30,X)         =      3.381806     0.000253     0.000232     3.382038
	  236 R(30,Y)         =     -2.304390    -0.000605    -0.000569    -2.304959
	  237 R(30,Z)         =     -0.992415     0.001344     0.000564    -0.991851
	 ---------------------------------------------------------------------------
	Successfully symmetrized geometry.

  ==> Convergence Check <==

  Measures of convergence in internal coordinates in au.
  Criteria marked as inactive (o), active & met (*), and active & unmet ( ).
  --------------------------------------------------------------------------------------------- ~
   Step     Total Energy     Delta E     MAX Force     RMS Force      MAX Disp      RMS Disp    ~
  --------------------------------------------------------------------------------------------- ~
    Convergence Criteria             o    2.50e-03 *    1.70e-03 *    1.00e-02 *    6.70e-03 *  ~
  --------------------------------------------------------------------------------------------- ~
      1    -613.28340860   -6.13e+02 o    8.80e-04 *    1.32e-04 *    9.52e-03 *    1.33e-03 *  ~
  ---------------------------------------------------------------------------------------------


  **** Optimization is complete! (in 1 steps) ****

  ==> Optimization Summary <==

  Measures of convergence in internal coordinates in au.
  --------------------------------------------------------------------------------------------------------------- ~
   Step         Total Energy             Delta E       MAX Force       RMS Force        MAX Disp        RMS Disp  ~
  --------------------------------------------------------------------------------------------------------------- ~
      1    -613.283408601399   -613.283408601399      0.00088009      0.00013224      0.00952169      0.00132901  ~
  --------------------------------------------------------------------------------------------------------------- ~

	Writing optimization data to binary file.
	Final energy is   -613.2834086013989
	Final (previous) structure:
	Cartesian Geometry (in Angstrom)
	    N    -0.0192217577  -0.0158177681  -0.3639720555
	    C     0.9477350322   0.6233963872   0.3850309839
	    C     2.3749145874   0.7845812347  -0.1292328036
	    N     2.9133560565  -0.2594481432  -0.9927843158
	    O     0.6983483652   1.1107103843   1.5048952112
	    H     2.4019062129   1.7303675560  -0.6798646139
	    H     2.9764379749   0.9316328990   0.7797208854
	    C    -1.3649928048  -0.0467480727   0.1438639392
	    C    -3.9884563734  -0.1300650937   1.1070645546
	    C    -2.9330968196  -0.5839950321   1.8969049278
	    C    -3.7253878924   0.3748659005  -0.1627688392
	    C    -1.6274122653  -0.5457155386   1.4210194645
	    C    -2.4178163561   0.4259667716  -0.6406107587
	    C     0.1477847838  -0.3432116272  -1.7916917568
	    C     4.1436255165   0.1469046649  -1.6664460748
	    C     3.0533839841  -1.5358388503  -0.2923796019
	    H    -3.1253488577  -0.9707037904   2.8884519416
	    H    -4.5334939422   0.7412567714  -0.7814066498
	    H    -0.8107552659  -0.8833191074   2.0388691170
	    H    -2.2200409119   0.8446488060  -1.6178152905
	    H    -0.7206587055  -0.9146817613  -2.1081508822
	    H     0.2176717253   0.5599964766  -2.4038245711
	    H     1.0484156077  -0.9232270575  -1.9543441675
	    H     3.9618957062   1.0408034333  -2.2638670119
	    H     4.9637921483   0.3618093023  -0.9600193163
	    H     3.7799992637  -1.4826983131   0.5353331056
	    H     2.0902637884  -1.8400235499   0.1192969968
	    H    -5.0028943091  -0.1649613176   1.4801052921
	    H     4.4700486492  -0.6486568837  -2.3364228831
	    H     3.3818060209  -2.3043903077  -0.9924146870
	Saving final (previous) structure.
	Cleaning optimization helper files.
			--------------------------
			 OPTKING Finished Execution 
			--------------------------

    Final optimized geometry and variables:
    Molecular point group: c1
    Full point group: C1

    Geometry (in Angstrom), charge = 0, multiplicity = 1:

    N           -0.019221757733    -0.015817768179    -0.363972056934
    C            0.947735035875     0.623396389606     0.385030985393
    C            2.374914596751     0.784581237797    -0.129232804150
    N            2.913356067953    -0.259448144189    -0.992784319722
    O            0.698348367987     1.110710388667     1.504895217144
    H            2.401906222376     1.730367562783    -0.679864616522
    H            2.976437986584     0.931632902649     0.779720888456
    C           -1.364992810162    -0.046748072864     0.143863939770
    C           -3.988456389050    -0.130065094201     1.107064558990
    C           -2.933096831172    -0.583995034432     1.896904935304
    C           -3.725387907054     0.374865902016    -0.162768839791
    C           -1.627412271659    -0.545715540711     1.421019470048
    C           -2.417816365568     0.425966773245    -0.640610761268
    C            0.147784784375    -0.343211628508    -1.791691763832
    C            4.143625532800     0.146904665455    -1.666446081363
    C            3.053383996141    -1.535838856319    -0.292379603074
    H           -3.125348869983    -0.970703794236     2.888451952962
    H           -4.533493960012     0.741256774293    -0.781406652888
    H           -0.810755269133    -0.883319110899     2.038869125057
    H           -2.220040920675     0.844648809348    -1.617815296874
    H           -0.720658708308    -0.914681764889    -2.108150890503
    H            0.217671726124     0.559996478822    -2.403824580558
    H            1.048415611855    -0.923227061153    -1.954344175132
    H            3.961895721814     1.040803437430    -2.263867020837
    H            4.963792167808     0.361809303704    -0.960019320036
    H            3.779999278554    -1.482698318903     0.535333107684
    H            2.090263796604    -1.840023557148     0.119296997313
    H           -5.002894328765    -0.164961318246     1.480105297909
    H            4.470048666755    -0.648656886220    -2.336422892304
    H            3.381806034189    -2.304390316750    -0.992414690876

	Removing binary optimization data file.
	Cleaning optimization helper files.

    Psi4 stopped on: Wednesday, 08 June 2022 02:18PM
    Psi4 wall time for execution: 0:28:51.23

*** Psi4 exiting successfully. Buy a developer a beer!
