
    -----------------------------------------------------------------------
          Psi4: An Open-Source Ab Initio Electronic Structure Package
                               Psi4 1.6 release

                         Git: Rev {HEAD} 77475b5 


    D. G. A. Smith, L. A. Burns, A. C. Simmonett, R. M. Parrish,
    M. C. Schieber, R. Galvelis, P. Kraus, H. Kruse, R. Di Remigio,
    A. Alenaizan, A. M. James, S. Lehtola, J. P. Misiewicz, M. Scheurer,
    R. A. Shaw, J. B. Schriber, Y. Xie, Z. L. Glick, D. A. Sirianni,
    J. S. O'Brien, J. M. Waldrop, A. Kumar, E. G. Hohenstein,
    B. P. Pritchard, B. R. Brooks, H. F. Schaefer III, A. Yu. Sokolov,
    K. Patkowski, A. E. DePrince III, U. Bozkaya, R. A. King,
    F. A. Evangelista, J. M. Turney, T. D. Crawford, C. D. Sherrill,
    J. Chem. Phys. 152(18) 184108 (2020). https://doi.org/10.1063/5.0006002

                            Additional Code Authors
    E. T. Seidl, C. L. Janssen, E. F. Valeev, M. L. Leininger,
    J. F. Gonthier, R. M. Richard, H. R. McAlexander, M. Saitow, X. Wang,
    P. Verma, M. H. Lechner, and A. Jiang

             Previous Authors, Complete List of Code Contributors,
                       and Citations for Specific Modules
    https://github.com/psi4/psi4/blob/master/codemeta.json
    https://github.com/psi4/psi4/graphs/contributors
    http://psicode.org/psi4manual/master/introduction.html#citing-psifour

    -----------------------------------------------------------------------


    Psi4 started on: Saturday, 18 November 2023 08:48AM

    Process ID: 1134908
    Host:       node165.bme.utexas.edu
    PSIDATADIR: /home/liuchw/anaconda3/envs/poltype2022/share/psi4
    Memory:     500.0 MiB
    Threads:    1
    
  ==> Input File <==

--------------------------------------------------------------------------
molecule { 
0 1
 N    1.838311   -0.490567    0.749371
 C    0.598610   -0.193445    0.298254
 C   -0.259762   -1.335349   -0.074316
 C   -1.645168   -1.231412   -0.214202
 C    0.235866    1.147298    0.310723
 C    0.318222   -2.562641   -0.425016
 H    2.439607    0.328002    0.888252
 C   -0.986406    1.869123    0.066449
 N    0.586372    3.379284    0.537485
 C    1.230723    2.179509    0.626601
 C   -0.738457    3.187017    0.206822
 C   -0.446884   -3.627111   -0.859665
 C   -2.412286   -2.297083   -0.645159
 C   -1.819852   -3.501954   -0.978892
 H    1.387589   -2.708753   -0.383028
 H   -2.147952   -0.333224    0.090062
 H    1.027735    4.266381    0.710808
 O    2.427633    2.066208    0.908481
 H    0.035988   -4.558456   -1.117689
 H   -3.483265   -2.181302   -0.725140
 H   -2.417695   -4.331381   -1.325378
 H   -1.937137    1.477808   -0.227572
 H   -1.404753    4.021580    0.103386
 H    2.297348   -1.332122    0.450204
}
memory 20GB
set_num_threads(5)
psi4_io.set_default_path("/scratch/liuchw/Psi4-7_11_Index_0-farH_in17")
set freeze_core True
E, wfn = energy('wb97x-d/6-311+G*',return_wfn=True)
oeprop(wfn,"WIBERG_LOWDIN_INDICES")
clean()
--------------------------------------------------------------------------

  Memory set to  18.626 GiB by Python driver.
  Threads set to 5 by Python driver.

Scratch directory: /scratch/liuchw/Psi4-7_11_Index_0-farH_in17/

*** tstart() called on node165.bme.utexas.edu
*** at Sat Nov 18 08:48:03 2023

   => Loading Basis Set <=

    Name: 6-311+G*
    Role: ORBITAL
    Keyword: BASIS
    atoms 1, 9            entry N          line   151 file /home/liuchw/anaconda3/envs/poltype2022/share/psi4/basis/6-311pgs.gbs 
    atoms 2-6, 8, 10-14   entry C          line   130 file /home/liuchw/anaconda3/envs/poltype2022/share/psi4/basis/6-311pgs.gbs 
    atoms 7, 15-17, 19-24 entry H          line    47 file /home/liuchw/anaconda3/envs/poltype2022/share/psi4/basis/6-311pgs.gbs 
    atoms 18              entry O          line   172 file /home/liuchw/anaconda3/envs/poltype2022/share/psi4/basis/6-311pgs.gbs 

   => WB97X-D: Empirical Dispersion <=

    Chai and Head-Gordon Dispersion Correction
    Chai, J.-D.; Head-Gordon, M. (2010), J. Chem. Phys., 132: 6615-6620

        s6 =       1.000000


         ---------------------------------------------------------
                                   SCF
               by Justin Turney, Rob Parrish, Andy Simmonett
                          and Daniel G. A. Smith
                              RKS Reference
                        5 Threads,  19073 MiB Core
         ---------------------------------------------------------

  ==> Geometry <==

    Molecular point group: c1
    Full point group: C1

    Geometry (in Angstrom), charge = 0, multiplicity = 1:

       Center              X                  Y                   Z               Mass       
    ------------   -----------------  -----------------  -----------------  -----------------
         N            1.852054332788    -0.446036633915     0.691642450457    14.003074004430
         C            0.612353332788    -0.148914633915     0.240525450457    12.000000000000
         C           -0.246018667212    -1.290818633915    -0.132044549543    12.000000000000
         C           -1.631424667212    -1.186881633915    -0.271930549543    12.000000000000
         C            0.249609332788     1.191828366085     0.252994450457    12.000000000000
         C            0.331965332788    -2.518110633915    -0.482744549543    12.000000000000
         H            2.453350332788     0.372532366085     0.830523450457     1.007825032230
         C           -0.972662667212     1.913653366085     0.008720450457    12.000000000000
         N            0.600115332788     3.423814366085     0.479756450457    14.003074004430
         C            1.244466332788     2.224039366085     0.568872450457    12.000000000000
         C           -0.724713667212     3.231547366085     0.149093450457    12.000000000000
         C           -0.433140667212    -3.582580633915    -0.917393549543    12.000000000000
         C           -2.398542667212    -2.252552633915    -0.702887549543    12.000000000000
         C           -1.806108667212    -3.457423633915    -1.036620549543    12.000000000000
         H            1.401332332788    -2.664222633915    -0.440756549543     1.007825032230
         H           -2.134208667212    -0.288693633915     0.032333450457     1.007825032230
         H            1.041478332788     4.310911366085     0.653079450457     1.007825032230
         O            2.441376332788     2.110738366085     0.850752450457    15.994914619570
         H            0.049731332788    -4.513925633915    -1.175417549543     1.007825032230
         H           -3.469521667212    -2.136771633915    -0.782868549543     1.007825032230
         H           -2.403951667212    -4.286850633915    -1.383106549543     1.007825032230
         H           -1.923393667212     1.522338366085    -0.285300549543     1.007825032230
         H           -1.391009667212     4.066110366085     0.045657450457     1.007825032230
         H            2.311091332788    -1.287591633915     0.392475450457     1.007825032230

  Running in c1 symmetry.

  Rotational constants: A =      0.05681  B =      0.01407  C =      0.01137 [cm^-1]
  Rotational constants: A =   1703.19163  B =    421.94234  C =    340.93919 [MHz]
  Nuclear repulsion =  818.729955949485770

  Charge       = 0
  Multiplicity = 1
  Electrons    = 98
  Nalpha       = 49
  Nbeta        = 49

  ==> Algorithm <==

  SCF Algorithm Type is DF.
  DIIS enabled.
  MOM disabled.
  Fractional occupation disabled.
  Guess Type is SAD.
  Energy threshold   = 1.00e-06
  Density threshold  = 1.00e-06
  Integral threshold = 1.00e-12

  ==> Primary Basis <==

  Basis Set: 6-311+G*
    Blend: 6-311+G*
    Number of shells: 170
    Number of basis functions: 338
    Number of Cartesian functions: 352
    Spherical Harmonics?: true
    Max angular momentum: 2

  ==> DFT Potential <==

   => LibXC <=

    Version 5.1.5
    S. Lehtola, C. Steigemann, M. J. Oliveira, and M. A. Marques, SoftwareX 7, 1 (2018) (10.1016/j.softx.2017.11.002)

   => Composite Functional: WB97X-D <= 

    wB97X-D Hyb-GGA Exchange-Correlation Functional

    J.-D. Chai and M. Head-Gordon, Phys. Chem. Chem. Phys. 10, 6615 (2008) (10.1039/B810189B)

    Deriv               =              1
    GGA                 =           TRUE
    Meta                =          FALSE

    Exchange Hybrid     =           TRUE
    MP2 Hybrid          =          FALSE

   => Exchange-Correlation Functionals <=

    1.0000   wB97X-D range-separated functional

   => Exact (HF) Exchange <=

    0.7780            HF,LR [omega = 0.2000]
    0.2220               HF 

   => LibXC Density Thresholds  <==

    XC_HYB_GGA_XC_WB97X_D:  1.00E-14 

   => Molecular Quadrature <=

    Radial Scheme          =       TREUTLER
    Pruning Scheme         =           NONE
    Nuclear Scheme         =       TREUTLER

    Blocking Scheme        =         OCTREE
    BS radius alpha        =              1
    Pruning alpha          =              1
    Radial Points          =             75
    Spherical Points       =            302
    Total Points           =         501805
    Total Blocks           =           3635
    Max Points             =            256
    Max Functions          =            288
    Weights Tolerance      =       1.00E-15

   => Loading Basis Set <=

    Name: (6-311+G* AUX)
    Role: JKFIT
    Keyword: DF_BASIS_SCF
    atoms 1, 9            entry N          line   262 file /home/liuchw/anaconda3/envs/poltype2022/share/psi4/basis/heavy-aug-cc-pvtz-jkfit.gbs 
    atoms 2-6, 8, 10-14   entry C          line   200 file /home/liuchw/anaconda3/envs/poltype2022/share/psi4/basis/heavy-aug-cc-pvtz-jkfit.gbs 
    atoms 7, 15-17, 19-24 entry H          line   116 file /home/liuchw/anaconda3/envs/poltype2022/share/psi4/basis/heavy-aug-cc-pvtz-jkfit.gbs 
    atoms 18              entry O          line   324 file /home/liuchw/anaconda3/envs/poltype2022/share/psi4/basis/heavy-aug-cc-pvtz-jkfit.gbs 

  ==> Integral Setup <==

  DFHelper Memory: AOs need 3.970 GiB; user supplied 10.898 GiB. Using in-core AOs.

  ==> MemDFJK: Density-Fitted J/K Matrices <==

    J tasked:                   Yes
    K tasked:                   Yes
    wK tasked:                  Yes
    Omega:                2.000E-01
    OpenMP threads:               5
    Memory [MiB]:             11159
    Algorithm:                 Core
    Schwarz Cutoff:           1E-12
    Mask sparsity (%):      12.5748
    Fitting Condition:        1E-10

   => Auxiliary Basis Set <=

  Basis Set: (6-311+G* AUX)
    Blend: HEAVY-AUG-CC-PVTZ-JKFIT
    Number of shells: 520
    Number of basis functions: 1756
    Number of Cartesian functions: 2184
    Spherical Harmonics?: true
    Max angular momentum: 4

  Cached 100.0% of DFT collocation blocks in 3.072 [GiB].

  Minimum eigenvalue in the overlap matrix is 6.6178886062E-07.
  Reciprocal condition number of the overlap matrix is 4.4924338305E-08.
    Using symmetric orthogonalization.

  ==> Pre-Iterations <==

  SCF Guess: Superposition of Atomic Densities via on-the-fly atomic UHF (no occupation information).

   -------------------------
    Irrep   Nso     Nmo    
   -------------------------
     A        338     338 
   -------------------------
    Total     338     338
   -------------------------

  ==> Iterations <==

                           Total Energy        Delta E     RMS |[F,P]|

   @DF-RKS iter SAD:  -609.67431823530853   -6.09674e+02   0.00000e+00 
   @DF-RKS iter   1:  -609.22768214292171    4.46636e-01   3.36440e-03 ADIIS/DIIS
   @DF-RKS iter   2:  -609.49714169146489   -2.69460e-01   2.70268e-03 ADIIS/DIIS
   @DF-RKS iter   3:  -609.84020340119162   -3.43062e-01   3.82966e-04 ADIIS/DIIS
   @DF-RKS iter   4:  -609.84495592204064   -4.75252e-03   2.03850e-04 ADIIS/DIIS
   @DF-RKS iter   5:  -609.84673315782561   -1.77724e-03   4.42763e-05 DIIS
   @DF-RKS iter   6:  -609.84682637491494   -9.32171e-05   1.40655e-05 DIIS
   @DF-RKS iter   7:  -609.84683828558968   -1.19107e-05   3.06045e-06 DIIS
   @DF-RKS iter   8:  -609.84683939927675   -1.11369e-06   1.76035e-06 DIIS
   @DF-RKS iter   9:  -609.84683976022939   -3.60953e-07   6.63219e-07 DIIS
  Energy and wave function converged.


  ==> Post-Iterations <==

   Electrons on quadrature grid:
      Ntotal   =   98.0001365467 ; deviation = 1.365e-04 

    Orbital Energies [Eh]
    ---------------------

    Doubly Occupied:                                                      

       1A    -19.205861     2A    -14.462984     3A    -14.445919  
       4A    -10.374846     5A    -10.363220     6A    -10.319928  
       7A    -10.313355     8A    -10.309218     9A    -10.304120  
      10A    -10.304023    11A    -10.303257    12A    -10.301933  
      13A    -10.282604    14A    -10.275521    15A     -1.140376  
      16A     -1.059798    17A     -1.046488    18A     -0.980994  
      19A     -0.898701    20A     -0.876730    21A     -0.868087  
      22A     -0.820504    23A     -0.768613    24A     -0.729032  
      25A     -0.713946    26A     -0.690945    27A     -0.666230  
      28A     -0.637193    29A     -0.604037    30A     -0.596332  
      31A     -0.580235    32A     -0.563120    33A     -0.543976  
      34A     -0.532445    35A     -0.530080    36A     -0.516241  
      37A     -0.508485    38A     -0.499337    39A     -0.491117  
      40A     -0.479355    41A     -0.453543    42A     -0.448485  
      43A     -0.437240    44A     -0.413042    45A     -0.351665  
      46A     -0.347793    47A     -0.338764    48A     -0.333565  
      49A     -0.258999  

    Virtual:                                                              

      50A     -0.007779    51A      0.041988    52A      0.053243  
      53A      0.062189    54A      0.066603    55A      0.074069  
      56A      0.077250    57A      0.086270    58A      0.096502  
      59A      0.099268    60A      0.101629    61A      0.111090  
      62A      0.112351    63A      0.119263    64A      0.128498  
      65A      0.130669    66A      0.133072    67A      0.136769  
      68A      0.151614    69A      0.158072    70A      0.167190  
      71A      0.170826    72A      0.170941    73A      0.176730  
      74A      0.183304    75A      0.188121    76A      0.193021  
      77A      0.198661    78A      0.202474    79A      0.207318  
      80A      0.210592    81A      0.213025    82A      0.219838  
      83A      0.223504    84A      0.224693    85A      0.228361  
      86A      0.237467    87A      0.244387    88A      0.248297  
      89A      0.250360    90A      0.257051    91A      0.260247  
      92A      0.264801    93A      0.268219    94A      0.269927  
      95A      0.273439    96A      0.281784    97A      0.285830  
      98A      0.286491    99A      0.293276   100A      0.297896  
     101A      0.301238   102A      0.302059   103A      0.308539  
     104A      0.311014   105A      0.316481   106A      0.319672  
     107A      0.322607   108A      0.327030   109A      0.331048  
     110A      0.343768   111A      0.346757   112A      0.348428  
     113A      0.352437   114A      0.358440   115A      0.369187  
     116A      0.370128   117A      0.377569   118A      0.391100  
     119A      0.396514   120A      0.400747   121A      0.408685  
     122A      0.410220   123A      0.416797   124A      0.428386  
     125A      0.432035   126A      0.440903   127A      0.450265  
     128A      0.463319   129A      0.484587   130A      0.503043  
     131A      0.518438   132A      0.529140   133A      0.554129  
     134A      0.569131   135A      0.579196   136A      0.592503  
     137A      0.601283   138A      0.605951   139A      0.615609  
     140A      0.619469   141A      0.629124   142A      0.645063  
     143A      0.649563   144A      0.654377   145A      0.656782  
     146A      0.668950   147A      0.682651   148A      0.688817  
     149A      0.704159   150A      0.707283   151A      0.714436  
     152A      0.725970   153A      0.730313   154A      0.736640  
     155A      0.753404   156A      0.755506   157A      0.764413  
     158A      0.775333   159A      0.787790   160A      0.790727  
     161A      0.802844   162A      0.812288   163A      0.830153  
     164A      0.836180   165A      0.848101   166A      0.855943  
     167A      0.873390   168A      0.876455   169A      0.890286  
     170A      0.909553   171A      0.915147   172A      0.919883  
     173A      0.928661   174A      0.932703   175A      0.941048  
     176A      0.953217   177A      0.962032   178A      0.968369  
     179A      0.978727   180A      0.983208   181A      0.994261  
     182A      0.996869   183A      1.007857   184A      1.017476  
     185A      1.028208   186A      1.047588   187A      1.078874  
     188A      1.085285   189A      1.102435   190A      1.106254  
     191A      1.127504   192A      1.138332   193A      1.146765  
     194A      1.169576   195A      1.185270   196A      1.190244  
     197A      1.199035   198A      1.230868   199A      1.252321  
     200A      1.269014   201A      1.281629   202A      1.293773  
     203A      1.314114   204A      1.323918   205A      1.328661  
     206A      1.338362   207A      1.373526   208A      1.378102  
     209A      1.416050   210A      1.430539   211A      1.449449  
     212A      1.498149   213A      1.549567   214A      1.566333  
     215A      1.589324   216A      1.592833   217A      1.609859  
     218A      1.640210   219A      1.649879   220A      1.712994  
     221A      1.716220   222A      1.743107   223A      1.776762  
     224A      1.826041   225A      1.840867   226A      1.845851  
     227A      1.870187   228A      1.889325   229A      1.890772  
     230A      1.903776   231A      1.920121   232A      1.938939  
     233A      1.954085   234A      1.963518   235A      1.971021  
     236A      2.005233   237A      2.014882   238A      2.021951  
     239A      2.045925   240A      2.050911   241A      2.071204  
     242A      2.085726   243A      2.093383   244A      2.125579  
     245A      2.145020   246A      2.249017   247A      2.267289  
     248A      2.271561   249A      2.320956   250A      2.332006  
     251A      2.340543   252A      2.347361   253A      2.356631  
     254A      2.379448   255A      2.388617   256A      2.417154  
     257A      2.450329   258A      2.475599   259A      2.489425  
     260A      2.499148   261A      2.511270   262A      2.529870  
     263A      2.577948   264A      2.661080   265A      2.711846  
     266A      2.737211   267A      2.759776   268A      2.766638  
     269A      2.788045   270A      2.795099   271A      2.817522  
     272A      2.843461   273A      2.870665   274A      2.887842  
     275A      2.892850   276A      2.898481   277A      2.946013  
     278A      2.964579   279A      2.999527   280A      3.009294  
     281A      3.034446   282A      3.089340   283A      3.096848  
     284A      3.127144   285A      3.138225   286A      3.155833  
     287A      3.179381   288A      3.224537   289A      3.282556  
     290A      3.304647   291A      3.317860   292A      3.400667  
     293A      3.412027   294A      3.416301   295A      3.422604  
     296A      3.439070   297A      3.458715   298A      3.463374  
     299A      3.517767   300A      3.551826   301A      3.566207  
     302A      3.605153   303A      3.653912   304A      3.663942  
     305A      3.679382   306A      3.735224   307A      3.785723  
     308A      3.866867   309A      3.983306   310A      3.996998  
     311A      4.022127   312A      4.032259   313A      4.131116  
     314A      4.170339   315A      4.321006   316A      4.371851  
     317A      4.608180   318A      4.699089   319A      4.889815  
     320A      4.917506   321A      5.170918   322A      5.193240  
     323A      5.398380   324A      5.925929   325A     23.464004  
     326A     23.730422   327A     23.936498   328A     23.974706  
     329A     24.031195   330A     24.052522   331A     24.164597  
     332A     24.203662   333A     24.212896   334A     24.299587  
     335A     24.305747   336A     35.670318   337A     35.687179  
     338A     50.217651  

    Final Occupation by Irrep:
              A 
    DOCC [    49 ]

  @DF-RKS Final Energy:  -609.84683976022939

   => Energetics <=

    Nuclear Repulsion Energy =            818.7299559494857704
    One-Electron Energy =               -2450.2448762238614108
    Two-Electron Energy =                1081.0186437592128641
    DFT Exchange-Correlation Energy =     -59.3367886275925827
    Empirical Dispersion Energy =          -0.0137746174739998
    VV10 Nonlocal Energy =                  0.0000000000000000
    Total Energy =                       -609.8468397602292725

Computation Completed


Properties will be evaluated at   0.000000,   0.000000,   0.000000 [a0]

Properties computed using the SCF density matrix


 Multipole Moments:

 ------------------------------------------------------------------------------------
     Multipole            Electronic (a.u.)      Nuclear  (a.u.)        Total (a.u.)
 ------------------------------------------------------------------------------------

 L = 1.  Multiply by 2.5417464519 to convert [e a0] to [Debye]
 Dipole X            :          2.8885359           -3.8063003           -0.9177645
 Dipole Y            :          3.9545110           -4.5978853           -0.6433743
 Dipole Z            :          1.4226436           -1.9805442           -0.5579006
 Magnitude           :                                                    1.2519885

 ------------------------------------------------------------------------------------

*** tstop() called on node165.bme.utexas.edu at Sat Nov 18 08:48:25 2023
Module time:
	user time   =      98.24 seconds =       1.64 minutes
	system time =       3.51 seconds =       0.06 minutes
	total time  =         22 seconds =       0.37 minutes
Total time:
	user time   =      98.24 seconds =       1.64 minutes
	system time =       3.51 seconds =       0.06 minutes
	total time  =         22 seconds =       0.37 minutes


Properties will be evaluated at   0.000000,   0.000000,   0.000000 [a0]
OEProp: No title given, name of density matrix used for the following properties is 'SCF density'


  Wiberg Bond Indices using Orthogonal Lowdin Orbitals:

  Irrep: 1 Size: 24 x 24

                 1                   2                   3                   4                   5

    1     0.00000000000000     1.47786920969387     0.11265628499847     0.02509773617110     0.18758016237160
    2     1.47786920969387     0.00000000000000     1.04783601682988     0.11323862066675     1.41516743030646
    3     0.11265628499847     1.04783601682988     0.00000000000000     1.40441882643399     0.10560493386556
    4     0.02509773617110     0.11323862066675     1.40441882643399     0.00000000000000     0.04255239532122
    5     0.18758016237160     1.41516743030646     0.10560493386556     0.04255239532122     0.00000000000000
    6     0.06605233710134     0.11527335496403     1.39299421207247     0.13080515445003     0.03252349923267
    7     0.75473665224300     0.04514451105290     0.00888128809897     0.00120221636816     0.01615875773594
    8     0.02184724045022     0.10728968629327     0.02441687280329     0.04637426022320     1.17091584844660
    9     0.00579159734659     0.01697670354007     0.00270498559779     0.00177015916154     0.13173721662786
   10     0.07302976352576     0.13271817109435     0.01467990632165     0.00578857492952     1.08440201883353
   11     0.03031318630394     0.07137738766974     0.00468553590823     0.00786650510118     0.16728407608846
   12     0.00600633032622     0.01690120375022     0.13205889793599     0.14230140986736     0.00345361047448
   13     0.00357116504272     0.01650839500271     0.13333762979616     1.52581491930033     0.00446352272141
   14     0.00576313226196     0.00970502261422     0.13490084390258     0.14037939934590     0.01057241770878
   15     0.01968858126730     0.01583833573360     0.05279182201127     0.01000993887922     0.00105396062866
   16     0.00037910763307     0.01398590282134     0.05372057014575     0.80266768872887     0.00855092714474
   17     0.00036529097740     0.00149065873121     0.00043335667254     0.00018487301983     0.01132419464967
   18     0.13347609841349     0.08096921780826     0.00464258026562     0.00441073400879     0.14056930573715
   19     0.00024548658183     0.00114811527447     0.01063796843795     0.00271809959174     0.00032331814884
   20     0.00027964273193     0.00109690282107     0.01075063159826     0.06109385809818     0.00017035933792
   21     0.00013360214737     0.00031476042026     0.00265619278179     0.01108038696525     0.00007170641384
   22     0.00021888598858     0.00904393197120     0.00509462968202     0.01737292842471     0.04824036488256
   23     0.00041469083804     0.00160999394937     0.00022998423222     0.00026980682549     0.01364277628465
   24     0.83485928899599     0.04879915769795     0.01347257129834     0.00093134019808     0.01279767048020

                 6                   7                   8                   9                  10

    1     0.06605233710134     0.75473665224300     0.02184724045022     0.00579159734659     0.07302976352576
    2     0.11527335496403     0.04514451105290     0.10728968629327     0.01697670354007     0.13271817109435
    3     1.39299421207247     0.00888128809897     0.02441687280329     0.00270498559779     0.01467990632165
    4     0.13080515445003     0.00120221636816     0.04637426022320     0.00177015916154     0.00578857492952
    5     0.03252349923267     0.01615875773594     1.17091584844660     0.13173721662786     1.08440201883353
    6     0.00000000000000     0.00214512089570     0.00318545325167     0.00055115498670     0.00543295432466
    7     0.00214512089570     0.00000000000000     0.00145870622387     0.00170148074263     0.01737855276647
    8     0.00318545325167     0.00145870622387     0.00000000000000     0.20283925340908     0.13850752915210
    9     0.00055115498670     0.00170148074263     0.20283925340908     0.00000000000000     1.33866565334954
   10     0.00543295432466     0.01737855276647     0.13850752915210     1.33866565334954     0.00000000000000
   11     0.00469146260168     0.00058600533426     1.78129307754068     1.29074297494242     0.14474914692378
   12     1.53385700058989     0.00016942696582     0.00117227325029     0.00019446830708     0.00078324786458
   13     0.14322046618468     0.00033295631766     0.00507311231807     0.00021294311502     0.00048876077426
   14     0.14009156722589     0.00019496862374     0.00145420679615     0.00011453302308     0.00236525671023
   15     0.81034206263804     0.00029877188747     0.00019679982653     0.00009021912045     0.00024957541022
   16     0.00986500369663     0.00004959413512     0.02085120228199     0.00049076065551     0.00041088336237
   17     0.00007869769911     0.00012388984082     0.01116049248950     0.80355284018842     0.04402202205170
   18     0.00533300060878     0.07766645272908     0.02230951794754     0.21613850876607     2.06137999306478
   19     0.06137118782755     0.00001848350564     0.00007449616826     0.00001882602419     0.00006664746549
   20     0.00256639128392     0.00001787095728     0.00018734531838     0.00001628955029     0.00003541448626
   21     0.01111316096575     0.00000772887111     0.00010409956004     0.00000675107840     0.00002177728428
   22     0.00023710988167     0.00005798711886     0.81583129536239     0.01093874742811     0.01035288126011
   23     0.00006250944764     0.00022856782573     0.05867990600091     0.05679259994989     0.01261175119938
   24     0.01650163978544     0.01183319332844     0.00131371150982     0.00019954547554     0.00296096444439

                11                  12                  13                  14                  15

    1     0.03031318630394     0.00600633032622     0.00357116504272     0.00576313226196     0.01968858126730
    2     0.07137738766974     0.01690120375022     0.01650839500271     0.00970502261422     0.01583833573360
    3     0.00468553590823     0.13205889793599     0.13333762979616     0.13490084390258     0.05279182201127
    4     0.00786650510118     0.14230140986736     1.52581491930033     0.14037939934590     0.01000993887922
    5     0.16728407608846     0.00345361047448     0.00446352272141     0.01057241770878     0.00105396062866
    6     0.00469146260168     1.53385700058989     0.14322046618468     0.14009156722589     0.81034206263804
    7     0.00058600533426     0.00016942696582     0.00033295631766     0.00019496862374     0.00029877188747
    8     1.78129307754068     0.00117227325029     0.00507311231807     0.00145420679615     0.00019679982653
    9     1.29074297494242     0.00019446830708     0.00021294311502     0.00011453302308     0.00009021912045
   10     0.14474914692378     0.00078324786458     0.00048876077426     0.00236525671023     0.00024957541022
   11     0.00000000000000     0.00039725214316     0.00066990217620     0.00290454854713     0.00006738460722
   12     0.00039725214316     0.00000000000000     0.14078284434426     1.51325816487740     0.05739265577870
   13     0.00066990217620     0.14078284434426     0.00000000000000     1.51674907070506     0.00234323206422
   14     0.00290454854713     1.51325816487740     1.51674907070506     0.00000000000000     0.01043832113552
   15     0.00006738460722     0.05739265577870     0.00234323206422     0.01043832113552     0.00000000000000
   16     0.00191284093534     0.00227380054665     0.05660608023854     0.01014570453720     0.00042111252435
   17     0.04305585419361     0.00002908895040     0.00002773058356     0.00001595699893     0.00000378246173
   18     0.02540240365779     0.00050213824721     0.00044620378809     0.00315207696574     0.00041681488502
   19     0.00002900109242     0.83058570096404     0.01146673148800     0.05939416640238     0.00593878068218
   20     0.00004100003918     0.01148796534765     0.83070291522023     0.05951366166339     0.00025343642708
   21     0.00001943122551     0.05999152035434     0.05982841036061     0.83334191672162     0.00020076924659
   22     0.06145999377325     0.00018390183759     0.00179586683408     0.00020061092602     0.00002286910041
   23     0.83249746666205     0.00001506555649     0.00002549992179     0.00001221974694     0.00000687639633
   24     0.00121061517072     0.00176369998077     0.00023723599381     0.00042511918693     0.00692550039988

                16                  17                  18                  19                  20

    1     0.00037910763307     0.00036529097740     0.13347609841349     0.00024548658183     0.00027964273193
    2     0.01398590282134     0.00149065873121     0.08096921780826     0.00114811527447     0.00109690282107
    3     0.05372057014575     0.00043335667254     0.00464258026562     0.01063796843795     0.01075063159826
    4     0.80266768872887     0.00018487301983     0.00441073400879     0.00271809959174     0.06109385809818
    5     0.00855092714474     0.01132419464967     0.14056930573715     0.00032331814884     0.00017035933792
    6     0.00986500369663     0.00007869769911     0.00533300060878     0.06137118782755     0.00256639128392
    7     0.00004959413512     0.00012388984082     0.07766645272908     0.00001848350564     0.00001787095728
    8     0.02085120228199     0.01116049248950     0.02230951794754     0.00007449616826     0.00018734531838
    9     0.00049076065551     0.80355284018842     0.21613850876607     0.00001882602419     0.00001628955029
   10     0.00041088336237     0.04402202205170     2.06137999306478     0.00006664746549     0.00003541448626
   11     0.00191284093534     0.04305585419361     0.02540240365779     0.00002900109242     0.00004100003918
   12     0.00227380054665     0.00002908895040     0.00050213824721     0.83058570096404     0.01148796534765
   13     0.05660608023854     0.00002773058356     0.00044620378809     0.01146673148800     0.83070291522023
   14     0.01014570453720     0.00001595699893     0.00315207696574     0.05939416640238     0.05951366166339
   15     0.00042111252435     0.00000378246173     0.00041681488502     0.00593878068218     0.00025343642708
   16     0.00000000000000     0.00002941516032     0.00013275208302     0.00022438132028     0.00584558586467
   17     0.00002941516032     0.00000000000000     0.01108678336902     0.00000105247330     0.00000182499838
   18     0.00013275208302     0.01108678336902     0.00000000000000     0.00002384311592     0.00002139100120
   19     0.00022438132028     0.00000105247330     0.00002384311592     0.00000000000000     0.00026846472031
   20     0.00584558586467     0.00000182499838     0.00002139100120     0.00026846472031     0.00000000000000
   21     0.00022287400339     0.00000032828278     0.00000666741720     0.00528910938985     0.00525445838427
   22     0.00779232631069     0.00040881948509     0.00219281510785     0.00001914522226     0.00007167457602
   23     0.00003506633927     0.00311310712939     0.00160254159787     0.00000111975573     0.00000426396233
   24     0.00004631251897     0.00002100465081     0.00156317061688     0.00002963596833     0.00007731672653

                21                  22                  23                  24

    1     0.00013360214737     0.00021888598858     0.00041469083804     0.83485928899599
    2     0.00031476042026     0.00904393197120     0.00160999394937     0.04879915769795
    3     0.00265619278179     0.00509462968202     0.00022998423222     0.01347257129834
    4     0.01108038696525     0.01737292842471     0.00026980682549     0.00093134019808
    5     0.00007170641384     0.04824036488256     0.01364277628465     0.01279767048020
    6     0.01111316096575     0.00023710988167     0.00006250944764     0.01650163978544
    7     0.00000772887111     0.00005798711886     0.00022856782573     0.01183319332844
    8     0.00010409956004     0.81583129536239     0.05867990600091     0.00131371150982
    9     0.00000675107840     0.01093874742811     0.05679259994989     0.00019954547554
   10     0.00002177728428     0.01035288126011     0.01261175119938     0.00296096444439
   11     0.00001943122551     0.06145999377325     0.83249746666205     0.00121061517072
   12     0.05999152035434     0.00018390183759     0.00001506555649     0.00176369998077
   13     0.05982841036061     0.00179586683408     0.00002549992179     0.00023723599381
   14     0.83334191672162     0.00020061092602     0.00001221974694     0.00042511918693
   15     0.00020076924659     0.00002286910041     0.00000687639633     0.00692550039988
   16     0.00022287400339     0.00779232631069     0.00003506633927     0.00004631251897
   17     0.00000032828278     0.00040881948509     0.00311310712939     0.00002100465081
   18     0.00000666741720     0.00219281510785     0.00160254159787     0.00156317061688
   19     0.00528910938985     0.00001914522226     0.00000111975573     0.00002963596833
   20     0.00525445838427     0.00007167457602     0.00000426396233     0.00007731672653
   21     0.00000000000000     0.00002414750051     0.00000068514990     0.00001837650574
   22     0.00002414750051     0.00000000000000     0.00298264083636     0.00005820837877
   23     0.00000068514990     0.00298264083636     0.00000000000000     0.00002234488215
   24     0.00001837650574     0.00005820837877     0.00002234488215     0.00000000000000



  Atomic Valences: 

 #  #
 Irrep: 1
      1:    3.760375473411802
      2:    4.760302690707189
      3:    4.673606541690798
      4:    4.498349832080446
      5:    4.609160473442805
      6:    4.488294501715939
      7:    0.940393183568656
      8:    4.436536386623846
      9:    4.082248212386290
     10:    5.091101446599413
     11:    4.473257052637952
     12:    4.455561668260603
     13:    4.454705594291500
     14:    4.455092886626780
     15:    0.994991603111997
     16:    0.996659892988094
     17:    0.930531065057530
     18:    2.793445011202355
     19:    0.989893761620974
     20:    0.989758665114754
     21:    0.989708861030393
     22:    0.994601781889112
     23:    0.984861484489935
     24:    0.956067624194486


    Psi4 stopped on: Saturday, 18 November 2023 08:48AM
    Psi4 wall time for execution: 0:00:21.73

*** Psi4 exiting successfully. Buy a developer a beer!
