      -----------------------------------------------------------      
     |                   =====================                   |     
     |                           x T B                           |     
     |                   =====================                   |     
     |                         S. Grimme                         |     
     |          Mulliken Center for Theoretical Chemistry        |     
     |                    University of Bonn                     |     
      -----------------------------------------------------------      

   * xtb version 6.5.0 (97a52f5) compiled by 'conda@d2599ee0d4f4' on 2022-05-15

   xtb is free software: you can redistribute it and/or modify it under
   the terms of the GNU Lesser General Public License as published by
   the Free Software Foundation, either version 3 of the License, or
   (at your option) any later version.
   
   xtb is distributed in the hope that it will be useful,
   but WITHOUT ANY WARRANTY; without even the implied warranty of
   MERCHANTABILITY or FITNESS FOR A PARTICULAR PURPOSE.  See the
   GNU Lesser General Public License for more details.
   
   Cite this work as:
   * C. Bannwarth, E. Caldeweyher, S. Ehlert, A. Hansen, P. Pracht,
     J. Seibert, S. Spicher, S. Grimme, WIREs Comput. Mol. Sci., 2020, 11,
     e01493. DOI: 10.1002/wcms.1493
   
   for GFN2-xTB:
   * C. Bannwarth, S. Ehlert and S. Grimme., J. Chem. Theory Comput., 2019,
     15, 1652-1671. DOI: 10.1021/acs.jctc.8b01176
   for GFN1-xTB:
   * S. Grimme, C. Bannwarth, P. Shushkov, J. Chem. Theory Comput., 2017,
     13, 1989-2009. DOI: 10.1021/acs.jctc.7b00118
   for GFN0-xTB:
   * P. Pracht, E. Caldeweyher, S. Ehlert, S. Grimme, ChemRxiv, 2019, preprint.
     DOI: 10.26434/chemrxiv.8326202.v1
   for GFN-FF:
   * S. Spicher and S. Grimme, Angew. Chem. Int. Ed., 2020, 59, 15665-15673.
     DOI: 10.1002/anie.202004239
   
   for ALPB and GBSA implicit solvation:
   * S. Ehlert, M. Stahn, S. Spicher, S. Grimme, J. Chem. Theory Comput.,
     2021, 17, 4250-4261. DOI: 10.1021/acs.jctc.1c00471
   
   for DFT-D4:
   * E. Caldeweyher, C. Bannwarth and S. Grimme, J. Chem. Phys., 2017,
     147, 034112. DOI: 10.1063/1.4993215
   * E. Caldeweyher, S. Ehlert, A. Hansen, H. Neugebauer, S. Spicher,
     C. Bannwarth and S. Grimme, J. Chem. Phys., 2019, 150, 154122.
     DOI: 10.1063/1.5090222
   * E. Caldeweyher, J.-M. Mewes, S. Ehlert and S. Grimme, Phys. Chem. Chem. Phys.
     2020, 22, 8499-8512. DOI: 10.1039/D0CP00502A
   
   for sTDA-xTB:
   * S. Grimme and C. Bannwarth, J. Chem. Phys., 2016, 145, 054103.
     DOI: 10.1063/1.4959605
   
   in the mass-spec context:
   * V. Asgeirsson, C. Bauer and S. Grimme, Chem. Sci., 2017, 8, 4879.
     DOI: 10.1039/c7sc00601b
   * J. Koopman and S. Grimme, ACS Omega 2019, 4, 12, 15120-15133.
     DOI: 10.1021/acsomega.9b02011
   
   for metadynamics refer to:
   * S. Grimme, J. Chem. Theory Comput., 2019, 155, 2847-2862
     DOI: 10.1021/acs.jctc.9b00143
   
   for SPH calculations refer to:
   * S. Spicher and S. Grimme, J. Chem. Theory Comput., 2021, 17, 1701-1714
     DOI: 10.1021/acs.jctc.0c01306
   
   with help from (in alphabetical order)
   P. Atkinson, C. Bannwarth, F. Bohle, G. Brandenburg, E. Caldeweyher
   M. Checinski, S. Dohm, S. Ehlert, S. Ehrlich, I. Gerasimov, C. Hölzer
   A. Katbashev, J. Koopman, C. Lavigne, S. Lehtola, F. März, M. Müller,
   F. Musil, H. Neugebauer, J. Pisarek, C. Plett, P. Pracht, F. Pultar,
   J. Seibert, P. Shushkov, S. Spicher, M. Stahn, M. Steiner, T. Strunk,
   J. Stückrath, T. Rose, and J. Unsleber
   
 * started run on 2023/11/18 at 08:44:19.431     

           -------------------------------------------------
          |                Calculation Setup                |
           -------------------------------------------------

          program call               : /home/liuchw/anaconda3/envs/xtbenv/bin/xtb --gfn 2 --chrg 0 --uhf 0 7_11_Index_0-opt-2-3-073_preQMOPTprefit_xyzformat.xyz --opt --input xtb-opt-2-3-073_constr.txt
          hostname                   : node165.bme.utexas.edu
          coordinate file            : 7_11_Index_0-opt-2-3-073_preQMOPTprefit_xyzformat.xyz
          omp threads                :                    64

   ID    Z sym.   atoms
    1    7 N      1, 9
    2    6 C      2-6, 8, 10-14
    3    1 H      7, 15-17, 19-24
    4    8 O      18
constraining angle 1 2 3 4 to   73.0139860°, actual value:   73.0139860°
constraining angle 24 1 2 3 to   28.0051637°, actual value:   28.0051637°
constraining angle 24 1 2 5 to  203.9978916°, actual value: -156.0021084°
constraining angle 7 1 2 3 to  173.0090541°, actual value:  173.0090541°
constraining angle 7 1 2 5 to  349.0017820°, actual value:  -10.9982180°
constraining angle 1 2 5 8 to  188.0056666°, actual value: -171.9943334°

           -------------------------------------------------
          |                 G F N 2 - x T B                 |
           -------------------------------------------------

        Reference                      10.1021/acs.jctc.8b01176
      * Hamiltonian:
        H0-scaling (s, p, d)           1.850000    2.230000    2.230000
        zeta-weighting                 0.500000
      * Dispersion:
        s8                             2.700000
        a1                             0.520000
        a2                             5.000000
        s9                             5.000000
      * Repulsion:
        kExp                           1.500000    1.000000
        rExp                           1.000000
      * Coulomb:
        alpha                          2.000000
        third order                    shell-resolved
        anisotropic                    true
        a3                             3.000000
        a5                             4.000000
        cn-shift                       1.200000
        cn-exp                         4.000000
        max-rad                        5.000000

q/qsh data taken from xtbrestart
CAMM data taken from xtbrestart

          ...................................................
          :                      SETUP                      :
          :.................................................:
          :  # basis functions                  66          :
          :  # atomic orbitals                  66          :
          :  # shells                           38          :
          :  # electrons                        70          :
          :  max. iterations                   250          :
          :  Hamiltonian                  GFN2-xTB          :
          :  restarted?                       true          :
          :  GBSA solvation                  false          :
          :  PC potential                    false          :
          :  electronic temp.          300.0000000     K    :
          :  accuracy                    1.0000000          :
          :  -> integral cutoff          0.2500000E+02      :
          :  -> integral neglect         0.1000000E-07      :
          :  -> SCF convergence          0.1000000E-05 Eh   :
          :  -> wf. convergence          0.1000000E-03 e    :
          :  Broyden damping             0.4000000          :
          ...................................................

 iter      E             dE          RMSdq      gap      omega  full diag
   1    -39.1018982 -0.391019E+02  0.190E+00    2.27       0.0  T
   2    -39.1022845 -0.386286E-03  0.112E+00    2.32       1.0  T
   3    -39.1010889  0.119562E-02  0.220E-01    2.26       1.0  T
   4    -39.1024143 -0.132540E-02  0.480E-02    2.31       1.0  T
   5    -39.1024679 -0.535846E-04  0.185E-02    2.30       1.1  T
   6    -39.1024695 -0.167033E-05  0.113E-02    2.31       1.8  T
   7    -39.1024712 -0.164404E-05  0.300E-03    2.31       6.8  T
   8    -39.1024713 -0.112126E-06  0.103E-03    2.31      19.7  T
   9    -39.1024713 -0.581796E-08  0.459E-04    2.31      44.5  T
  10    -39.1024713 -0.348933E-08  0.202E-04    2.31     101.0  T

   *** convergence criteria satisfied after 10 iterations ***

         #    Occupation            Energy/Eh            Energy/eV
      -------------------------------------------------------------
         1        2.0000           -0.6709213             -18.2567
       ...           ...                  ...                  ...
        29        2.0000           -0.4363843             -11.8746
        30        2.0000           -0.4319083             -11.7528
        31        2.0000           -0.4120072             -11.2113
        32        2.0000           -0.4072909             -11.0829
        33        2.0000           -0.3969815             -10.8024
        34        2.0000           -0.3756805             -10.2228
        35        2.0000           -0.3480027              -9.4696 (HOMO)
        36                         -0.2632834              -7.1643 (LUMO)
        37                         -0.2388709              -6.5000
        38                         -0.2366487              -6.4395
        39                         -0.1735748              -4.7232
        40                         -0.1224518              -3.3321
       ...                                ...                  ...
        66                          0.6772486              18.4289
      -------------------------------------------------------------
                  HL-Gap            0.0847194 Eh            2.3053 eV
             Fermi-level           -0.3056431 Eh           -8.3170 eV

 SCC (total)                   0 d,  0 h,  0 min,  1.358 sec
 SCC setup                      ...        0 min,  0.005 sec (  0.404%)
 Dispersion                     ...        0 min,  0.017 sec (  1.217%)
 classical contributions        ...        0 min,  0.016 sec (  1.179%)
 integral evaluation            ...        0 min,  0.032 sec (  2.384%)
 iterations                     ...        0 min,  1.121 sec ( 82.555%)
 molecular gradient             ...        0 min,  0.150 sec ( 11.014%)
 printout                       ...        0 min,  0.017 sec (  1.228%)

         :::::::::::::::::::::::::::::::::::::::::::::::::::::
         ::                     SUMMARY                     ::
         :::::::::::::::::::::::::::::::::::::::::::::::::::::
         :: total energy             -38.542107289428 Eh    ::
         :: gradient norm              0.074411752355 Eh/a0 ::
         :: HOMO-LUMO gap              2.305331111540 eV    ::
         ::.................................................::
         :: SCC energy               -39.102471291560 Eh    ::
         :: -> isotropic ES            0.050523988007 Eh    ::
         :: -> anisotropic ES          0.001694407516 Eh    ::
         :: -> anisotropic XC          0.020462031774 Eh    ::
         :: -> dispersion             -0.023339359779 Eh    ::
         :: repulsion energy           0.560261927872 Eh    ::
         :: add. restraining           0.000000000000 Eh    ::
         :: total charge              -0.000000000000 e     ::
         :::::::::::::::::::::::::::::::::::::::::::::::::::::

      ----------------------------------------------------------- 
     |                   =====================                   |
     |                        A N C O P T                        |
     |                   =====================                   |
     |               Approximate Normal Coordinate               |
     |                Rational Function Optimizer                |
      ----------------------------------------------------------- 

          ...................................................
          :                      SETUP                      :
          :.................................................:
          :   optimization level            normal          :
          :   max. optcycles                   200          :
          :   ANC micro-cycles                  20          :
          :   degrees of freedom                66          :
          :.................................................:
          :   RF solver                   davidson          :
          :   write xtbopt.log                true          :
          :   linear?                        false          :
          :   energy convergence         0.5000000E-05 Eh   :
          :   grad. convergence          0.1000000E-02 Eh/α :
          :   maximium RF displ.         1.0000000          :
          :   Hlow (freq-cutoff)         0.1000000E-01      :
          :   Hmax (freq-cutoff)         5.0000000          :
          :   S6 in model hess.         20.0000000          :
          ...................................................

generating ANC from model Hessian ...
Using Lindh-Hessian (1995)
 Shifting diagonal of input Hessian by    8.5348692229865204E-003
 Lowest  eigenvalues of input Hessian
    0.000000    0.000000    0.000000    0.000000    0.000000    0.000000
    0.010000    0.010975    0.012605    0.016959    0.017726    0.022479
    0.024062    0.027979    0.029718    0.030138    0.034302    0.039234
 Highest eigenvalues
    2.258548    2.597700    3.485783    6.855832    8.550838   22.741313


........................................................................
.............................. CYCLE    1 ..............................
........................................................................
   1    -39.1024713 -0.391025E+02  0.660E-05    2.31       0.0  T
   2    -39.1024713 -0.163425E-10  0.430E-05    2.31     474.9  T
   3    -39.1024713 -0.733280E-11  0.297E-05    2.31     686.6  T
     SCC iter.                  ...        0 min,  0.341 sec
     gradient                   ...        0 min,  0.161 sec
 * total energy  :   -38.5421073 Eh     change       -0.1713332E-09 Eh
   gradient norm :     0.0744108 Eh/α   predicted     0.0000000E+00 (-100.00%)
   displ. norm   :     0.2544174 α      lambda       -0.1209933E-01
   maximum displ.:     0.1142694 α      in ANC's #29, #14, #32, ...

........................................................................
.............................. CYCLE    2 ..............................
........................................................................
   1    -39.1639849 -0.391640E+02  0.203E-01    2.42       0.0  T
   2    -39.1641293 -0.144398E-03  0.123E-01    2.40       1.0  T
   3    -39.1641336 -0.424257E-05  0.676E-02    2.41       1.0  T
   4    -39.1641629 -0.293741E-04  0.157E-02    2.40       1.3  T
   5    -39.1641680 -0.506504E-05  0.487E-03    2.40       4.2  T
   6    -39.1641682 -0.162048E-06  0.229E-03    2.40       8.9  T
   7    -39.1641682 -0.101034E-07  0.103E-03    2.40      19.8  T
   8    -39.1641682 -0.962903E-08  0.565E-04    2.40      36.1  T
   9    -39.1641682 -0.454338E-08  0.148E-04    2.40     138.0  T
     SCC iter.                  ...        0 min,  1.085 sec
     gradient                   ...        0 min,  0.152 sec
 * total energy  :   -38.5497005 Eh     change       -0.7593203E-02 Eh
   gradient norm :     0.0301992 Eh/α   predicted    -0.6442530E-02 ( -15.15%)
   displ. norm   :     0.1435810 α      lambda       -0.1462887E-02
   maximum displ.:     0.0579028 α      in ANC's #5, #14, #4, ...

........................................................................
.............................. CYCLE    3 ..............................
........................................................................
   1    -39.1844160 -0.391844E+02  0.771E-02    2.45       0.0  T
   2    -39.1844338 -0.178087E-04  0.462E-02    2.44       1.0  T
   3    -39.1844320  0.177459E-05  0.270E-02    2.45       1.0  T
   4    -39.1844384 -0.638307E-05  0.894E-03    2.44       2.3  T
   5    -39.1844403 -0.193435E-05  0.245E-03    2.44       8.3  T
   6    -39.1844404 -0.879485E-07  0.122E-03    2.44      16.7  T
   7    -39.1844404 -0.145571E-07  0.450E-04    2.44      45.4  T
   8    -39.1844404 -0.180842E-08  0.153E-04    2.44     133.4  T
     SCC iter.                  ...        0 min,  0.948 sec
     gradient                   ...        0 min,  0.176 sec
 * total energy  :   -38.5501136 Eh     change       -0.4130698E-03 Eh
   gradient norm :     0.1184744 Eh/α   predicted    -0.7510379E-03 (  81.82%)
   displ. norm   :     0.1377407 α      lambda       -0.1443788E-02
   maximum displ.:     0.0655185 α      in ANC's #5, #4, #1, ...

........................................................................
.............................. CYCLE    4 ..............................
........................................................................
   1    -39.1974377 -0.391974E+02  0.653E-02    2.48       0.0  T
   2    -39.1974455 -0.781144E-05  0.399E-02    2.47       1.0  T
   3    -39.1974404  0.504331E-05  0.250E-02    2.48       1.0  T
   4    -39.1974499 -0.944833E-05  0.694E-03    2.48       2.9  T
   5    -39.1974510 -0.110375E-05  0.169E-03    2.48      12.1  T
   6    -39.1974510 -0.341317E-07  0.863E-04    2.48      23.7  T
   7    -39.1974510 -0.414168E-08  0.299E-04    2.48      68.4  T
     SCC iter.                  ...        0 min,  0.813 sec
     gradient                   ...        0 min,  0.154 sec
 * total energy  :   -38.5498202 Eh     change        0.2933408E-03 Eh
   gradient norm :     0.1420111 Eh/α   predicted    -0.7356564E-03 (-350.79%)
   displ. norm   :     0.0749868 α      lambda       -0.1406620E-02
   maximum displ.:     0.0370484 α      in ANC's #14, #29, #12, ...

........................................................................
.............................. CYCLE    5 ..............................
........................................................................
   1    -39.1833291 -0.391833E+02  0.531E-02    2.44       0.0  T
   2    -39.1833383 -0.920444E-05  0.322E-02    2.45       1.0  T
   3    -39.1833383 -0.542250E-08  0.196E-02    2.44       1.0  T
   4    -39.1833412 -0.294022E-05  0.635E-03    2.45       3.2  T
   5    -39.1833422 -0.101432E-05  0.171E-03    2.45      11.9  T
   6    -39.1833423 -0.459576E-07  0.810E-04    2.45      25.2  T
   7    -39.1833423 -0.574297E-08  0.304E-04    2.45      67.2  T
     SCC iter.                  ...        0 min,  0.806 sec
     gradient                   ...        0 min,  0.150 sec
 * total energy  :   -38.5505413 Eh     change       -0.7210653E-03 Eh
   gradient norm :     0.0071414 Eh/α   predicted    -0.7072672E-03 (  -1.91%)
   displ. norm   :     0.0528353 α      lambda       -0.4116378E-04
   maximum displ.:     0.0403856 α      in ANC's #1, #4, #5, ...

........................................................................
.............................. CYCLE    6 ..............................
........................................................................
   1    -39.1833327 -0.391833E+02  0.162E-02    2.45       0.0  T
   2    -39.1833328 -0.109990E-06  0.952E-03    2.45       2.1  T
   3    -39.1833326  0.237754E-06  0.345E-03    2.45       5.9  T
   4    -39.1833328 -0.260072E-06  0.884E-04    2.45      23.1  T
   5    -39.1833329 -0.177718E-07  0.226E-04    2.45      90.2  T
     SCC iter.                  ...        0 min,  0.613 sec
     gradient                   ...        0 min,  0.166 sec
 * total energy  :   -38.5505786 Eh     change       -0.3730859E-04 Eh
   gradient norm :     0.0024903 Eh/α   predicted    -0.2223408E-04 ( -40.40%)
   displ. norm   :     0.1087266 α      lambda       -0.6469930E-04
   maximum displ.:     0.0828965 α      in ANC's #1, #4, #5, ...

........................................................................
.............................. CYCLE    7 ..............................
........................................................................
   1    -39.1829023 -0.391829E+02  0.340E-02    2.45       0.0  T
   2    -39.1829027 -0.397000E-06  0.200E-02    2.45       1.0  T
   3    -39.1829018  0.959872E-06  0.693E-03    2.45       2.9  T
   4    -39.1829028 -0.106129E-05  0.162E-03    2.45      12.6  T
   5    -39.1829029 -0.556511E-07  0.482E-04    2.45      42.3  T
   6    -39.1829029 -0.224617E-08  0.277E-04    2.45      73.8  T
     SCC iter.                  ...        0 min,  0.719 sec
     gradient                   ...        0 min,  0.159 sec
 * total energy  :   -38.5506234 Eh     change       -0.4485391E-04 Eh
   gradient norm :     0.0038543 Eh/α   predicted    -0.3273177E-04 ( -27.03%)
   displ. norm   :     0.0699615 α      lambda       -0.2176217E-04
   maximum displ.:     0.0597699 α      in ANC's #1, #2, #4, ...

........................................................................
.............................. CYCLE    8 ..............................
........................................................................
   1    -39.1830145 -0.391830E+02  0.249E-02    2.45       0.0  T
   2    -39.1830146 -0.108959E-06  0.146E-02    2.45       1.4  T
   3    -39.1830144  0.206110E-06  0.321E-03    2.45       6.4  T
   4    -39.1830146 -0.232803E-06  0.790E-04    2.45      25.8  T
   5    -39.1830146 -0.117302E-07  0.278E-04    2.45      73.4  T
     SCC iter.                  ...        0 min,  0.589 sec
     gradient                   ...        0 min,  0.176 sec
 * total energy  :   -38.5506404 Eh     change       -0.1698119E-04 Eh
   gradient norm :     0.0028329 Eh/α   predicted    -0.1093563E-04 ( -35.60%)
   displ. norm   :     0.0418036 α      lambda       -0.1261809E-04
   maximum displ.:     0.0377316 α      in ANC's #1, #2, #3, ...

........................................................................
.............................. CYCLE    9 ..............................
........................................................................
   1    -39.1832729 -0.391833E+02  0.186E-02    2.45       0.0  T
   2    -39.1832729 -0.191276E-07  0.109E-02    2.45       1.9  T
   3    -39.1832728  0.652665E-07  0.162E-03    2.45      12.6  T
   4    -39.1832729 -0.754308E-07  0.303E-04    2.45      67.4  T
   5    -39.1832729 -0.135189E-08  0.166E-04    2.45     122.9  T
     SCC iter.                  ...        0 min,  0.558 sec
     gradient                   ...        0 min,  0.165 sec
 * total energy  :   -38.5506516 Eh     change       -0.1113980E-04 Eh
   gradient norm :     0.0014168 Eh/α   predicted    -0.6323686E-05 ( -43.23%)
   displ. norm   :     0.0579754 α      lambda       -0.1213262E-04
   maximum displ.:     0.0519177 α      in ANC's #1, #2, #5, ...

........................................................................
.............................. CYCLE   10 ..............................
........................................................................
   1    -39.1835702 -0.391836E+02  0.306E-02    2.45       0.0  T
   2    -39.1835702 -0.356607E-07  0.180E-02    2.45       1.1  T
   3    -39.1835697  0.565995E-06  0.465E-03    2.45       4.4  T
   4    -39.1835703 -0.619774E-06  0.478E-04    2.45      42.7  T
   5    -39.1835703 -0.372967E-08  0.240E-04    2.45      85.0  T
     SCC iter.                  ...        0 min,  0.531 sec
     gradient                   ...        0 min,  0.151 sec
 * total energy  :   -38.5506655 Eh     change       -0.1391062E-04 Eh
   gradient norm :     0.0022002 Eh/α   predicted    -0.6077973E-05 ( -56.31%)
   displ. norm   :     0.0290475 α      lambda       -0.6741718E-05
   maximum displ.:     0.0272116 α      in ANC's #1, #2, #5, ...

........................................................................
.............................. CYCLE   11 ..............................
........................................................................
   1    -39.1835755 -0.391836E+02  0.142E-02    2.45       0.0  T
   2    -39.1835755 -0.687903E-08  0.832E-03    2.45       2.5  T
   3    -39.1835755  0.583809E-07  0.152E-03    2.45      13.4  T
   4    -39.1835755 -0.647080E-07  0.220E-04    2.45      92.9  T
   5    -39.1835755 -0.811305E-09  0.107E-04    2.45     190.0  T
     SCC iter.                  ...        0 min,  0.612 sec
     gradient                   ...        0 min,  0.153 sec
 * total energy  :   -38.5506712 Eh     change       -0.5758640E-05 Eh
   gradient norm :     0.0011238 Eh/α   predicted    -0.3374926E-05 ( -41.39%)
   displ. norm   :     0.0355878 α      lambda       -0.4711436E-05
   maximum displ.:     0.0340810 α      in ANC's #1, #2, #3, ...

........................................................................
.............................. CYCLE   12 ..............................
........................................................................
   1    -39.1835545 -0.391836E+02  0.163E-02    2.45       0.0  T
   2    -39.1835545 -0.119980E-07  0.957E-03    2.45       2.1  T
   3    -39.1835545  0.236237E-07  0.108E-03    2.45      18.9  T
   4    -39.1835545 -0.280324E-07  0.286E-04    2.45      71.3  T
   5    -39.1835545 -0.155288E-08  0.125E-04    2.45     162.7  T
     SCC iter.                  ...        0 min,  0.551 sec
     gradient                   ...        0 min,  0.162 sec
 * total energy  :   -38.5506775 Eh     change       -0.6217342E-05 Eh
   gradient norm :     0.0008694 Eh/α   predicted    -0.2370926E-05 ( -61.87%)
   displ. norm   :     0.0283575 α      lambda       -0.3347904E-05
   maximum displ.:     0.0275019 α      in ANC's #1, #3, #12, ...

........................................................................
.............................. CYCLE   13 ..............................
........................................................................
   1    -39.1835102 -0.391835E+02  0.118E-02    2.44       0.0  T
   2    -39.1835102 -0.919294E-08  0.693E-03    2.44       2.9  T
   3    -39.1835101  0.727252E-07  0.168E-03    2.44      12.1  T
   4    -39.1835102 -0.802056E-07  0.253E-04    2.44      80.8  T
   5    -39.1835102 -0.112549E-08  0.110E-04    2.44     185.3  T
     SCC iter.                  ...        0 min,  0.558 sec
     gradient                   ...        0 min,  0.157 sec
 * total energy  :   -38.5506819 Eh     change       -0.4467338E-05 Eh
   gradient norm :     0.0003413 Eh/α   predicted    -0.1676932E-05 ( -62.46%)
   displ. norm   :     0.0253562 α      lambda       -0.2604620E-05
   maximum displ.:     0.0244083 α      in ANC's #1, #2, #3, ...

   *** GEOMETRY OPTIMIZATION CONVERGED AFTER 13 ITERATIONS ***

------------------------------------------------------------------------
 total energy gain   :        -0.0085746 Eh       -5.3807 kcal/mol
 total RMSD          :         0.1410313 a0        0.0746 Å
 total power (kW/mol):        -1.7317462 (step)   -1.7579 (real)
------------------------------------------------------------------------

 ANCopt (total)                0 d,  0 h,  0 min, 12.806 sec
 optimizer setup                ...        0 min,  0.000 sec (  0.002%)
 model hessian                  ...        0 min,  0.004 sec (  0.034%)
 ANC generation                 ...        0 min,  0.008 sec (  0.063%)
 coordinate transformation      ...        0 min,  0.000 sec (  0.004%)
 single point calculation       ...        0 min, 12.341 sec ( 96.364%)
 optimization log               ...        0 min,  0.003 sec (  0.023%)
 hessian update                 ...        0 min,  0.430 sec (  3.354%)
 rational function              ...        0 min,  0.018 sec (  0.143%)

================
 final structure:
================
24
 xtb: 6.5.0 (97a52f5)
N            1.29341294289218       -0.52002533169183        1.71955232915972
C            0.47962827489603       -0.21207194471739        0.68525470157290
C           -0.31229289628041       -1.30735921568124        0.08129565836585
C           -1.40066740346561       -1.83642079828926        0.76517887493726
C            0.34013987444021        1.08581402714462        0.27672739793405
C            0.00295821964907       -1.78942723437568       -1.18359796631397
H            1.89246646313430        0.25121327220061        2.01571213185869
C           -0.56220299714072        1.67553011798109       -0.67753375398071
N            0.74932369327749        3.29466346394423        0.13787565171444
C            1.16545083590251        2.17210332619476        0.79953502518037
C           -0.28848091450346        2.99265998975362       -0.73043646526417
C           -0.74856588254465       -2.80560173427138       -1.74675589066549
C           -2.15314842508529       -2.84811022533195        0.19593497558075
C           -1.82628276371325       -3.33655297588846       -1.05808293460725
H            0.83978562127042       -1.36644947218339       -1.72011843964990
H           -1.65066862469473       -1.45011106004305        1.74212588362416
H            1.12676922820880        4.21415733343751        0.29377649980500
O            2.06685280946015        2.12662931499016        1.63492159281071
H           -0.49427414983469       -3.18156490694125       -2.72682653810139
H           -2.99816938207841       -3.25489471150602        0.73160852079628
H           -2.41308552357844       -4.12827380130673       -1.49980314834824
H           -1.30994108273148        1.14487478828825       -1.23274153802894
H           -0.74546506040906        3.76784913577467       -1.31508662509658
H            1.67083912292895       -1.45122136748221        1.78232905671640

 Bond Distances (Angstroems)
 ---------------------------
N1-C2=1.3516         N1-H7=1.0205         N1-H24=1.0067        C2-N1=1.3516         C2-C3=1.4804         C2-C5=1.3678         
C3-C2=1.4804         C3-C4=1.3900         C3-C6=1.3899         C4-C3=1.3900         C4-C13=1.3834        C4-H16=1.0799        
C5-C2=1.3678         C5-C8=1.4397         C5-C10=1.4610        C6-C3=1.3899         C6-C12=1.3837        C6-H15=1.0803        
H7-N1=1.0205         C8-C5=1.4397         C8-C11=1.3463        C8-H22=1.0719        N9-C10=1.3679        N9-C11=1.3864        
N9-H17=1.0061        C10-C5=1.4610        C10-N9=1.3679        C10-O18=1.2298       C11-C8=1.3463        C11-N9=1.3864        
C11-H23=1.0731       C12-C6=1.3837        C12-C14=1.3848       C12-H19=1.0801       C13-C4=1.3834        C13-C14=1.3849       
C13-H20=1.0800       C14-C12=1.3848       C14-C13=1.3849       C14-H21=1.0799       H15-C6=1.0803        H16-C4=1.0799        
H17-N9=1.0061        O18-C10=1.2298       H19-C12=1.0801       H20-C13=1.0800       H21-C14=1.0799       H22-C8=1.0719        
H23-C11=1.0731       H24-N1=1.0067        
 C  H  Rav=1.0779 sigma=0.0034  Rmin=1.0719  Rmax=1.0803     7
 C  C  Rav=1.4011 sigma=0.0392  Rmin=1.3463  Rmax=1.4804    11
 N  H  Rav=1.0111 sigma=0.0066  Rmin=1.0061  Rmax=1.0205     3
 N  C  Rav=1.3686 sigma=0.0142  Rmin=1.3516  Rmax=1.3864     3
 O  C  Rav=1.2298 sigma=0.0000  Rmin=1.2298  Rmax=1.2298     1

 selected bond angles (degree)
 --------------------
H7-N1-C2=113.79                H24-N1-C2=118.96               H24-N1-H7=117.44               C3-C2-N1=117.76                
C5-C2-N1=120.41                C5-C2-C3=121.71                C4-C3-C2=119.98                C6-C3-C2=120.44                
C6-C3-C4=119.56                C13-C4-C3=120.12               H16-C4-C3=119.35               H16-C4-C13=120.53              
C8-C5-C2=130.59                C10-C5-C2=122.75               C10-C5-C8=106.66               C12-C6-C3=120.13               
H15-C6-C3=119.46               H15-C6-C12=120.41              C11-C8-C5=107.42               H22-C8-C5=125.29               
H22-C8-C11=127.29              C11-N9-C10=110.60              H17-N9-C10=124.12              H17-N9-C11=125.24              
N9-C10-C5=105.38               O18-C10-C5=129.02              O18-C10-N9=125.58              

 selected dihedral angles (degree)
 ---------------------------------
C3-C2-N1-H7=173.01            C3-C2-N1-H24= 27.97           C5-C2-N1-H7=349.02            C5-C2-N1-H24=203.98           
C4-C3-C2-N1= 72.97            C4-C3-C2-C5=257.01            C6-C3-C2-N1=251.28            C6-C3-C2-C5= 75.32            
C13-C4-C3-C2=179.16           C13-C4-C3-C6=  0.84           H16-C4-C3-C2=359.15           H16-C4-C3-C6=180.82           
C8-C5-C2-N1=187.98            C8-C5-C2-C3=  3.82            C10-C5-C2-N1=  7.92           C10-C5-C2-C3=183.77           
C12-C6-C3-C2=180.55           C12-C6-C3-C4=358.87           H15-C6-C3-C2=  0.74           H15-C6-C3-C4=179.05           
C11-C8-C5-C2=180.61           C11-C8-C5-C10=  0.66          H22-C8-C5-C2=  0.72           H22-C8-C5-C10=180.77          
N9-C10-C5-C2=178.83           N9-C10-C5-C8=358.78           O18-C10-C5-C2=  0.08          O18-C10-C5-C8=180.04          
C5-C10-N9-C11=  1.35          C5-C10-N9-H17=179.14          O18-C10-N9-C11=180.15         O18-C10-N9-H17=357.94         
           -------------------------------------------------
          |                Final Singlepoint                |
           -------------------------------------------------

          ...................................................
          :                      SETUP                      :
          :.................................................:
          :  # basis functions                  66          :
          :  # atomic orbitals                  66          :
          :  # shells                           38          :
          :  # electrons                        70          :
          :  max. iterations                   250          :
          :  Hamiltonian                  GFN2-xTB          :
          :  restarted?                      false          :
          :  GBSA solvation                  false          :
          :  PC potential                    false          :
          :  electronic temp.          300.0000000     K    :
          :  accuracy                    1.0000000          :
          :  -> integral cutoff          0.2500000E+02      :
          :  -> integral neglect         0.1000000E-07      :
          :  -> SCF convergence          0.1000000E-05 Eh   :
          :  -> wf. convergence          0.1000000E-03 e    :
          :  Broyden damping             0.4000000          :
          ...................................................

 iter      E             dE          RMSdq      gap      omega  full diag
   1    -39.1835102 -0.391835E+02  0.464E-05    2.44       0.0  T
   2    -39.1835102 -0.945732E-11  0.304E-05    2.44     671.2  T
   3    -39.1835102 -0.989786E-11  0.176E-05    2.44    1158.3  T

   *** convergence criteria satisfied after 3 iterations ***

         #    Occupation            Energy/Eh            Energy/eV
      -------------------------------------------------------------
         1        2.0000           -0.6778892             -18.4463
       ...           ...                  ...                  ...
        29        2.0000           -0.4346834             -11.8283
        30        2.0000           -0.4313587             -11.7379
        31        2.0000           -0.4144137             -11.2768
        32        2.0000           -0.4110540             -11.1853
        33        2.0000           -0.3973311             -10.8119
        34        2.0000           -0.3760245             -10.2321
        35        2.0000           -0.3464118              -9.4263 (HOMO)
        36                         -0.2565769              -6.9818 (LUMO)
        37                         -0.2324781              -6.3261
        38                         -0.2314522              -6.2981
        39                         -0.1644682              -4.4754
        40                         -0.1099693              -2.9924
       ...                                ...                  ...
        66                          0.7448381              20.2681
      -------------------------------------------------------------
                  HL-Gap            0.0898349 Eh            2.4445 eV
             Fermi-level           -0.3014944 Eh           -8.2041 eV

 SCC (total)                   0 d,  0 h,  0 min,  0.586 sec
 SCC setup                      ...        0 min,  0.026 sec (  4.448%)
 Dispersion                     ...        0 min,  0.020 sec (  3.461%)
 classical contributions        ...        0 min,  0.018 sec (  3.115%)
 integral evaluation            ...        0 min,  0.031 sec (  5.224%)
 iterations                     ...        0 min,  0.326 sec ( 55.683%)
 molecular gradient             ...        0 min,  0.158 sec ( 26.999%)
 printout                       ...        0 min,  0.006 sec (  1.035%)

         :::::::::::::::::::::::::::::::::::::::::::::::::::::
         ::                     SUMMARY                     ::
         :::::::::::::::::::::::::::::::::::::::::::::::::::::
         :: total energy             -38.550681924543 Eh    ::
         :: gradient norm              0.000341121293 Eh/a0 ::
         :: HOMO-LUMO gap              2.444530742192 eV    ::
         ::.................................................::
         :: SCC energy               -39.183510169323 Eh    ::
         :: -> isotropic ES            0.049478962667 Eh    ::
         :: -> anisotropic ES          0.001405743604 Eh    ::
         :: -> anisotropic XC          0.018278833753 Eh    ::
         :: -> dispersion             -0.023787250624 Eh    ::
         :: repulsion energy           0.632718025475 Eh    ::
         :: add. restraining           0.000003660019 Eh    ::
         :: total charge               0.000000000000 e     ::
         :::::::::::::::::::::::::::::::::::::::::::::::::::::

           -------------------------------------------------
          |                Property Printout                |
           -------------------------------------------------

    * Orbital Energies and Occupations

         #    Occupation            Energy/Eh            Energy/eV
      -------------------------------------------------------------
         1        2.0000           -0.6778892             -18.4463
       ...           ...                  ...                  ...
        23        2.0000           -0.4834382             -13.1550
        24        2.0000           -0.4761050             -12.9555
        25        2.0000           -0.4734247             -12.8825
        26        2.0000           -0.4651318             -12.6569
        27        2.0000           -0.4530895             -12.3292
        28        2.0000           -0.4504936             -12.2586
        29        2.0000           -0.4346834             -11.8283
        30        2.0000           -0.4313587             -11.7379
        31        2.0000           -0.4144137             -11.2768
        32        2.0000           -0.4110540             -11.1853
        33        2.0000           -0.3973311             -10.8119
        34        2.0000           -0.3760245             -10.2321
        35        2.0000           -0.3464118              -9.4263 (HOMO)
        36                         -0.2565769              -6.9818 (LUMO)
        37                         -0.2324781              -6.3261
        38                         -0.2314522              -6.2981
        39                         -0.1644682              -4.4754
        40                         -0.1099693              -2.9924
        41                         -0.1007983              -2.7429
        42                          0.0321136               0.8739
        43                          0.0449297               1.2226
        44                          0.0865001               2.3538
        45                          0.1187466               3.2313
        46                          0.1344545               3.6587
       ...                                ...                  ...
        66                          0.7448381              20.2681
      -------------------------------------------------------------
                  HL-Gap            0.0898349 Eh            2.4445 eV
             Fermi-level           -0.3014944 Eh           -8.2041 eV

     #   Z          covCN         q      C6AA      α(0)
     1   7 N        2.645    -0.241    26.286     7.615
     2   6 C        2.885     0.094    25.915     8.346
     3   6 C        2.979     0.006    27.880     8.661
     4   6 C        2.924    -0.030    28.742     8.792
     5   6 C        3.093    -0.075    29.749     8.940
     6   6 C        2.924    -0.031    28.765     8.795
     7   1 H        0.860     0.226     0.982     1.552
     8   6 C        2.980    -0.070    29.727     8.944
     9   7 N        2.776    -0.148    24.202     7.307
    10   6 C        2.869     0.258    22.677     7.806
    11   6 C        2.989     0.001    27.986     8.678
    12   6 C        2.919    -0.028    28.700     8.785
    13   6 C        2.919    -0.028    28.694     8.784
    14   6 C        2.920    -0.029    28.726     8.789
    15   1 H        0.926     0.035     2.511     2.478
    16   1 H        0.926     0.039     2.466     2.456
    17   1 H        0.860     0.168     1.286     1.777
    18   8 O        0.857    -0.488    23.524     6.503
    19   1 H        0.926     0.035     2.510     2.477
    20   1 H        0.926     0.036     2.503     2.474
    21   1 H        0.926     0.035     2.521     2.483
    22   1 H        0.926     0.029     2.604     2.524
    23   1 H        0.926     0.033     2.548     2.496
    24   1 H        0.860     0.172     1.261     1.759

 Mol. C6AA /au·bohr⁶  :       7616.306506
 Mol. C8AA /au·bohr⁸  :     185759.000894
 Mol. α(0) /au        :        139.219117


Wiberg/Mayer (AO) data.
largest (>0.10) Wiberg bond orders for each atom

 ---------------------------------------------------------------------------
     #   Z sym  total        # sym  WBO       # sym  WBO       # sym  WBO
 ---------------------------------------------------------------------------
     1   7 N    3.392 --     2 C    1.283    24 H    0.949     7 H    0.896
     2   6 C    3.969 --     5 C    1.472     1 N    1.283     3 C    1.005
     3   6 C    3.989 --     6 C    1.404     4 C    1.401     2 C    1.005
                            14 C    0.110
     4   6 C    3.989 --    13 C    1.445     3 C    1.401    16 H    0.970
                            12 C    0.112
     5   6 C    3.967 --     2 C    1.472     8 C    1.153    10 C    1.071
     6   6 C    3.992 --    12 C    1.444     3 C    1.404    15 H    0.970
                            13 C    0.112
     7   1 H    0.948 --     1 N    0.896
     8   6 C    3.980 --    11 C    1.701     5 C    1.153    22 H    0.972
     9   7 N    3.510 --    10 C    1.177    11 C    1.125    17 H    0.943
                            18 O    0.144
    10   6 C    3.950 --    18 O    1.573     9 N    1.177     5 C    1.071
    11   6 C    3.950 --     8 C    1.701     9 N    1.125    23 H    0.970
    12   6 C    3.991 --     6 C    1.444    14 C    1.439    19 H    0.970
                             4 C    0.112
    13   6 C    3.991 --     4 C    1.445    14 C    1.438    20 H    0.970
                             6 C    0.112
    14   6 C    3.991 --    12 C    1.439    13 C    1.438    21 H    0.971
                             3 C    0.110
    15   1 H    0.999 --     6 C    0.970
    16   1 H    0.998 --     4 C    0.970
    17   1 H    0.971 --     9 N    0.943
    18   8 O    1.970 --    10 C    1.573     9 N    0.144
    19   1 H    0.998 --    12 C    0.970
    20   1 H    0.998 --    13 C    0.970
    21   1 H    0.998 --    14 C    0.971
    22   1 H    0.999 --     8 C    0.972
    23   1 H    0.998 --    11 C    0.970
    24   1 H    0.969 --     1 N    0.949
 ---------------------------------------------------------------------------

Topologies differ in total number of bonds
Writing topology from bond orders to xtbtopo.mol

molecular dipole:
                 x           y           z       tot (Debye)
 q only:       -0.567      -0.957      -0.436
   full:       -0.518      -0.781      -0.627       2.867
molecular quadrupole (traceless):
                xx          xy          yy          xz          yz          zz
 q only:       -3.877      -5.321       5.446      -3.057      -6.499      -1.569
  q+dip:       -5.822      -3.030      10.242      -4.580      -5.957      -4.420
   full:       -5.063      -5.019       9.357      -4.468      -6.727      -4.294

           -------------------------------------------------
          |                Geometry Summary                 |
           -------------------------------------------------

      molecular mass/u    :      186.2103137
   center of mass at/Å    :       -0.0329318      -0.0386085       0.1025307
  moments of inertia/u·Å² :        0.3130446E+03   0.1202549E+04   0.1352798E+04
rotational constants/cm⁻¹ :        0.5385057E-01   0.1401825E-01   0.1246131E-01

 * 23 selected distances

     #   Z          #   Z                                           value/Å
     1   7 N        2   6 C                                       1.3516111
     3   6 C        4   6 C                                       1.3900222
     2   6 C        5   6 C                                       1.3677938
     3   6 C        6   6 C                                       1.3898666
     1   7 N        7   1 H                                       1.0204827
     5   6 C        8   6 C                                       1.4396536 (max)
     9   7 N       10   6 C                                       1.3678803
     8   6 C       11   6 C                                       1.3463112
     9   7 N       11   6 C                                       1.3864382
     6   6 C       12   6 C                                       1.3836713
     4   6 C       13   6 C                                       1.3833952
    12   6 C       14   6 C                                       1.3847937
    13   6 C       14   6 C                                       1.3849111
     6   6 C       15   1 H                                       1.0802984
     4   6 C       16   1 H                                       1.0798896
     9   7 N       17   1 H                                       1.0061011 (min)
    10   6 C       18   8 O                                       1.2298229
    12   6 C       19   1 H                                       1.0800700
    13   6 C       20   1 H                                       1.0800372
    14   6 C       21   1 H                                       1.0799427
     8   6 C       22   1 H                                       1.0718970
    11   6 C       23   1 H                                       1.0731117
     1   7 N       24   1 H                                       1.0067362

 * 5 distinct bonds (by element types)

   Z      Z             #   av. dist./Å        max./Å        min./Å
   1 H    6 C           7     1.0778924     1.0802984     1.0718970
   6 C    6 C           9     1.3856021     1.4396536     1.3463112
   1 H    7 N           3     1.0111066     1.0204827     1.0061011
   6 C    7 N           3     1.3686432     1.3864382     1.3516111
   6 C    8 O           1     1.2298229     1.2298229     1.2298229


optimized geometry written to: xtbopt.xyz


           -------------------------------------------------
          | TOTAL ENERGY              -38.550681924543 Eh   |
          | GRADIENT NORM               0.000341121293 Eh/α |
          | HOMO-LUMO GAP               2.444530742192 eV   |
           -------------------------------------------------
########################################################################
[WARNING] Runtime exception occurred
-1- restart_readRestart: Number of electron missmatch in restart file.
########################################################################

------------------------------------------------------------------------
 * finished run on 2023/11/18 at 08:44:34.430     
------------------------------------------------------------------------
 total:
 * wall-time:     0 d,  0 h,  0 min, 14.999 sec
 *  cpu-time:     0 d,  0 h, 11 min, 49.333 sec
 * ratio c/w:    47.292 speedup
 SCF:
 * wall-time:     0 d,  0 h,  0 min,  1.358 sec
 *  cpu-time:     0 d,  0 h,  1 min,  4.459 sec
 * ratio c/w:    47.470 speedup
 ANC optimizer:
 * wall-time:     0 d,  0 h,  0 min, 13.421 sec
 *  cpu-time:     0 d,  0 h, 10 min, 35.053 sec
 * ratio c/w:    47.318 speedup

