
    -----------------------------------------------------------------------
          Psi4: An Open-Source Ab Initio Electronic Structure Package
                               Psi4 1.6 release

                         Git: Rev {HEAD} 77475b5 


    D. G. A. Smith, L. A. Burns, A. C. Simmonett, R. M. Parrish,
    M. C. Schieber, R. Galvelis, P. Kraus, H. Kruse, R. Di Remigio,
    A. Alenaizan, A. M. James, S. Lehtola, J. P. Misiewicz, M. Scheurer,
    R. A. Shaw, J. B. Schriber, Y. Xie, Z. L. Glick, D. A. Sirianni,
    J. S. O'Brien, J. M. Waldrop, A. Kumar, E. G. Hohenstein,
    B. P. Pritchard, B. R. Brooks, H. F. Schaefer III, A. Yu. Sokolov,
    K. Patkowski, A. E. DePrince III, U. Bozkaya, R. A. King,
    F. A. Evangelista, J. M. Turney, T. D. Crawford, C. D. Sherrill,
    J. Chem. Phys. 152(18) 184108 (2020). https://doi.org/10.1063/5.0006002

                            Additional Code Authors
    E. T. Seidl, C. L. Janssen, E. F. Valeev, M. L. Leininger,
    J. F. Gonthier, R. M. Richard, H. R. McAlexander, M. Saitow, X. Wang,
    P. Verma, M. H. Lechner, and A. Jiang

             Previous Authors, Complete List of Code Contributors,
                       and Citations for Specific Modules
    https://github.com/psi4/psi4/blob/master/codemeta.json
    https://github.com/psi4/psi4/graphs/contributors
    http://psicode.org/psi4manual/master/introduction.html#citing-psifour

    -----------------------------------------------------------------------


    Psi4 started on: Saturday, 18 November 2023 08:45AM

    Process ID: 1134545
    Host:       node165.bme.utexas.edu
    PSIDATADIR: /home/liuchw/anaconda3/envs/poltype2022/share/psi4
    Memory:     500.0 MiB
    Threads:    1
    
  ==> Input File <==

--------------------------------------------------------------------------
molecule { 
0 1
 N    1.971553   -0.173888   -0.825295
 C    0.720910   -0.061566   -0.326952
 C   -0.182179   -1.225731   -0.467644
 C   -0.785714   -1.498546   -1.689897
 C    0.346793    1.064284    0.354994
 C   -0.456778   -2.036932    0.627311
 H    2.505631    0.695701   -0.798322
 C   -0.850115    1.357987    1.099084
 N    0.469299    3.164093    1.156989
 C    1.188537    2.256083    0.429618
 C   -0.738760    2.617616    1.561428
 C   -1.305794   -3.120650    0.492625
 C   -1.639538   -2.579627   -1.818982
 C   -1.897140   -3.394353   -0.729600
 H    0.005869   -1.816392    1.577533
 H   -0.588962   -0.857754   -2.537925
 H    0.794353    4.088425    1.385482
 O    2.299944    2.451298   -0.059821
 H   -1.508065   -3.753147    1.344387
 H   -2.106157   -2.784700   -2.771235
 H   -2.560888   -4.240000   -0.832287
 H   -1.671653    0.684776    1.243097
 H   -1.418604    3.194041    2.159022
 H    2.131847   -0.793604   -1.602771
}
memory 20GB
set_num_threads(5)
psi4_io.set_default_path("/scratch/liuchw/Psi4-7_11_Index_0-farH_in17")
set freeze_core True
E, wfn = energy('wb97x-d/6-311+G*',return_wfn=True)
oeprop(wfn,"WIBERG_LOWDIN_INDICES")
clean()
--------------------------------------------------------------------------

  Memory set to  18.626 GiB by Python driver.
  Threads set to 5 by Python driver.

Scratch directory: /scratch/liuchw/Psi4-7_11_Index_0-farH_in17/

*** tstart() called on node165.bme.utexas.edu
*** at Sat Nov 18 08:45:46 2023

   => Loading Basis Set <=

    Name: 6-311+G*
    Role: ORBITAL
    Keyword: BASIS
    atoms 1, 9            entry N          line   151 file /home/liuchw/anaconda3/envs/poltype2022/share/psi4/basis/6-311pgs.gbs 
    atoms 2-6, 8, 10-14   entry C          line   130 file /home/liuchw/anaconda3/envs/poltype2022/share/psi4/basis/6-311pgs.gbs 
    atoms 7, 15-17, 19-24 entry H          line    47 file /home/liuchw/anaconda3/envs/poltype2022/share/psi4/basis/6-311pgs.gbs 
    atoms 18              entry O          line   172 file /home/liuchw/anaconda3/envs/poltype2022/share/psi4/basis/6-311pgs.gbs 

   => WB97X-D: Empirical Dispersion <=

    Chai and Head-Gordon Dispersion Correction
    Chai, J.-D.; Head-Gordon, M. (2010), J. Chem. Phys., 132: 6615-6620

        s6 =       1.000000


         ---------------------------------------------------------
                                   SCF
               by Justin Turney, Rob Parrish, Andy Simmonett
                          and Daniel G. A. Smith
                              RKS Reference
                        5 Threads,  19073 MiB Core
         ---------------------------------------------------------

  ==> Geometry <==

    Molecular point group: c1
    Full point group: C1

    Geometry (in Angstrom), charge = 0, multiplicity = 1:

       Center              X                  Y                   Z               Mass       
    ------------   -----------------  -----------------  -----------------  -----------------
         N            1.975216417248    -0.152374623454    -0.810420624578    14.003074004430
         C            0.724573417248    -0.040052623454    -0.312077624578    12.000000000000
         C           -0.178515582752    -1.204217623454    -0.452769624578    12.000000000000
         C           -0.782050582752    -1.477032623454    -1.675022624578    12.000000000000
         C            0.350456417248     1.085797376546     0.369868375422    12.000000000000
         C           -0.453114582752    -2.015418623454     0.642185375422    12.000000000000
         H            2.509294417248     0.717214376546    -0.783447624578     1.007825032230
         C           -0.846451582752     1.379500376546     1.113958375422    12.000000000000
         N            0.472962417248     3.185606376546     1.171863375422    14.003074004430
         C            1.192200417248     2.277596376546     0.444492375422    12.000000000000
         C           -0.735096582752     2.639129376546     1.576302375422    12.000000000000
         C           -1.302130582752    -3.099136623454     0.507499375422    12.000000000000
         C           -1.635874582752    -2.558113623454    -1.804107624578    12.000000000000
         C           -1.893476582752    -3.372839623454    -0.714725624578    12.000000000000
         H            0.009532417248    -1.794878623454     1.592407375422     1.007825032230
         H           -0.585298582752    -0.836240623454    -2.523050624578     1.007825032230
         H            0.798016417248     4.109938376546     1.400356375422     1.007825032230
         O            2.303607417248     2.472811376546    -0.044946624578    15.994914619570
         H           -1.504401582752    -3.731633623454     1.359261375422     1.007825032230
         H           -2.102493582752    -2.763186623454    -2.756360624578     1.007825032230
         H           -2.557224582752    -4.218486623454    -0.817412624578     1.007825032230
         H           -1.667989582752     0.706289376546     1.257971375422     1.007825032230
         H           -1.414940582752     3.215554376546     2.173896375422     1.007825032230
         H            2.135510417248    -0.772090623454    -1.587896624578     1.007825032230

  Running in c1 symmetry.

  Rotational constants: A =      0.05396  B =      0.01407  C =      0.01240 [cm^-1]
  Rotational constants: A =   1617.73938  B =    421.81524  C =    371.72257 [MHz]
  Nuclear repulsion =  820.775143320673578

  Charge       = 0
  Multiplicity = 1
  Electrons    = 98
  Nalpha       = 49
  Nbeta        = 49

  ==> Algorithm <==

  SCF Algorithm Type is DF.
  DIIS enabled.
  MOM disabled.
  Fractional occupation disabled.
  Guess Type is SAD.
  Energy threshold   = 1.00e-06
  Density threshold  = 1.00e-06
  Integral threshold = 1.00e-12

  ==> Primary Basis <==

  Basis Set: 6-311+G*
    Blend: 6-311+G*
    Number of shells: 170
    Number of basis functions: 338
    Number of Cartesian functions: 352
    Spherical Harmonics?: true
    Max angular momentum: 2

  ==> DFT Potential <==

   => LibXC <=

    Version 5.1.5
    S. Lehtola, C. Steigemann, M. J. Oliveira, and M. A. Marques, SoftwareX 7, 1 (2018) (10.1016/j.softx.2017.11.002)

   => Composite Functional: WB97X-D <= 

    wB97X-D Hyb-GGA Exchange-Correlation Functional

    J.-D. Chai and M. Head-Gordon, Phys. Chem. Chem. Phys. 10, 6615 (2008) (10.1039/B810189B)

    Deriv               =              1
    GGA                 =           TRUE
    Meta                =          FALSE

    Exchange Hybrid     =           TRUE
    MP2 Hybrid          =          FALSE

   => Exchange-Correlation Functionals <=

    1.0000   wB97X-D range-separated functional

   => Exact (HF) Exchange <=

    0.7780            HF,LR [omega = 0.2000]
    0.2220               HF 

   => LibXC Density Thresholds  <==

    XC_HYB_GGA_XC_WB97X_D:  1.00E-14 

   => Molecular Quadrature <=

    Radial Scheme          =       TREUTLER
    Pruning Scheme         =           NONE
    Nuclear Scheme         =       TREUTLER

    Blocking Scheme        =         OCTREE
    BS radius alpha        =              1
    Pruning alpha          =              1
    Radial Points          =             75
    Spherical Points       =            302
    Total Points           =         502486
    Total Blocks           =           3659
    Max Points             =            256
    Max Functions          =            294
    Weights Tolerance      =       1.00E-15

   => Loading Basis Set <=

    Name: (6-311+G* AUX)
    Role: JKFIT
    Keyword: DF_BASIS_SCF
    atoms 1, 9            entry N          line   262 file /home/liuchw/anaconda3/envs/poltype2022/share/psi4/basis/heavy-aug-cc-pvtz-jkfit.gbs 
    atoms 2-6, 8, 10-14   entry C          line   200 file /home/liuchw/anaconda3/envs/poltype2022/share/psi4/basis/heavy-aug-cc-pvtz-jkfit.gbs 
    atoms 7, 15-17, 19-24 entry H          line   116 file /home/liuchw/anaconda3/envs/poltype2022/share/psi4/basis/heavy-aug-cc-pvtz-jkfit.gbs 
    atoms 18              entry O          line   324 file /home/liuchw/anaconda3/envs/poltype2022/share/psi4/basis/heavy-aug-cc-pvtz-jkfit.gbs 

  ==> Integral Setup <==

  DFHelper Memory: AOs need 3.988 GiB; user supplied 10.887 GiB. Using in-core AOs.

  ==> MemDFJK: Density-Fitted J/K Matrices <==

    J tasked:                   Yes
    K tasked:                   Yes
    wK tasked:                  Yes
    Omega:                2.000E-01
    OpenMP threads:               5
    Memory [MiB]:             11147
    Algorithm:                 Core
    Schwarz Cutoff:           1E-12
    Mask sparsity (%):      12.1722
    Fitting Condition:        1E-10

   => Auxiliary Basis Set <=

  Basis Set: (6-311+G* AUX)
    Blend: HEAVY-AUG-CC-PVTZ-JKFIT
    Number of shells: 520
    Number of basis functions: 1756
    Number of Cartesian functions: 2184
    Spherical Harmonics?: true
    Max angular momentum: 4

  Cached 100.0% of DFT collocation blocks in 3.083 [GiB].

  Minimum eigenvalue in the overlap matrix is 1.0144324543E-06.
  Reciprocal condition number of the overlap matrix is 6.7961992872E-08.
    Using symmetric orthogonalization.

  ==> Pre-Iterations <==

  SCF Guess: Superposition of Atomic Densities via on-the-fly atomic UHF (no occupation information).

   -------------------------
    Irrep   Nso     Nmo    
   -------------------------
     A        338     338 
   -------------------------
    Total     338     338
   -------------------------

  ==> Iterations <==

                           Total Energy        Delta E     RMS |[F,P]|

   @DF-RKS iter SAD:  -609.55586284948333   -6.09556e+02   0.00000e+00 
   @DF-RKS iter   1:  -609.22665219906276    3.29211e-01   3.38133e-03 ADIIS/DIIS
   @DF-RKS iter   2:  -609.49830022106073   -2.71648e-01   2.72627e-03 ADIIS/DIIS
   @DF-RKS iter   3:  -609.84904585675167   -3.50746e-01   3.94073e-04 ADIIS/DIIS
   @DF-RKS iter   4:  -609.85410838949906   -5.06253e-03   2.03898e-04 ADIIS/DIIS
   @DF-RKS iter   5:  -609.85584308610169   -1.73470e-03   4.61711e-05 DIIS
   @DF-RKS iter   6:  -609.85594471439151   -1.01628e-04   1.38754e-05 DIIS
   @DF-RKS iter   7:  -609.85595647452726   -1.17601e-05   3.26595e-06 DIIS
   @DF-RKS iter   8:  -609.85595756547809   -1.09095e-06   1.67053e-06 DIIS
   @DF-RKS iter   9:  -609.85595790361913   -3.38141e-07   7.21306e-07 DIIS
  Energy and wave function converged.


  ==> Post-Iterations <==

   Electrons on quadrature grid:
      Ntotal   =   98.0000358112 ; deviation = 3.581e-05 

    Orbital Energies [Eh]
    ---------------------

    Doubly Occupied:                                                      

       1A    -19.203077     2A    -14.460646     3A    -14.454412  
       4A    -10.372535     5A    -10.357129     6A    -10.313988  
       7A    -10.311082     8A    -10.304374     9A    -10.302352  
      10A    -10.301478    11A    -10.300945    12A    -10.300400  
      13A    -10.275414    14A    -10.271888    15A     -1.136174  
      16A     -1.056169    17A     -1.048497    18A     -0.980206  
      19A     -0.900143    20A     -0.872997    21A     -0.866539  
      22A     -0.817356    23A     -0.766115    24A     -0.721480  
      25A     -0.715330    26A     -0.684826    27A     -0.665589  
      28A     -0.631669    29A     -0.609122    30A     -0.592875  
      31A     -0.574395    32A     -0.563566    33A     -0.552425  
      34A     -0.527658    35A     -0.524257    36A     -0.514785  
      37A     -0.510315    38A     -0.496686    39A     -0.479203  
      40A     -0.474198    41A     -0.452729    42A     -0.446274  
      43A     -0.433463    44A     -0.410333    45A     -0.350263  
      46A     -0.346338    47A     -0.337910    48A     -0.332869  
      49A     -0.260123  

    Virtual:                                                              

      50A      0.022023    51A      0.042321    52A      0.044836  
      53A      0.053716    54A      0.064365    55A      0.069987  
      56A      0.076815    57A      0.084020    58A      0.092405  
      59A      0.095413    60A      0.099728    61A      0.106904  
      62A      0.114816    63A      0.116943    64A      0.125425  
      65A      0.127759    66A      0.134184    67A      0.141976  
      68A      0.150044    69A      0.156599    70A      0.159310  
      71A      0.165296    72A      0.171630    73A      0.177308  
      74A      0.181940    75A      0.185557    76A      0.189460  
      77A      0.197603    78A      0.205527    79A      0.207209  
      80A      0.209069    81A      0.211991    82A      0.213845  
      83A      0.215005    84A      0.224268    85A      0.232026  
      86A      0.242280    87A      0.244249    88A      0.247493  
      89A      0.249476    90A      0.254769    91A      0.258152  
      92A      0.259941    93A      0.264715    94A      0.269105  
      95A      0.271001    96A      0.272276    97A      0.279635  
      98A      0.282309    99A      0.287092   100A      0.292503  
     101A      0.293469   102A      0.299566   103A      0.304396  
     104A      0.311518   105A      0.313959   106A      0.317676  
     107A      0.321430   108A      0.325980   109A      0.329491  
     110A      0.331890   111A      0.336580   112A      0.348859  
     113A      0.352769   114A      0.360105   115A      0.365775  
     116A      0.381512   117A      0.390556   118A      0.393481  
     119A      0.394433   120A      0.406342   121A      0.408752  
     122A      0.416692   123A      0.421330   124A      0.425119  
     125A      0.429101   126A      0.438593   127A      0.452703  
     128A      0.464856   129A      0.484144   130A      0.499233  
     131A      0.516988   132A      0.539576   133A      0.546700  
     134A      0.575004   135A      0.591988   136A      0.599603  
     137A      0.609809   138A      0.618874   139A      0.624207  
     140A      0.627348   141A      0.633407   142A      0.640867  
     143A      0.646303   144A      0.647824   145A      0.659170  
     146A      0.674156   147A      0.676220   148A      0.686454  
     149A      0.702780   150A      0.714385   151A      0.723184  
     152A      0.732476   153A      0.735702   154A      0.750781  
     155A      0.764081   156A      0.769437   157A      0.774313  
     158A      0.777167   159A      0.783979   160A      0.792516  
     161A      0.805069   162A      0.812184   163A      0.819735  
     164A      0.833449   165A      0.839961   166A      0.848512  
     167A      0.851796   168A      0.869011   169A      0.872827  
     170A      0.890483   171A      0.906096   172A      0.913656  
     173A      0.923977   174A      0.931403   175A      0.935380  
     176A      0.936753   177A      0.943577   178A      0.956753  
     179A      0.967353   180A      0.973813   181A      0.997618  
     182A      1.008767   183A      1.012630   184A      1.019427  
     185A      1.033828   186A      1.044036   187A      1.058676  
     188A      1.086561   189A      1.099669   190A      1.108498  
     191A      1.119990   192A      1.121737   193A      1.140154  
     194A      1.166558   195A      1.200899   196A      1.218883  
     197A      1.236674   198A      1.253302   199A      1.257111  
     200A      1.264162   201A      1.282036   202A      1.298770  
     203A      1.318260   204A      1.328109   205A      1.334591  
     206A      1.356642   207A      1.376730   208A      1.389241  
     209A      1.401347   210A      1.451551   211A      1.460441  
     212A      1.515034   213A      1.532066   214A      1.554713  
     215A      1.594685   216A      1.602664   217A      1.624687  
     218A      1.629066   219A      1.675629   220A      1.713996  
     221A      1.735862   222A      1.749387   223A      1.790854  
     224A      1.839265   225A      1.843951   226A      1.862960  
     227A      1.866116   228A      1.873736   229A      1.889834  
     230A      1.916110   231A      1.924460   232A      1.947966  
     233A      1.950155   234A      1.973603   235A      1.986146  
     236A      2.003470   237A      2.024598   238A      2.034291  
     239A      2.050598   240A      2.073769   241A      2.080415  
     242A      2.085901   243A      2.091805   244A      2.137436  
     245A      2.162667   246A      2.215737   247A      2.243267  
     248A      2.264052   249A      2.307144   250A      2.338592  
     251A      2.339984   252A      2.346388   253A      2.362547  
     254A      2.403963   255A      2.411430   256A      2.432856  
     257A      2.441720   258A      2.483923   259A      2.507921  
     260A      2.509072   261A      2.524513   262A      2.535949  
     263A      2.603081   264A      2.657201   265A      2.699781  
     266A      2.719530   267A      2.741920   268A      2.760565  
     269A      2.799939   270A      2.807612   271A      2.822938  
     272A      2.853703   273A      2.878121   274A      2.889913  
     275A      2.900653   276A      2.911907   277A      2.967212  
     278A      2.973783   279A      3.001388   280A      3.013091  
     281A      3.055506   282A      3.057986   283A      3.109831  
     284A      3.116697   285A      3.127707   286A      3.157862  
     287A      3.190939   288A      3.236099   289A      3.272582  
     290A      3.275224   291A      3.346970   292A      3.408515  
     293A      3.411991   294A      3.420360   295A      3.432121  
     296A      3.447803   297A      3.465950   298A      3.469798  
     299A      3.540893   300A      3.562773   301A      3.570663  
     302A      3.608206   303A      3.654964   304A      3.667042  
     305A      3.693222   306A      3.728212   307A      3.794477  
     308A      3.869543   309A      3.986887   310A      4.017484  
     311A      4.028113   312A      4.061017   313A      4.122881  
     314A      4.188425   315A      4.324384   316A      4.366736  
     317A      4.512501   318A      4.652178   319A      4.894095  
     320A      4.906235   321A      5.160043   322A      5.199270  
     323A      5.398610   324A      5.923157   325A     23.488047  
     326A     23.718870   327A     23.948726   328A     23.986067  
     329A     24.031759   330A     24.065706   331A     24.172178  
     332A     24.199643   333A     24.270484   334A     24.308455  
     335A     24.339091   336A     35.667939   337A     35.671173  
     338A     50.218092  

    Final Occupation by Irrep:
              A 
    DOCC [    49 ]

  @DF-RKS Final Energy:  -609.85595790361913

   => Energetics <=

    Nuclear Repulsion Energy =            820.7751433206735783
    One-Electron Energy =               -2454.5733247356884021
    Two-Electron Energy =                1083.2898760460773246
    DFT Exchange-Correlation Energy =     -59.3334148007890150
    Empirical Dispersion Energy =          -0.0142377338926698
    VV10 Nonlocal Energy =                  0.0000000000000000
    Total Energy =                       -609.8559579036191280

Computation Completed


Properties will be evaluated at   0.000000,   0.000000,   0.000000 [a0]

Properties computed using the SCF density matrix


 Multipole Moments:

 ------------------------------------------------------------------------------------
     Multipole            Electronic (a.u.)      Nuclear  (a.u.)        Total (a.u.)
 ------------------------------------------------------------------------------------

 L = 1.  Multiply by 2.5417464519 to convert [e a0] to [Debye]
 Dipole X            :          3.1155564           -4.1021534           -0.9865970
 Dipole Y            :          4.2467820           -5.0288146           -0.7820326
 Dipole Z            :          0.5326103           -0.6427529           -0.1101426
 Magnitude           :                                                    1.2637564

 ------------------------------------------------------------------------------------

*** tstop() called on node165.bme.utexas.edu at Sat Nov 18 08:46:07 2023
Module time:
	user time   =      97.90 seconds =       1.63 minutes
	system time =       3.73 seconds =       0.06 minutes
	total time  =         21 seconds =       0.35 minutes
Total time:
	user time   =      97.90 seconds =       1.63 minutes
	system time =       3.73 seconds =       0.06 minutes
	total time  =         21 seconds =       0.35 minutes


Properties will be evaluated at   0.000000,   0.000000,   0.000000 [a0]
OEProp: No title given, name of density matrix used for the following properties is 'SCF density'


  Wiberg Bond Indices using Orthogonal Lowdin Orbitals:

  Irrep: 1 Size: 24 x 24

                 1                   2                   3                   4                   5

    1     0.00000000000000     1.48129021869117     0.11683993933475     0.03985538525295     0.19332188176096
    2     1.48129021869117     0.00000000000000     1.00571014751236     0.12376895826803     1.46249374903091
    3     0.11683993933475     1.00571014751236     0.00000000000000     1.42312381512396     0.11764620713423
    4     0.03985538525295     0.12376895826803     1.42312381512396     0.00000000000000     0.03071680972317
    5     0.19332188176096     1.46249374903091     0.11764620713423     0.03071680972317     0.00000000000000
    6     0.02840891318118     0.12306082443372     1.41766747889690     0.13114648298925     0.04013974045197
    7     0.78427900544399     0.04735306815355     0.00949022635838     0.00137996383091     0.01479562638491
    8     0.02298166334143     0.11337149370794     0.03531287564507     0.00962584111647     1.15654993699155
    9     0.00515193536115     0.01798017192748     0.00279953990677     0.00081163871327     0.13403461730281
   10     0.06568090004526     0.13497682360235     0.01536111244217     0.00387733325022     1.07333979845981
   11     0.02876476344062     0.07489825165345     0.00625946809420     0.00182895798746     0.16911147819546
   12     0.00318792380927     0.01661869930262     0.13684998222038     0.14678946925341     0.00464029894413
   13     0.00405030242959     0.01695380700440     0.13702623272207     1.51995814507079     0.00399876087488
   14     0.00433074365484     0.01081718910096     0.13856061830254     0.14038937628023     0.00442371304422
   15     0.00163926871636     0.01739830685106     0.05649715382155     0.00948498436084     0.00688826949802
   16     0.00481162151677     0.01804958088079     0.05729760335621     0.81302416663191     0.00323330045410
   17     0.00029627576357     0.00163172799055     0.00048016471256     0.00011387997669     0.01184141886631
   18     0.10526642292856     0.08115608044552     0.00488811016371     0.00201084676548     0.14464106666685
   19     0.00023458918946     0.00127637778438     0.01074022563264     0.00251920685866     0.00027441930190
   20     0.00017273063875     0.00123589812847     0.01070784879364     0.06082939209191     0.00033560805121
   21     0.00004819305912     0.00028307107629     0.00298499676652     0.01139707781919     0.00005742482755
   22     0.00019351438600     0.01093633498691     0.00889226358666     0.00203051235349     0.05002872312037
   23     0.00042701264232     0.00172065852992     0.00032805250562     0.00008131703367     0.01388784918689
   24     0.83653639100977     0.05041917423629     0.01433268096191     0.00558656222029     0.01259369475923

                 6                   7                   8                   9                  10

    1     0.02840891318118     0.78427900544399     0.02298166334143     0.00515193536115     0.06568090004526
    2     0.12306082443372     0.04735306815355     0.11337149370794     0.01798017192748     0.13497682360235
    3     1.41766747889690     0.00949022635838     0.03531287564507     0.00279953990677     0.01536111244217
    4     0.13114648298925     0.00137996383091     0.00962584111647     0.00081163871327     0.00387733325022
    5     0.04013974045197     0.01479562638491     1.15654993699155     0.13403461730281     1.07333979845981
    6     0.00000000000000     0.00130455773730     0.02602257141221     0.00137207252567     0.00456737100647
    7     0.00130455773730     0.00000000000000     0.00123720293970     0.00115660982650     0.01278910175616
    8     0.02602257141221     0.00123720293970     0.00000000000000     0.19951709610168     0.13588623867364
    9     0.00137207252567     0.00115660982650     0.19951709610168     0.00000000000000     1.33965492233264
   10     0.00456737100647     0.01278910175616     0.13588623867364     1.33965492233264     0.00000000000000
   11     0.00376379237587     0.00050206855357     1.79930661163315     1.27712393102651     0.14125860356148
   12     1.52075373170473     0.00022930766035     0.00441020640358     0.00026807306946     0.00072974745301
   13     0.14638256004254     0.00019787645153     0.00179271945526     0.00019387049379     0.00058305627723
   14     0.14045817946834     0.00043519065955     0.00152795682153     0.00015445077223     0.00087043803906
   15     0.80843350488858     0.00003572268573     0.00456101903924     0.00016641252801     0.00045054115427
   16     0.00981869506615     0.00007034378299     0.00058025964154     0.00004070869491     0.00020305570295
   17     0.00012502548770     0.00011911232829     0.01092359895993     0.80552742756297     0.04386908408423
   18     0.00227759915407     0.05291389788105     0.02305856940755     0.21815181272002     2.09806587982955
   19     0.06081711552591     0.00000851205467     0.00008538536192     0.00001143197853     0.00005639229249
   20     0.00254304505779     0.00000839704846     0.00007257202089     0.00001495105291     0.00006612222528
   21     0.01132461363161     0.00001077893710     0.00001912309602     0.00000517817922     0.00001412088691
   22     0.00797246329664     0.00005113322820     0.81413817564227     0.01105082336545     0.00983172456979
   23     0.00014714258280     0.00019282331938     0.05894366402092     0.05650429671484     0.01241216790387
   24     0.00199204069435     0.01184077835880     0.00123845813033     0.00020728252363     0.00251200955154

                11                  12                  13                  14                  15

    1     0.02876476344062     0.00318792380927     0.00405030242959     0.00433074365484     0.00163926871636
    2     0.07489825165345     0.01661869930262     0.01695380700440     0.01081718910096     0.01739830685106
    3     0.00625946809420     0.13684998222038     0.13702623272207     0.13856061830254     0.05649715382155
    4     0.00182895798746     0.14678946925341     1.51995814507079     0.14038937628023     0.00948498436084
    5     0.16911147819546     0.00464029894413     0.00399876087488     0.00442371304422     0.00688826949802
    6     0.00376379237587     1.52075373170473     0.14638256004254     0.14045817946834     0.80843350488858
    7     0.00050206855357     0.00022930766035     0.00019787645153     0.00043519065955     0.00003572268573
    8     1.79930661163315     0.00441020640358     0.00179271945526     0.00152795682153     0.00456101903924
    9     1.27712393102651     0.00026807306946     0.00019387049379     0.00015445077223     0.00016641252801
   10     0.14125860356148     0.00072974745301     0.00058305627723     0.00087043803906     0.00045054115427
   11     0.00000000000000     0.00058697321788     0.00031234390753     0.00041877599962     0.00029934091434
   12     0.00058697321788     0.00000000000000     0.13953160901848     1.51931183658525     0.05605699356170
   13     0.00031234390753     0.13953160901848     0.00000000000000     1.52144841943963     0.00221835665101
   14     0.00041877599962     1.51931183658525     1.52144841943963     0.00000000000000     0.01055951272930
   15     0.00029934091434     0.05605699356170     0.00221835665101     0.01055951272930     0.00000000000000
   16     0.00005275913588     0.00232753869482     0.05670935040627     0.01072385739209     0.00032616319713
   17     0.04270523901888     0.00002439540075     0.00002380506921     0.00004329123120     0.00000412561370
   18     0.02507558026532     0.00039138261441     0.00034500503224     0.00040700418597     0.00019246963611
   19     0.00005411114341     0.83132987146906     0.01130750723262     0.05967409486462     0.00528003200262
   20     0.00003916959392     0.01131593857253     0.83157965379600     0.05966662880473     0.00026395695231
   21     0.00000649318053     0.05963419891917     0.05976504697687     0.83339543085243     0.00023693859525
   22     0.05985148365946     0.00135038847513     0.00050841273416     0.00040381223074     0.00061377814054
   23     0.83323666571208     0.00001968870308     0.00001614193326     0.00000844577306     0.00001001453622
   24     0.00122521151909     0.00039243637607     0.00047878932367     0.00042209863618     0.00001589131807

                16                  17                  18                  19                  20

    1     0.00481162151677     0.00029627576357     0.10526642292856     0.00023458918946     0.00017273063875
    2     0.01804958088079     0.00163172799055     0.08115608044552     0.00127637778438     0.00123589812847
    3     0.05729760335621     0.00048016471256     0.00488811016371     0.01074022563264     0.01070784879364
    4     0.81302416663191     0.00011387997669     0.00201084676548     0.00251920685866     0.06082939209191
    5     0.00323330045410     0.01184141886631     0.14464106666685     0.00027441930190     0.00033560805121
    6     0.00981869506615     0.00012502548770     0.00227759915407     0.06081711552591     0.00254304505779
    7     0.00007034378299     0.00011911232829     0.05291389788105     0.00000851205467     0.00000839704846
    8     0.00058025964154     0.01092359895993     0.02305856940755     0.00008538536192     0.00007257202089
    9     0.00004070869491     0.80552742756297     0.21815181272002     0.00001143197853     0.00001495105291
   10     0.00020305570295     0.04386908408423     2.09806587982955     0.00005639229249     0.00006612222528
   11     0.00005275913588     0.04270523901888     0.02507558026532     0.00005411114341     0.00003916959392
   12     0.00232753869482     0.00002439540075     0.00039138261441     0.83132987146906     0.01131593857253
   13     0.05670935040627     0.00002380506921     0.00034500503224     0.01130750723262     0.83157965379600
   14     0.01072385739209     0.00004329123120     0.00040700418597     0.05967409486462     0.05966662880473
   15     0.00032616319713     0.00000412561370     0.00019246963611     0.00528003200262     0.00026395695231
   16     0.00000000000000     0.00000219733237     0.00011023148016     0.00027409429163     0.00534282499094
   17     0.00000219733237     0.00000000000000     0.01020979737464     0.00000063995017     0.00000067626927
   18     0.00011023148016     0.01020979737464     0.00000000000000     0.00004342403967     0.00003831051957
   19     0.00027409429163     0.00000063995017     0.00004342403967     0.00000000000000     0.00023981630819
   20     0.00534282499094     0.00000067626927     0.00003831051957     0.00023981630819     0.00000000000000
   21     0.00022942706577     0.00000049667254     0.00000470534370     0.00541747884917     0.00541399065395
   22     0.00003084028100     0.00043043070201     0.00202574618999     0.00001333832489     0.00000075691533
   23     0.00000780210850     0.00316656333407     0.00166563051731     0.00000264547055     0.00000143333653
   24     0.00018269896803     0.00001493317324     0.00140690788401     0.00003406659571     0.00003160497524

                21                  22                  23                  24

    1     0.00004819305912     0.00019351438600     0.00042701264232     0.83653639100977
    2     0.00028307107629     0.01093633498691     0.00172065852992     0.05041917423629
    3     0.00298499676652     0.00889226358666     0.00032805250562     0.01433268096191
    4     0.01139707781919     0.00203051235349     0.00008131703367     0.00558656222029
    5     0.00005742482755     0.05002872312037     0.01388784918689     0.01259369475923
    6     0.01132461363161     0.00797246329664     0.00014714258280     0.00199204069435
    7     0.00001077893710     0.00005113322820     0.00019282331938     0.01184077835880
    8     0.00001912309602     0.81413817564227     0.05894366402092     0.00123845813033
    9     0.00000517817922     0.01105082336545     0.05650429671484     0.00020728252363
   10     0.00001412088691     0.00983172456979     0.01241216790387     0.00251200955154
   11     0.00000649318053     0.05985148365946     0.83323666571208     0.00122521151909
   12     0.05963419891917     0.00135038847513     0.00001968870308     0.00039243637607
   13     0.05976504697687     0.00050841273416     0.00001614193326     0.00047878932367
   14     0.83339543085243     0.00040381223074     0.00000844577306     0.00042209863618
   15     0.00023693859525     0.00061377814054     0.00001001453622     0.00001589131807
   16     0.00022942706577     0.00003084028100     0.00000780210850     0.00018269896803
   17     0.00000049667254     0.00043043070201     0.00316656333407     0.00001493317324
   18     0.00000470534370     0.00202574618999     0.00166563051731     0.00140690788401
   19     0.00541747884917     0.00001333832489     0.00000264547055     0.00003406659571
   20     0.00541399065395     0.00000075691533     0.00000143333653     0.00003160497524
   21     0.00000000000000     0.00000370251421     0.00000058295183     0.00000789683760
   22     0.00000370251421     0.00000000000000     0.00252233615300     0.00008019367324
   23     0.00000058295183     0.00252233615300     0.00000000000000     0.00001867665090
   24     0.00000789683760     0.00008019367324     0.00001867665090     0.00000000000000



  Atomic Valences: 

 #  #
 Irrep: 1
      1:    3.727769595597840
      2:    4.813400613299132
      3:    4.729796743994779
      4:    4.480350122972231
      5:    4.648994393031455
      6:    4.490499521611741
      7:    0.940401305381059
      8:    4.421163239563842
      9:    4.071899254680454
     10:    5.097056545100375
     11:    4.466682073789726
     12:    4.456750691429243
     13:    4.455381772343035
     14:    4.458451064868327
     15:    0.981632757391951
     16:    0.983449121072886
     17:    0.931554306874871
     18:    2.774346481045448
     19:    0.989694776522864
     20:    0.989921326797808
     21:    0.990260967692530
     22:    0.982960888529489
     23:    0.985321611620604
     24:    0.941570478377166


    Psi4 stopped on: Saturday, 18 November 2023 08:46AM
    Psi4 wall time for execution: 0:00:21.89

*** Psi4 exiting successfully. Buy a developer a beer!
