      -----------------------------------------------------------      
     |                   =====================                   |     
     |                           x T B                           |     
     |                   =====================                   |     
     |                         S. Grimme                         |     
     |          Mulliken Center for Theoretical Chemistry        |     
     |                    University of Bonn                     |     
      -----------------------------------------------------------      

   * xtb version 6.5.0 (97a52f5) compiled by 'conda@d2599ee0d4f4' on 2022-05-15

   xtb is free software: you can redistribute it and/or modify it under
   the terms of the GNU Lesser General Public License as published by
   the Free Software Foundation, either version 3 of the License, or
   (at your option) any later version.
   
   xtb is distributed in the hope that it will be useful,
   but WITHOUT ANY WARRANTY; without even the implied warranty of
   MERCHANTABILITY or FITNESS FOR A PARTICULAR PURPOSE.  See the
   GNU Lesser General Public License for more details.
   
   Cite this work as:
   * C. Bannwarth, E. Caldeweyher, S. Ehlert, A. Hansen, P. Pracht,
     J. Seibert, S. Spicher, S. Grimme, WIREs Comput. Mol. Sci., 2020, 11,
     e01493. DOI: 10.1002/wcms.1493
   
   for GFN2-xTB:
   * C. Bannwarth, S. Ehlert and S. Grimme., J. Chem. Theory Comput., 2019,
     15, 1652-1671. DOI: 10.1021/acs.jctc.8b01176
   for GFN1-xTB:
   * S. Grimme, C. Bannwarth, P. Shushkov, J. Chem. Theory Comput., 2017,
     13, 1989-2009. DOI: 10.1021/acs.jctc.7b00118
   for GFN0-xTB:
   * P. Pracht, E. Caldeweyher, S. Ehlert, S. Grimme, ChemRxiv, 2019, preprint.
     DOI: 10.26434/chemrxiv.8326202.v1
   for GFN-FF:
   * S. Spicher and S. Grimme, Angew. Chem. Int. Ed., 2020, 59, 15665-15673.
     DOI: 10.1002/anie.202004239
   
   for ALPB and GBSA implicit solvation:
   * S. Ehlert, M. Stahn, S. Spicher, S. Grimme, J. Chem. Theory Comput.,
     2021, 17, 4250-4261. DOI: 10.1021/acs.jctc.1c00471
   
   for DFT-D4:
   * E. Caldeweyher, C. Bannwarth and S. Grimme, J. Chem. Phys., 2017,
     147, 034112. DOI: 10.1063/1.4993215
   * E. Caldeweyher, S. Ehlert, A. Hansen, H. Neugebauer, S. Spicher,
     C. Bannwarth and S. Grimme, J. Chem. Phys., 2019, 150, 154122.
     DOI: 10.1063/1.5090222
   * E. Caldeweyher, J.-M. Mewes, S. Ehlert and S. Grimme, Phys. Chem. Chem. Phys.
     2020, 22, 8499-8512. DOI: 10.1039/D0CP00502A
   
   for sTDA-xTB:
   * S. Grimme and C. Bannwarth, J. Chem. Phys., 2016, 145, 054103.
     DOI: 10.1063/1.4959605
   
   in the mass-spec context:
   * V. Asgeirsson, C. Bauer and S. Grimme, Chem. Sci., 2017, 8, 4879.
     DOI: 10.1039/c7sc00601b
   * J. Koopman and S. Grimme, ACS Omega 2019, 4, 12, 15120-15133.
     DOI: 10.1021/acsomega.9b02011
   
   for metadynamics refer to:
   * S. Grimme, J. Chem. Theory Comput., 2019, 155, 2847-2862
     DOI: 10.1021/acs.jctc.9b00143
   
   for SPH calculations refer to:
   * S. Spicher and S. Grimme, J. Chem. Theory Comput., 2021, 17, 1701-1714
     DOI: 10.1021/acs.jctc.0c01306
   
   with help from (in alphabetical order)
   P. Atkinson, C. Bannwarth, F. Bohle, G. Brandenburg, E. Caldeweyher
   M. Checinski, S. Dohm, S. Ehlert, S. Ehrlich, I. Gerasimov, C. Hölzer
   A. Katbashev, J. Koopman, C. Lavigne, S. Lehtola, F. März, M. Müller,
   F. Musil, H. Neugebauer, J. Pisarek, C. Plett, P. Pracht, F. Pultar,
   J. Seibert, P. Shushkov, S. Spicher, M. Stahn, M. Steiner, T. Strunk,
   J. Stückrath, T. Rose, and J. Unsleber
   
 * started run on 2023/11/18 at 08:42:22.329     

           -------------------------------------------------
          |                Calculation Setup                |
           -------------------------------------------------

          program call               : /home/liuchw/anaconda3/envs/xtbenv/bin/xtb --gfn 2 --chrg 0 --uhf 0 7_11_Index_0-opt-2-3-013_preQMOPTprefit_xyzformat.xyz --opt --input xtb-opt-2-3-013_constr.txt
          hostname                   : node165.bme.utexas.edu
          coordinate file            : 7_11_Index_0-opt-2-3-013_preQMOPTprefit_xyzformat.xyz
          omp threads                :                    64

   ID    Z sym.   atoms
    1    7 N      1, 9
    2    6 C      2-6, 8, 10-14
    3    1 H      7, 15-17, 19-24
    4    8 O      18
constraining angle 1 2 3 4 to   13.2707059°, actual value:   13.2707059°
constraining angle 24 1 2 3 to   28.0714764°, actual value:   28.0714764°
constraining angle 24 1 2 5 to  203.9693266°, actual value: -156.0306734°
constraining angle 7 1 2 3 to  173.0506452°, actual value:  173.0506452°
constraining angle 7 1 2 5 to  348.9484953°, actual value:  -11.0515047°
constraining angle 1 2 5 8 to  188.1054592°, actual value: -171.8945408°

           -------------------------------------------------
          |                 G F N 2 - x T B                 |
           -------------------------------------------------

        Reference                      10.1021/acs.jctc.8b01176
      * Hamiltonian:
        H0-scaling (s, p, d)           1.850000    2.230000    2.230000
        zeta-weighting                 0.500000
      * Dispersion:
        s8                             2.700000
        a1                             0.520000
        a2                             5.000000
        s9                             5.000000
      * Repulsion:
        kExp                           1.500000    1.000000
        rExp                           1.000000
      * Coulomb:
        alpha                          2.000000
        third order                    shell-resolved
        anisotropic                    true
        a3                             3.000000
        a5                             4.000000
        cn-shift                       1.200000
        cn-exp                         4.000000
        max-rad                        5.000000

q/qsh data taken from xtbrestart
CAMM data taken from xtbrestart

          ...................................................
          :                      SETUP                      :
          :.................................................:
          :  # basis functions                  66          :
          :  # atomic orbitals                  66          :
          :  # shells                           38          :
          :  # electrons                        70          :
          :  max. iterations                   250          :
          :  Hamiltonian                  GFN2-xTB          :
          :  restarted?                       true          :
          :  GBSA solvation                  false          :
          :  PC potential                    false          :
          :  electronic temp.          300.0000000     K    :
          :  accuracy                    1.0000000          :
          :  -> integral cutoff          0.2500000E+02      :
          :  -> integral neglect         0.1000000E-07      :
          :  -> SCF convergence          0.1000000E-05 Eh   :
          :  -> wf. convergence          0.1000000E-03 e    :
          :  Broyden damping             0.4000000          :
          ...................................................

 iter      E             dE          RMSdq      gap      omega  full diag
   1    -39.0881194 -0.390881E+02  0.296E+00    1.85       0.0  T
   2    -39.0885237 -0.404360E-03  0.174E+00    1.90       1.0  T
   3    -39.0847944  0.372928E-02  0.375E-01    1.81       1.0  T
   4    -39.0888213 -0.402690E-02  0.669E-02    1.89       1.0  T
   5    -39.0889056 -0.842787E-04  0.282E-02    1.88       1.0  T
   6    -39.0889086 -0.294027E-05  0.160E-02    1.88       1.3  T
   7    -39.0889110 -0.242626E-05  0.377E-03    1.88       5.4  T
   8    -39.0889112 -0.175991E-06  0.152E-03    1.88      13.5  T
   9    -39.0889112 -0.694659E-08  0.677E-04    1.88      30.2  T
  10    -39.0889112 -0.456171E-08  0.261E-04    1.88      78.2  T

   *** convergence criteria satisfied after 10 iterations ***

         #    Occupation            Energy/Eh            Energy/eV
      -------------------------------------------------------------
         1        2.0000           -0.6721863             -18.2911
       ...           ...                  ...                  ...
        29        2.0000           -0.4379261             -11.9166
        30        2.0000           -0.4305754             -11.7166
        31        2.0000           -0.4109247             -11.1818
        32        2.0000           -0.4079716             -11.1015
        33        2.0000           -0.3954271             -10.7601
        34        2.0000           -0.3773812             -10.2691
        35        2.0000           -0.3481737              -9.4743 (HOMO)
        36                         -0.2790120              -7.5923 (LUMO)
        37                         -0.2365159              -6.4359
        38                         -0.2206347              -6.0038
        39                         -0.1743663              -4.7447
        40                         -0.1307047              -3.5567
       ...                                ...                  ...
        66                          0.6655782              18.1113
      -------------------------------------------------------------
                  HL-Gap            0.0691617 Eh            1.8820 eV
             Fermi-level           -0.3135929 Eh           -8.5333 eV

 SCC (total)                   0 d,  0 h,  0 min,  1.433 sec
 SCC setup                      ...        0 min,  0.015 sec (  1.068%)
 Dispersion                     ...        0 min,  0.022 sec (  1.521%)
 classical contributions        ...        0 min,  0.007 sec (  0.482%)
 integral evaluation            ...        0 min,  0.033 sec (  2.269%)
 iterations                     ...        0 min,  1.192 sec ( 83.140%)
 molecular gradient             ...        0 min,  0.149 sec ( 10.402%)
 printout                       ...        0 min,  0.016 sec (  1.104%)

         :::::::::::::::::::::::::::::::::::::::::::::::::::::
         ::                     SUMMARY                     ::
         :::::::::::::::::::::::::::::::::::::::::::::::::::::
         :: total energy             -38.538478264614 Eh    ::
         :: gradient norm              0.074544820160 Eh/a0 ::
         :: HOMO-LUMO gap              1.881984327504 eV    ::
         ::.................................................::
         :: SCC energy               -39.088911181581 Eh    ::
         :: -> isotropic ES            0.049913972512 Eh    ::
         :: -> anisotropic ES          0.001522550286 Eh    ::
         :: -> anisotropic XC          0.020190650981 Eh    ::
         :: -> dispersion             -0.023254789353 Eh    ::
         :: repulsion energy           0.550429330271 Eh    ::
         :: add. restraining           0.000000000000 Eh    ::
         :: total charge               0.000000000000 e     ::
         :::::::::::::::::::::::::::::::::::::::::::::::::::::

      ----------------------------------------------------------- 
     |                   =====================                   |
     |                        A N C O P T                        |
     |                   =====================                   |
     |               Approximate Normal Coordinate               |
     |                Rational Function Optimizer                |
      ----------------------------------------------------------- 

          ...................................................
          :                      SETUP                      :
          :.................................................:
          :   optimization level            normal          :
          :   max. optcycles                   200          :
          :   ANC micro-cycles                  20          :
          :   degrees of freedom                66          :
          :.................................................:
          :   RF solver                   davidson          :
          :   write xtbopt.log                true          :
          :   linear?                        false          :
          :   energy convergence         0.5000000E-05 Eh   :
          :   grad. convergence          0.1000000E-02 Eh/α :
          :   maximium RF displ.         1.0000000          :
          :   Hlow (freq-cutoff)         0.1000000E-01      :
          :   Hmax (freq-cutoff)         5.0000000          :
          :   S6 in model hess.         20.0000000          :
          ...................................................

generating ANC from model Hessian ...
Using Lindh-Hessian (1995)
 Shifting diagonal of input Hessian by    8.1118019978705762E-003
 Lowest  eigenvalues of input Hessian
    0.000000    0.000000    0.000000    0.000000    0.000000    0.000000
    0.010000    0.010402    0.011432    0.014936    0.017142    0.021509
    0.024942    0.027128    0.029328    0.029931    0.033073    0.039728
 Highest eigenvalues
    1.982841    2.247717    3.365364    7.138140    9.272116   23.528536


........................................................................
.............................. CYCLE    1 ..............................
........................................................................
   1    -39.0889112 -0.390889E+02  0.988E-05    1.88       0.0  T
   2    -39.0889112 -0.144453E-10  0.599E-05    1.88     340.9  T
   3    -39.0889112  0.129816E-10  0.396E-05    1.88     514.8  T
     SCC iter.                  ...        0 min,  0.357 sec
     gradient                   ...        0 min,  0.164 sec
 * total energy  :   -38.5384783 Eh     change       -0.8598064E-09 Eh
   gradient norm :     0.0745451 Eh/α   predicted     0.0000000E+00 (-100.00%)
   displ. norm   :     0.3354120 α      lambda       -0.1527081E-01
   maximum displ.:     0.1552375 α      in ANC's #15, #29, #7, ...

........................................................................
.............................. CYCLE    2 ..............................
........................................................................
   1    -39.1535303 -0.391535E+02  0.242E-01    1.95       0.0  T
   2    -39.1536614 -0.131185E-03  0.151E-01    1.92       1.0  T
   3    -39.1536166  0.448171E-04  0.928E-02    1.95       1.0  T
   4    -39.1537173 -0.100699E-03  0.297E-02    1.93       1.0  T
   5    -39.1537388 -0.214867E-04  0.739E-03    1.93       2.8  T
   6    -39.1537396 -0.745874E-06  0.376E-03    1.93       5.4  T
   7    -39.1537397 -0.136300E-06  0.141E-03    1.93      14.5  T
   8    -39.1537397 -0.152438E-07  0.527E-04    1.93      38.7  T
   9    -39.1537397 -0.665004E-09  0.188E-04    1.93     108.4  T
     SCC iter.                  ...        0 min,  1.035 sec
     gradient                   ...        0 min,  0.164 sec
 * total energy  :   -38.5483279 Eh     change       -0.9849681E-02 Eh
   gradient norm :     0.0603673 Eh/α   predicted    -0.8500670E-02 ( -13.70%)
   displ. norm   :     0.2528045 α      lambda       -0.3692186E-02
   maximum displ.:     0.1474319 α      in ANC's #7, #12, #15, ...

........................................................................
.............................. CYCLE    3 ..............................
........................................................................
   1    -39.1824253 -0.391824E+02  0.138E-01    1.95       0.0  T
   2    -39.1824483 -0.229516E-04  0.879E-02    1.94       1.0  T
   3    -39.1824079  0.404263E-04  0.558E-02    1.96       1.0  T
   4    -39.1824680 -0.601449E-04  0.141E-02    1.94       1.5  T
   5    -39.1824722 -0.414778E-05  0.335E-03    1.95       6.1  T
   6    -39.1824723 -0.111259E-06  0.175E-03    1.95      11.7  T
   7    -39.1824723 -0.220887E-07  0.642E-04    1.95      31.8  T
   8    -39.1824723 -0.410802E-08  0.214E-04    1.95      95.6  T
     SCC iter.                  ...        0 min,  0.988 sec
     gradient                   ...        0 min,  0.160 sec
 * total energy  :   -38.5476703 Eh     change        0.6576094E-03 Eh
   gradient norm :     0.3110984 Eh/α   predicted    -0.1964089E-02 (-398.67%)
   displ. norm   :     0.1071187 α      lambda       -0.5172072E-02
   maximum displ.:     0.0639210 α      in ANC's #7, #12, #2, ...

........................................................................
.............................. CYCLE    4 ..............................
........................................................................
   1    -39.1886167 -0.391886E+02  0.625E-02    1.95       0.0  T
   2    -39.1886169 -0.207942E-06  0.400E-02    1.94       1.0  T
   3    -39.1886022  0.146591E-04  0.294E-02    1.95       1.0  T
   4    -39.1886229 -0.207284E-04  0.275E-03    1.94       7.4  T
   5    -39.1886231 -0.120894E-06  0.114E-03    1.94      18.0  T
   6    -39.1886231 -0.806227E-08  0.456E-04    1.94      44.8  T
   7    -39.1886231 -0.118009E-08  0.146E-04    1.94     139.7  T
     SCC iter.                  ...        0 min,  0.851 sec
     gradient                   ...        0 min,  0.171 sec
 * total energy  :   -38.5493842 Eh     change       -0.1713873E-02 Eh
   gradient norm :     0.0957778 Eh/α   predicted    -0.2615743E-02 (  52.62%)
   displ. norm   :     0.1177725 α      lambda       -0.1104149E-02
   maximum displ.:     0.0481451 α      in ANC's #7, #14, #12, ...

........................................................................
.............................. CYCLE    5 ..............................
........................................................................
   1    -39.1735436 -0.391735E+02  0.732E-02    1.93       0.0  T
   2    -39.1735512 -0.752529E-05  0.476E-02    1.94       1.0  T
   3    -39.1735441  0.706945E-05  0.307E-02    1.93       1.0  T
   4    -39.1735595 -0.153884E-04  0.847E-03    1.93       2.4  T
   5    -39.1735610 -0.152206E-05  0.187E-03    1.93      10.9  T
   6    -39.1735610 -0.402926E-07  0.919E-04    1.93      22.2  T
   7    -39.1735611 -0.622303E-08  0.341E-04    1.93      59.9  T
     SCC iter.                  ...        0 min,  0.888 sec
     gradient                   ...        0 min,  0.165 sec
 * total energy  :   -38.5497844 Eh     change       -0.4002168E-03 Eh
   gradient norm :     0.0259208 Eh/α   predicted    -0.5576512E-03 (  39.34%)
   displ. norm   :     0.0539212 α      lambda       -0.3461877E-03
   maximum displ.:     0.0339174 α      in ANC's #2, #3, #7, ...

........................................................................
.............................. CYCLE    6 ..............................
........................................................................
   1    -39.1768505 -0.391769E+02  0.283E-02    1.94       0.0  T
   2    -39.1768509 -0.432926E-06  0.175E-02    1.93       1.2  T
   3    -39.1768485  0.239624E-05  0.124E-02    1.94       1.6  T
   4    -39.1768518 -0.323808E-05  0.196E-03    1.93      10.4  T
   5    -39.1768518 -0.831789E-07  0.483E-04    1.93      42.2  T
   6    -39.1768518 -0.225866E-08  0.270E-04    1.93      75.5  T
     SCC iter.                  ...        0 min,  0.761 sec
     gradient                   ...        0 min,  0.146 sec
 * total energy  :   -38.5498715 Eh     change       -0.8707955E-04 Eh
   gradient norm :     0.0122203 Eh/α   predicted    -0.8834872E-04 (   1.46%)
   displ. norm   :     0.0528947 α      lambda       -0.1229806E-03
   maximum displ.:     0.0391178 α      in ANC's #2, #3, #1, ...

........................................................................
.............................. CYCLE    7 ..............................
........................................................................
   1    -39.1784444 -0.391784E+02  0.259E-02    1.94       0.0  T
   2    -39.1784445 -0.106562E-06  0.157E-02    1.93       1.3  T
   3    -39.1784420  0.248053E-05  0.111E-02    1.94       1.8  T
   4    -39.1784450 -0.295568E-05  0.104E-03    1.93      19.6  T
   5    -39.1784450 -0.221577E-07  0.313E-04    1.93      65.2  T
   6    -39.1784450 -0.578375E-09  0.181E-04    1.93     112.7  T
     SCC iter.                  ...        0 min,  0.789 sec
     gradient                   ...        0 min,  0.155 sec
 * total energy  :   -38.5498989 Eh     change       -0.2735400E-04 Eh
   gradient norm :     0.0037026 Eh/α   predicted    -0.2084071E-04 ( -23.81%)
   displ. norm   :     0.0616831 α      lambda       -0.1108157E-03
   maximum displ.:     0.0462674 α      in ANC's #2, #3, #1, ...

........................................................................
.............................. CYCLE    8 ..............................
........................................................................
   1    -39.1778675 -0.391779E+02  0.305E-02    1.93       0.0  T
   2    -39.1778676 -0.445647E-07  0.179E-02    1.93       1.1  T
   3    -39.1778660  0.152589E-05  0.836E-03    1.93       2.4  T
   4    -39.1778677 -0.167517E-05  0.592E-04    1.93      34.5  T
   5    -39.1778677 -0.665778E-08  0.273E-04    1.93      74.9  T
   6    -39.1778677 -0.436188E-09  0.125E-04    1.93     163.8  T
     SCC iter.                  ...        0 min,  0.668 sec
     gradient                   ...        0 min,  0.161 sec
 * total energy  :   -38.5499193 Eh     change       -0.2040546E-04 Eh
   gradient norm :     0.0037449 Eh/α   predicted    -0.1405944E-04 ( -31.10%)
   displ. norm   :     0.0673429 α      lambda       -0.5658708E-04
   maximum displ.:     0.0527005 α      in ANC's #2, #3, #4, ...

........................................................................
.............................. CYCLE    9 ..............................
........................................................................
   1    -39.1772737 -0.391773E+02  0.317E-02    1.93       0.0  T
   2    -39.1772738 -0.456227E-07  0.186E-02    1.93       1.1  T
   3    -39.1772725  0.124134E-05  0.760E-03    1.93       2.7  T
   4    -39.1772739 -0.135865E-05  0.603E-04    1.93      33.8  T
   5    -39.1772739 -0.654827E-08  0.300E-04    1.93      68.0  T
   6    -39.1772739 -0.691131E-09  0.128E-04    1.93     159.5  T
     SCC iter.                  ...        0 min,  0.712 sec
     gradient                   ...        0 min,  0.159 sec
 * total energy  :   -38.5499286 Eh     change       -0.9357644E-05 Eh
   gradient norm :     0.0019389 Eh/α   predicted    -0.5748478E-05 ( -38.57%)
   displ. norm   :     0.0186852 α      lambda       -0.1333419E-04
   maximum displ.:     0.0171568 α      in ANC's #2, #4, #7, ...

........................................................................
.............................. CYCLE   10 ..............................
........................................................................
   1    -39.1773798 -0.391774E+02  0.789E-03    1.93       0.0  T
   2    -39.1773798 -0.136397E-07  0.459E-03    1.93       4.5  T
   3    -39.1773798  0.873669E-07  0.194E-03    1.93      10.5  T
   4    -39.1773799 -0.981669E-07  0.297E-04    1.93      68.7  T
   5    -39.1773799 -0.165028E-08  0.115E-04    1.93     177.1  T
     SCC iter.                  ...        0 min,  0.562 sec
     gradient                   ...        0 min,  0.150 sec
 * total energy  :   -38.5499311 Eh     change       -0.2462083E-05 Eh
   gradient norm :     0.0010774 Eh/α   predicted    -0.1140949E-05 ( -53.66%)
   displ. norm   :     0.0167630 α      lambda       -0.1198063E-04
   maximum displ.:     0.0130286 α      in ANC's #2, #1, #3, ...

........................................................................
.............................. CYCLE   11 ..............................
........................................................................
   1    -39.1774955 -0.391775E+02  0.754E-03    1.94       0.0  T
   2    -39.1774955 -0.850587E-08  0.436E-03    1.94       4.7  T
   3    -39.1774955  0.667314E-07  0.172E-03    1.93      11.8  T
   4    -39.1774955 -0.744328E-07  0.238E-04    1.94      85.9  T
   5    -39.1774955 -0.103847E-08  0.102E-04    1.94     199.3  T
     SCC iter.                  ...        0 min,  0.606 sec
     gradient                   ...        0 min,  0.161 sec
 * total energy  :   -38.5499326 Eh     change       -0.1514263E-05 Eh
   gradient norm :     0.0009620 Eh/α   predicted    -0.8757381E-06 ( -42.17%)
   displ. norm   :     0.0147518 α      lambda       -0.6364509E-05
   maximum displ.:     0.0110868 α      in ANC's #2, #1, #3, ...

   *** GEOMETRY OPTIMIZATION CONVERGED AFTER 11 ITERATIONS ***

------------------------------------------------------------------------
 total energy gain   :        -0.0114543 Eh       -7.1877 kcal/mol
 total RMSD          :         0.1448907 a0        0.0767 Å
 total power (kW/mol):        -2.7339412 (step)   -2.5505 (real)
------------------------------------------------------------------------

 ANCopt (total)                0 d,  0 h,  0 min, 11.791 sec
 optimizer setup                ...        0 min,  0.000 sec (  0.002%)
 model hessian                  ...        0 min,  0.013 sec (  0.109%)
 ANC generation                 ...        0 min,  0.104 sec (  0.882%)
 coordinate transformation      ...        0 min,  0.001 sec (  0.005%)
 single point calculation       ...        0 min, 11.310 sec ( 95.920%)
 optimization log               ...        0 min,  0.002 sec (  0.019%)
 hessian update                 ...        0 min,  0.321 sec (  2.724%)
 rational function              ...        0 min,  0.038 sec (  0.326%)

================
 final structure:
================
24
 xtb: 6.5.0 (97a52f5)
N            1.25107595041293        0.34584571869377       -1.59971601109260
C            0.42775697088582        0.10422852956950       -0.55284079009049
C           -0.30380400355438       -1.16991386492639       -0.54949207148415
C            0.06143697433373       -2.19186679946688       -1.43198105002608
C            0.40706472260571        1.03343964095075        0.47121995203688
C           -1.49125347984139       -1.32795548989644        0.16891445757280
H            1.64643616011965        1.28914838380552       -1.60700608834752
C           -0.20380840035751        1.04526766788543        1.77437004213526
N            0.68961666897663        3.06289027337210        1.42867716613315
C            1.00645731691047        2.35856285997387        0.30158675625769
C           -0.00427452777794        2.26320953132538        2.31693130454377
C           -2.22398298977598       -2.49666020346880        0.08434429729049
C           -0.67031498737851       -3.36061819102167       -1.51262720945124
C           -1.81383726367044       -3.52363669715651       -0.74894891944283
H           -1.86492639063665       -0.51587356593295        0.76878905176137
H            0.96952159591394       -2.10655023973166       -2.01070515864757
H            0.98775227780057        4.00776519682298        1.60286740969587
O            1.64333031611552        2.81446539765168       -0.65051382408051
H           -3.13259817008073       -2.59902181924939        0.65947392842219
H           -0.35239045875266       -4.14467158773690       -2.18434283164124
H           -2.38775140496752       -4.43577048868894       -0.81483966741653
H           -0.66151913554574        0.21481857075363        2.27225118000095
H           -0.30121860776142        2.64389557730612        3.27513988647560
H            1.04561883602540       -0.07358339083355       -2.49071282060473

 Bond Distances (Angstroems)
 ---------------------------
N1-C2=1.3536         N1-H7=1.0228         N1-H24=1.0060        C2-N1=1.3536         C2-C3=1.4692         C2-C5=1.3830         
C3-C2=1.4692         C3-C4=1.3988         C3-C6=1.3968         C4-C3=1.3988         C4-C13=1.3813        C4-H16=1.0802        
C5-C2=1.3830         C5-C8=1.4393         C5-C10=1.4642        C6-C3=1.3968         C6-C12=1.3820        C6-H15=1.0765        
H7-N1=1.0228         C8-C5=1.4393         C8-C11=1.3482        C8-H22=1.0710        N9-C10=1.3663        N9-C11=1.3820        
N9-H17=1.0060        C10-C5=1.4642        C10-N9=1.3663        C10-O18=1.2329       C11-C8=1.3482        C11-N9=1.3820        
C11-H23=1.0730       C12-C6=1.3820        C12-C14=1.3847       C12-H19=1.0802       C13-C4=1.3813        C13-C14=1.3847       
C13-H20=1.0803       C14-C12=1.3847       C14-C13=1.3847       C14-H21=1.0797       H15-C6=1.0765        H16-C4=1.0802        
H17-N9=1.0060        O18-C10=1.2329       H19-C12=1.0802       H20-C13=1.0803       H21-C14=1.0797       H22-C8=1.0710        
H23-C11=1.0730       H24-N1=1.0060        
 C  H  Rav=1.0773 sigma=0.0036  Rmin=1.0710  Rmax=1.0803     7
 C  C  Rav=1.4029 sigma=0.0363  Rmin=1.3482  Rmax=1.4692    11
 N  H  Rav=1.0116 sigma=0.0079  Rmin=1.0060  Rmax=1.0228     3
 N  C  Rav=1.3673 sigma=0.0116  Rmin=1.3536  Rmax=1.3820     3
 O  C  Rav=1.2329 sigma=0.0000  Rmin=1.2329  Rmax=1.2329     1

 selected bond angles (degree)
 --------------------
H7-N1-C2=113.91                H24-N1-C2=119.10               H24-N1-H7=117.20               C3-C2-N1=117.35                
C5-C2-N1=117.51                C5-C2-C3=125.00                C4-C3-C2=120.14                C6-C3-C2=121.51                
C6-C3-C4=117.63                C13-C4-C3=121.11               H16-C4-C3=119.99               H16-C4-C13=118.74              
C8-C5-C2=133.03                C10-C5-C2=121.07               C10-C5-C8=105.74               C12-C6-C3=120.99               
H15-C6-C3=119.76               H15-C6-C12=119.21              C11-C8-C5=108.00               H22-C8-C5=126.58               
H22-C8-C11=125.22              C11-N9-C10=110.39              H17-N9-C10=123.94              H17-N9-C11=125.52              
N9-C10-C5=106.02               O18-C10-C5=129.46              O18-C10-N9=124.49              

 selected dihedral angles (degree)
 ---------------------------------
C3-C2-N1-H7=173.07            C3-C2-N1-H24= 28.09           C5-C2-N1-H7=348.93            C5-C2-N1-H24=203.94           
C4-C3-C2-N1= 13.45            C4-C3-C2-C5=197.94            C6-C3-C2-N1=203.41            C6-C3-C2-C5= 27.90            
C13-C4-C3-C2=184.64           C13-C4-C3-C6=355.06           H16-C4-C3-C2=  9.25           H16-C4-C3-C6=179.67           
C8-C5-C2-N1=188.17            C8-C5-C2-C3=  3.68            C10-C5-C2-N1= 13.55           C10-C5-C2-C3=189.05           
C12-C6-C3-C2=175.05           C12-C6-C3-C4=  4.77           H15-C6-C3-C2=357.45           H15-C6-C3-C4=187.16           
C11-C8-C5-C2=185.60           C11-C8-C5-C10=  0.82          H22-C8-C5-C2= 10.63           H22-C8-C5-C10=185.85          
N9-C10-C5-C2=173.67           N9-C10-C5-C8=357.75           O18-C10-C5-C2=355.48          O18-C10-C5-C8=179.56          
C5-C10-N9-C11=  2.90          C5-C10-N9-H17=178.57          O18-C10-N9-C11=181.20         O18-C10-N9-H17=356.87         
           -------------------------------------------------
          |                Final Singlepoint                |
           -------------------------------------------------

          ...................................................
          :                      SETUP                      :
          :.................................................:
          :  # basis functions                  66          :
          :  # atomic orbitals                  66          :
          :  # shells                           38          :
          :  # electrons                        70          :
          :  max. iterations                   250          :
          :  Hamiltonian                  GFN2-xTB          :
          :  restarted?                      false          :
          :  GBSA solvation                  false          :
          :  PC potential                    false          :
          :  electronic temp.          300.0000000     K    :
          :  accuracy                    1.0000000          :
          :  -> integral cutoff          0.2500000E+02      :
          :  -> integral neglect         0.1000000E-07      :
          :  -> SCF convergence          0.1000000E-05 Eh   :
          :  -> wf. convergence          0.1000000E-03 e    :
          :  Broyden damping             0.4000000          :
          ...................................................

 iter      E             dE          RMSdq      gap      omega  full diag
   1    -39.1774955 -0.391775E+02  0.488E-05    1.94       0.0  T
   2    -39.1774955 -0.584066E-11  0.370E-05    1.94     551.1  T
   3    -39.1774955 -0.196891E-10  0.197E-05    1.94    1035.8  T

   *** convergence criteria satisfied after 3 iterations ***

         #    Occupation            Energy/Eh            Energy/eV
      -------------------------------------------------------------
         1        2.0000           -0.6797592             -18.4972
       ...           ...                  ...                  ...
        29        2.0000           -0.4369949             -11.8912
        30        2.0000           -0.4286708             -11.6647
        31        2.0000           -0.4137825             -11.2596
        32        2.0000           -0.4115079             -11.1977
        33        2.0000           -0.3963774             -10.7860
        34        2.0000           -0.3784313             -10.2976
        35        2.0000           -0.3461075              -9.4181 (HOMO)
        36                         -0.2749848              -7.4827 (LUMO)
        37                         -0.2317919              -6.3074
        38                         -0.2100496              -5.7157
        39                         -0.1664056              -4.5281
        40                         -0.1198667              -3.2617
       ...                                ...                  ...
        66                          0.7345373              19.9878
      -------------------------------------------------------------
                  HL-Gap            0.0711227 Eh            1.9353 eV
             Fermi-level           -0.3105462 Eh           -8.4504 eV

 SCC (total)                   0 d,  0 h,  0 min,  0.621 sec
 SCC setup                      ...        0 min,  0.023 sec (  3.729%)
 Dispersion                     ...        0 min,  0.022 sec (  3.621%)
 classical contributions        ...        0 min,  0.025 sec (  4.080%)
 integral evaluation            ...        0 min,  0.030 sec (  4.868%)
 iterations                     ...        0 min,  0.356 sec ( 57.273%)
 molecular gradient             ...        0 min,  0.152 sec ( 24.488%)
 printout                       ...        0 min,  0.012 sec (  1.913%)

         :::::::::::::::::::::::::::::::::::::::::::::::::::::
         ::                     SUMMARY                     ::
         :::::::::::::::::::::::::::::::::::::::::::::::::::::
         :: total energy             -38.549932600173 Eh    ::
         :: gradient norm              0.000961808973 Eh/a0 ::
         :: HOMO-LUMO gap              1.935346592375 eV    ::
         ::.................................................::
         :: SCC energy               -39.177495531465 Eh    ::
         :: -> isotropic ES            0.048916093895 Eh    ::
         :: -> anisotropic ES          0.001018466994 Eh    ::
         :: -> anisotropic XC          0.017798143208 Eh    ::
         :: -> dispersion             -0.023779858534 Eh    ::
         :: repulsion energy           0.627526896231 Eh    ::
         :: add. restraining           0.000029261540 Eh    ::
         :: total charge              -0.000000000000 e     ::
         :::::::::::::::::::::::::::::::::::::::::::::::::::::

           -------------------------------------------------
          |                Property Printout                |
           -------------------------------------------------

    * Orbital Energies and Occupations

         #    Occupation            Energy/Eh            Energy/eV
      -------------------------------------------------------------
         1        2.0000           -0.6797592             -18.4972
       ...           ...                  ...                  ...
        23        2.0000           -0.4829779             -13.1425
        24        2.0000           -0.4751586             -12.9297
        25        2.0000           -0.4725016             -12.8574
        26        2.0000           -0.4660970             -12.6831
        27        2.0000           -0.4539321             -12.3521
        28        2.0000           -0.4519193             -12.2974
        29        2.0000           -0.4369949             -11.8912
        30        2.0000           -0.4286708             -11.6647
        31        2.0000           -0.4137825             -11.2596
        32        2.0000           -0.4115079             -11.1977
        33        2.0000           -0.3963774             -10.7860
        34        2.0000           -0.3784313             -10.2976
        35        2.0000           -0.3461075              -9.4181 (HOMO)
        36                         -0.2749848              -7.4827 (LUMO)
        37                         -0.2317919              -6.3074
        38                         -0.2100496              -5.7157
        39                         -0.1664056              -4.5281
        40                         -0.1198667              -3.2617
        41                         -0.0821068              -2.2342
        42                          0.0322736               0.8782
        43                          0.0410554               1.1172
        44                          0.0923894               2.5140
        45                          0.1143693               3.1121
        46                          0.1343005               3.6545
       ...                                ...                  ...
        66                          0.7345373              19.9878
      -------------------------------------------------------------
                  HL-Gap            0.0711227 Eh            1.9353 eV
             Fermi-level           -0.3105462 Eh           -8.4504 eV

     #   Z          covCN         q      C6AA      α(0)
     1   7 N        2.650    -0.251    26.525     7.649
     2   6 C        2.884     0.092    25.955     8.352
     3   6 C        2.972     0.005    27.919     8.667
     4   6 C        2.926    -0.034    28.845     8.808
     5   6 C        3.081    -0.073    29.716     8.937
     6   6 C        2.925    -0.032    28.797     8.800
     7   1 H        0.859     0.231     0.962     1.537
     8   6 C        2.988    -0.072    29.790     8.953
     9   7 N        2.774    -0.146    24.149     7.299
    10   6 C        2.881     0.255    22.724     7.815
    11   6 C        2.987     0.000    28.018     8.683
    12   6 C        2.918    -0.028    28.705     8.786
    13   6 C        2.918    -0.029    28.719     8.788
    14   6 C        2.919    -0.027    28.679     8.782
    15   1 H        0.926     0.049     2.337     2.390
    16   1 H        0.926     0.038     2.476     2.460
    17   1 H        0.860     0.169     1.279     1.771
    18   8 O        0.857    -0.488    23.519     6.502
    19   1 H        0.926     0.035     2.517     2.481
    20   1 H        0.926     0.034     2.534     2.489
    21   1 H        0.926     0.035     2.522     2.483
    22   1 H        0.926     0.033     2.537     2.491
    23   1 H        0.926     0.033     2.545     2.495
    24   1 H        0.860     0.171     1.264     1.761

 Mol. C6AA /au·bohr⁶  :       7611.437912
 Mol. C8AA /au·bohr⁸  :     185741.936300
 Mol. α(0) /au        :        139.179238


Wiberg/Mayer (AO) data.
largest (>0.10) Wiberg bond orders for each atom

 ---------------------------------------------------------------------------
     #   Z sym  total        # sym  WBO       # sym  WBO       # sym  WBO
 ---------------------------------------------------------------------------
     1   7 N    3.391 --     2 C    1.285    24 H    0.943     7 H    0.879
     2   6 C    3.969 --     5 C    1.422     1 N    1.285     3 C    1.066
     3   6 C    3.988 --     6 C    1.376     4 C    1.373     2 C    1.066
                            14 C    0.102
     4   6 C    3.977 --    13 C    1.459     3 C    1.373    16 H    0.965
                            12 C    0.106
     5   6 C    3.968 --     2 C    1.422     8 C    1.171    10 C    1.079
     6   6 C    3.991 --    12 C    1.457     3 C    1.376    15 H    0.962
                            13 C    0.105
     7   1 H    0.946 --     1 N    0.879
     8   6 C    3.978 --    11 C    1.681     5 C    1.171    22 H    0.967
     9   7 N    3.514 --    10 C    1.179    11 C    1.131    17 H    0.942
                            18 O    0.138
    10   6 C    3.947 --    18 O    1.557     9 N    1.179     5 C    1.079
    11   6 C    3.938 --     8 C    1.681     9 N    1.131    23 H    0.970
    12   6 C    3.992 --     6 C    1.457    14 C    1.431    19 H    0.970
                             4 C    0.106
    13   6 C    3.992 --     4 C    1.459    14 C    1.429    20 H    0.971
                             6 C    0.105
    14   6 C    3.978 --    12 C    1.431    13 C    1.429    21 H    0.971
                             3 C    0.102
    15   1 H    0.998 --     6 C    0.962
    16   1 H    0.999 --     4 C    0.965
    17   1 H    0.971 --     9 N    0.942
    18   8 O    1.970 --    10 C    1.557     9 N    0.138
    19   1 H    0.998 --    12 C    0.970
    20   1 H    0.998 --    13 C    0.971
    21   1 H    0.998 --    14 C    0.971
    22   1 H    0.999 --     8 C    0.967
    23   1 H    0.998 --    11 C    0.970
    24   1 H    0.969 --     1 N    0.943
 ---------------------------------------------------------------------------

Topologies differ in total number of bonds
Writing topology from bond orders to xtbtopo.mol

molecular dipole:
                 x           y           z       tot (Debye)
 q only:       -0.611      -0.953       0.030
   full:       -0.754      -0.770       0.129       2.759
molecular quadrupole (traceless):
                xx          xy          yy          xz          yz          zz
 q only:       -2.941      -3.997      -2.691      -0.515       8.283       5.632
  q+dip:       -6.588      -2.111       1.428      -1.864      13.608       5.161
   full:       -5.617      -3.579      -0.221       0.327      11.665       5.838

           -------------------------------------------------
          |                Geometry Summary                 |
           -------------------------------------------------

      molecular mass/u    :      186.2103137
   center of mass at/Å    :       -0.0449093      -0.0013945      -0.0508868
  moments of inertia/u·Å² :        0.2987658E+03   0.1184511E+04   0.1457235E+04
rotational constants/cm⁻¹ :        0.5642423E-01   0.1423172E-01   0.1156823E-01

 * 23 selected distances

     #   Z          #   Z                                           value/Å
     1   7 N        2   6 C                                       1.3535808
     3   6 C        4   6 C                                       1.3987766
     2   6 C        5   6 C                                       1.3829542
     3   6 C        6   6 C                                       1.3968256
     1   7 N        7   1 H                                       1.0228309
     5   6 C        8   6 C                                       1.4392729 (max)
     9   7 N       10   6 C                                       1.3663083
     8   6 C       11   6 C                                       1.3481725
     9   7 N       11   6 C                                       1.3820167
     6   6 C       12   6 C                                       1.3819970
     4   6 C       13   6 C                                       1.3812838
    12   6 C       14   6 C                                       1.3846581
    13   6 C       14   6 C                                       1.3847105
     6   6 C       15   1 H                                       1.0765492
     4   6 C       16   1 H                                       1.0801937
     9   7 N       17   1 H                                       1.0059900
    10   6 C       18   8 O                                       1.2328626
    12   6 C       19   1 H                                       1.0802008
    13   6 C       20   1 H                                       1.0802860
    14   6 C       21   1 H                                       1.0796793
     8   6 C       22   1 H                                       1.0709952
    11   6 C       23   1 H                                       1.0729686
     1   7 N       24   1 H                                       1.0059865 (min)

 * 5 distinct bonds (by element types)

   Z      Z             #   av. dist./Å        max./Å        min./Å
   1 H    6 C           7     1.0772675     1.0802860     1.0709952
   6 C    6 C           9     1.3887390     1.4392729     1.3481725
   1 H    7 N           3     1.0116025     1.0228309     1.0059865
   6 C    7 N           3     1.3673019     1.3820167     1.3535808
   6 C    8 O           1     1.2328626     1.2328626     1.2328626


optimized geometry written to: xtbopt.xyz


           -------------------------------------------------
          | TOTAL ENERGY              -38.549932600173 Eh   |
          | GRADIENT NORM               0.000961808973 Eh/α |
          | HOMO-LUMO GAP               1.935346592375 eV   |
           -------------------------------------------------
########################################################################
[WARNING] Runtime exception occurred
-1- restart_readRestart: Number of electron missmatch in restart file.
########################################################################

------------------------------------------------------------------------
 * finished run on 2023/11/18 at 08:42:36.336     
------------------------------------------------------------------------
 total:
 * wall-time:     0 d,  0 h,  0 min, 14.007 sec
 *  cpu-time:     0 d,  0 h, 11 min,  1.527 sec
 * ratio c/w:    47.228 speedup
 SCF:
 * wall-time:     0 d,  0 h,  0 min,  1.434 sec
 *  cpu-time:     0 d,  0 h,  1 min,  7.178 sec
 * ratio c/w:    46.863 speedup
 ANC optimizer:
 * wall-time:     0 d,  0 h,  0 min, 12.421 sec
 *  cpu-time:     0 d,  0 h,  9 min, 47.371 sec
 * ratio c/w:    47.288 speedup

