
    -----------------------------------------------------------------------
          Psi4: An Open-Source Ab Initio Electronic Structure Package
                               Psi4 1.6 release

                         Git: Rev {HEAD} 77475b5 


    D. G. A. Smith, L. A. Burns, A. C. Simmonett, R. M. Parrish,
    M. C. Schieber, R. Galvelis, P. Kraus, H. Kruse, R. Di Remigio,
    A. Alenaizan, A. M. James, S. Lehtola, J. P. Misiewicz, M. Scheurer,
    R. A. Shaw, J. B. Schriber, Y. Xie, Z. L. Glick, D. A. Sirianni,
    J. S. O'Brien, J. M. Waldrop, A. Kumar, E. G. Hohenstein,
    B. P. Pritchard, B. R. Brooks, H. F. Schaefer III, A. Yu. Sokolov,
    K. Patkowski, A. E. DePrince III, U. Bozkaya, R. A. King,
    F. A. Evangelista, J. M. Turney, T. D. Crawford, C. D. Sherrill,
    J. Chem. Phys. 152(18) 184108 (2020). https://doi.org/10.1063/5.0006002

                            Additional Code Authors
    E. T. Seidl, C. L. Janssen, E. F. Valeev, M. L. Leininger,
    J. F. Gonthier, R. M. Richard, H. R. McAlexander, M. Saitow, X. Wang,
    P. Verma, M. H. Lechner, and A. Jiang

             Previous Authors, Complete List of Code Contributors,
                       and Citations for Specific Modules
    https://github.com/psi4/psi4/blob/master/codemeta.json
    https://github.com/psi4/psi4/graphs/contributors
    http://psicode.org/psi4manual/master/introduction.html#citing-psifour

    -----------------------------------------------------------------------


    Psi4 started on: Saturday, 18 November 2023 08:48AM

    Process ID: 1134942
    Host:       node165.bme.utexas.edu
    PSIDATADIR: /home/liuchw/anaconda3/envs/poltype2022/share/psi4
    Memory:     500.0 MiB
    Threads:    1
    
  ==> Input File <==

--------------------------------------------------------------------------
molecule { 
0 1
 N    1.553027   -0.574883    1.409099
 C    0.568068   -0.219453    0.555524
 C   -0.275633   -1.297114   -0.007484
 C   -1.556800   -1.515402    0.485709
 C    0.318661    1.100822    0.296871
 C    0.225094   -2.128170   -1.003208
 H    2.167534    0.196120    1.673110
 C   -0.749713    1.726094   -0.438178
 N    0.636742    3.328946    0.279417
 C    1.190886    2.175851    0.763543
 C   -0.525098    3.053502   -0.425089
 C   -0.555162   -3.149382   -1.515703
 C   -2.331585   -2.541317   -0.024904
 C   -1.833570   -3.358063   -1.026628
 H    1.221729   -1.961372   -1.387302
 H   -1.939125   -0.874572    1.266052
 H    1.012251    4.248194    0.441314
 O    2.222404    2.101988    1.429215
 H   -0.163046   -3.785026   -2.295988
 H   -3.326566   -2.705866    0.361678
 H   -2.440720   -4.157278   -1.425133
 H   -1.564570    1.210516   -0.906308
 H   -1.096488    3.852577   -0.857054
 H    1.966064   -1.489303    1.322290
}
memory 20GB
set_num_threads(5)
psi4_io.set_default_path("/scratch/liuchw/Psi4-7_11_Index_0-farH_in17")
set freeze_core True
E, wfn = energy('wb97x-d/6-311+G*',return_wfn=True)
oeprop(wfn,"WIBERG_LOWDIN_INDICES")
clean()
--------------------------------------------------------------------------

  Memory set to  18.626 GiB by Python driver.
  Threads set to 5 by Python driver.

Scratch directory: /scratch/liuchw/Psi4-7_11_Index_0-farH_in17/

*** tstart() called on node165.bme.utexas.edu
*** at Sat Nov 18 08:48:49 2023

   => Loading Basis Set <=

    Name: 6-311+G*
    Role: ORBITAL
    Keyword: BASIS
    atoms 1, 9            entry N          line   151 file /home/liuchw/anaconda3/envs/poltype2022/share/psi4/basis/6-311pgs.gbs 
    atoms 2-6, 8, 10-14   entry C          line   130 file /home/liuchw/anaconda3/envs/poltype2022/share/psi4/basis/6-311pgs.gbs 
    atoms 7, 15-17, 19-24 entry H          line    47 file /home/liuchw/anaconda3/envs/poltype2022/share/psi4/basis/6-311pgs.gbs 
    atoms 18              entry O          line   172 file /home/liuchw/anaconda3/envs/poltype2022/share/psi4/basis/6-311pgs.gbs 

   => WB97X-D: Empirical Dispersion <=

    Chai and Head-Gordon Dispersion Correction
    Chai, J.-D.; Head-Gordon, M. (2010), J. Chem. Phys., 132: 6615-6620

        s6 =       1.000000


         ---------------------------------------------------------
                                   SCF
               by Justin Turney, Rob Parrish, Andy Simmonett
                          and Daniel G. A. Smith
                              RKS Reference
                        5 Threads,  19073 MiB Core
         ---------------------------------------------------------

  ==> Geometry <==

    Molecular point group: c1
    Full point group: C1

    Geometry (in Angstrom), charge = 0, multiplicity = 1:

       Center              X                  Y                   Z               Mass       
    ------------   -----------------  -----------------  -----------------  -----------------
         N            1.576044478184    -0.536437570480     1.319843839721    14.003074004430
         C            0.591085478184    -0.181007570480     0.466268839721    12.000000000000
         C           -0.252615521816    -1.258668570480    -0.096739160279    12.000000000000
         C           -1.533782521816    -1.476956570480     0.396453839721    12.000000000000
         C            0.341678478184     1.139267429520     0.207615839721    12.000000000000
         C            0.248111478184    -2.089724570480    -1.092463160279    12.000000000000
         H            2.190551478184     0.234565429520     1.583854839721     1.007825032230
         C           -0.726695521816     1.764539429520    -0.527433160279    12.000000000000
         N            0.659759478184     3.367391429520     0.190161839721    14.003074004430
         C            1.213903478184     2.214296429520     0.674287839721    12.000000000000
         C           -0.502080521816     3.091947429520    -0.514344160279    12.000000000000
         C           -0.532144521816    -3.110936570480    -1.604958160279    12.000000000000
         C           -2.308567521816    -2.502871570480    -0.114159160279    12.000000000000
         C           -1.810552521816    -3.319617570480    -1.115883160279    12.000000000000
         H            1.244746478184    -1.922926570480    -1.476557160279     1.007825032230
         H           -1.916107521816    -0.836126570480     1.176796839721     1.007825032230
         H            1.035268478184     4.286639429520     0.352058839721     1.007825032230
         O            2.245421478184     2.140433429520     1.339959839721    15.994914619570
         H           -0.140028521816    -3.746580570480    -2.385243160279     1.007825032230
         H           -3.303548521816    -2.667420570480     0.272422839721     1.007825032230
         H           -2.417702521816    -4.118832570480    -1.514388160279     1.007825032230
         H           -1.541552521816     1.248961429520    -0.995563160279     1.007825032230
         H           -1.073470521816     3.891022429520    -0.946309160279     1.007825032230
         H            1.989081478184    -1.450857570480     1.233034839721     1.007825032230

  Running in c1 symmetry.

  Rotational constants: A =      0.05427  B =      0.01400  C =      0.01235 [cm^-1]
  Rotational constants: A =   1626.89324  B =    419.81920  C =    370.33180 [MHz]
  Nuclear repulsion =  820.420885509908999

  Charge       = 0
  Multiplicity = 1
  Electrons    = 98
  Nalpha       = 49
  Nbeta        = 49

  ==> Algorithm <==

  SCF Algorithm Type is DF.
  DIIS enabled.
  MOM disabled.
  Fractional occupation disabled.
  Guess Type is SAD.
  Energy threshold   = 1.00e-06
  Density threshold  = 1.00e-06
  Integral threshold = 1.00e-12

  ==> Primary Basis <==

  Basis Set: 6-311+G*
    Blend: 6-311+G*
    Number of shells: 170
    Number of basis functions: 338
    Number of Cartesian functions: 352
    Spherical Harmonics?: true
    Max angular momentum: 2

  ==> DFT Potential <==

   => LibXC <=

    Version 5.1.5
    S. Lehtola, C. Steigemann, M. J. Oliveira, and M. A. Marques, SoftwareX 7, 1 (2018) (10.1016/j.softx.2017.11.002)

   => Composite Functional: WB97X-D <= 

    wB97X-D Hyb-GGA Exchange-Correlation Functional

    J.-D. Chai and M. Head-Gordon, Phys. Chem. Chem. Phys. 10, 6615 (2008) (10.1039/B810189B)

    Deriv               =              1
    GGA                 =           TRUE
    Meta                =          FALSE

    Exchange Hybrid     =           TRUE
    MP2 Hybrid          =          FALSE

   => Exchange-Correlation Functionals <=

    1.0000   wB97X-D range-separated functional

   => Exact (HF) Exchange <=

    0.7780            HF,LR [omega = 0.2000]
    0.2220               HF 

   => LibXC Density Thresholds  <==

    XC_HYB_GGA_XC_WB97X_D:  1.00E-14 

   => Molecular Quadrature <=

    Radial Scheme          =       TREUTLER
    Pruning Scheme         =           NONE
    Nuclear Scheme         =       TREUTLER

    Blocking Scheme        =         OCTREE
    BS radius alpha        =              1
    Pruning alpha          =              1
    Radial Points          =             75
    Spherical Points       =            302
    Total Points           =         502532
    Total Blocks           =           3645
    Max Points             =            256
    Max Functions          =            294
    Weights Tolerance      =       1.00E-15

   => Loading Basis Set <=

    Name: (6-311+G* AUX)
    Role: JKFIT
    Keyword: DF_BASIS_SCF
    atoms 1, 9            entry N          line   262 file /home/liuchw/anaconda3/envs/poltype2022/share/psi4/basis/heavy-aug-cc-pvtz-jkfit.gbs 
    atoms 2-6, 8, 10-14   entry C          line   200 file /home/liuchw/anaconda3/envs/poltype2022/share/psi4/basis/heavy-aug-cc-pvtz-jkfit.gbs 
    atoms 7, 15-17, 19-24 entry H          line   116 file /home/liuchw/anaconda3/envs/poltype2022/share/psi4/basis/heavy-aug-cc-pvtz-jkfit.gbs 
    atoms 18              entry O          line   324 file /home/liuchw/anaconda3/envs/poltype2022/share/psi4/basis/heavy-aug-cc-pvtz-jkfit.gbs 

  ==> Integral Setup <==

  DFHelper Memory: AOs need 3.988 GiB; user supplied 10.887 GiB. Using in-core AOs.

  ==> MemDFJK: Density-Fitted J/K Matrices <==

    J tasked:                   Yes
    K tasked:                   Yes
    wK tasked:                  Yes
    Omega:                2.000E-01
    OpenMP threads:               5
    Memory [MiB]:             11148
    Algorithm:                 Core
    Schwarz Cutoff:           1E-12
    Mask sparsity (%):      12.1862
    Fitting Condition:        1E-10

   => Auxiliary Basis Set <=

  Basis Set: (6-311+G* AUX)
    Blend: HEAVY-AUG-CC-PVTZ-JKFIT
    Number of shells: 520
    Number of basis functions: 1756
    Number of Cartesian functions: 2184
    Spherical Harmonics?: true
    Max angular momentum: 4

  Cached 100.0% of DFT collocation blocks in 3.083 [GiB].

  Minimum eigenvalue in the overlap matrix is 9.9300403198E-07.
  Reciprocal condition number of the overlap matrix is 6.6616031024E-08.
    Using symmetric orthogonalization.

  ==> Pre-Iterations <==

  SCF Guess: Superposition of Atomic Densities via on-the-fly atomic UHF (no occupation information).

   -------------------------
    Irrep   Nso     Nmo    
   -------------------------
     A        338     338 
   -------------------------
    Total     338     338
   -------------------------

  ==> Iterations <==

                           Total Energy        Delta E     RMS |[F,P]|

   @DF-RKS iter SAD:  -609.55446094737988   -6.09554e+02   0.00000e+00 
   @DF-RKS iter   1:  -609.22663320528056    3.27828e-01   3.38120e-03 ADIIS/DIIS
   @DF-RKS iter   2:  -609.49843391122295   -2.71801e-01   2.72607e-03 ADIIS/DIIS
   @DF-RKS iter   3:  -609.84900125266643   -3.50567e-01   3.95100e-04 ADIIS/DIIS
   @DF-RKS iter   4:  -609.85408857718710   -5.08732e-03   2.04100e-04 ADIIS/DIIS
   @DF-RKS iter   5:  -609.85582684371718   -1.73827e-03   4.61443e-05 DIIS
   @DF-RKS iter   6:  -609.85592851713898   -1.01673e-04   1.38563e-05 DIIS
   @DF-RKS iter   7:  -609.85594028506716   -1.17679e-05   3.24856e-06 DIIS
   @DF-RKS iter   8:  -609.85594138123872   -1.09617e-06   1.66842e-06 DIIS
   @DF-RKS iter   9:  -609.85594171913840   -3.37900e-07   7.24060e-07 DIIS
  Energy and wave function converged.


  ==> Post-Iterations <==

   Electrons on quadrature grid:
      Ntotal   =   98.0000461961 ; deviation = 4.620e-05 

    Orbital Energies [Eh]
    ---------------------

    Doubly Occupied:                                                      

       1A    -19.203002     2A    -14.460613     3A    -14.454610  
       4A    -10.372521     5A    -10.357071     6A    -10.314114  
       7A    -10.311055     8A    -10.304423     9A    -10.302473  
      10A    -10.301601    11A    -10.301045    12A    -10.300493  
      13A    -10.275338    14A    -10.271863    15A     -1.136053  
      16A     -1.056100    17A     -1.048675    18A     -0.980225  
      19A     -0.900157    20A     -0.873068    21A     -0.866634  
      22A     -0.817367    23A     -0.766242    24A     -0.721617  
      25A     -0.715326    26A     -0.684789    27A     -0.665450  
      28A     -0.631804    29A     -0.609149    30A     -0.592843  
      31A     -0.574707    32A     -0.563611    33A     -0.552455  
      34A     -0.527680    35A     -0.524273    36A     -0.514780  
      37A     -0.510276    38A     -0.496648    39A     -0.479233  
      40A     -0.474294    41A     -0.452736    42A     -0.446309  
      43A     -0.433578    44A     -0.410281    45A     -0.350283  
      46A     -0.346400    47A     -0.337909    48A     -0.332923  
      49A     -0.260093  

    Virtual:                                                              

      50A      0.021882    51A      0.042217    52A      0.044976  
      53A      0.053618    54A      0.064366    55A      0.070013  
      56A      0.076839    57A      0.083793    58A      0.092457  
      59A      0.095295    60A      0.099539    61A      0.106809  
      62A      0.114834    63A      0.117085    64A      0.125257  
      65A      0.127880    66A      0.134712    67A      0.142035  
      68A      0.149748    69A      0.156616    70A      0.159209  
      71A      0.165035    72A      0.171790    73A      0.177146  
      74A      0.181833    75A      0.185530    76A      0.189519  
      77A      0.197492    78A      0.205108    79A      0.206942  
      80A      0.208982    81A      0.212125    82A      0.213657  
      83A      0.214918    84A      0.224696    85A      0.232004  
      86A      0.242210    87A      0.244779    88A      0.247537  
      89A      0.249289    90A      0.254454    91A      0.258010  
      92A      0.259896    93A      0.264269    94A      0.268835  
      95A      0.271104    96A      0.271676    97A      0.279958  
      98A      0.282731    99A      0.287083   100A      0.292557  
     101A      0.293649   102A      0.299571   103A      0.304423  
     104A      0.310220   105A      0.314114   106A      0.317658  
     107A      0.321055   108A      0.326864   109A      0.328997  
     110A      0.331322   111A      0.336666   112A      0.348458  
     113A      0.352633   114A      0.359669   115A      0.365665  
     116A      0.382260   117A      0.391374   118A      0.393657  
     119A      0.394402   120A      0.407188   121A      0.408799  
     122A      0.416175   123A      0.422193   124A      0.425025  
     125A      0.429000   126A      0.438115   127A      0.452770  
     128A      0.465373   129A      0.484532   130A      0.498952  
     131A      0.516512   132A      0.540018   133A      0.545922  
     134A      0.574022   135A      0.591983   136A      0.599805  
     137A      0.610118   138A      0.617151   139A      0.624380  
     140A      0.628738   141A      0.634934   142A      0.640720  
     143A      0.646671   144A      0.647199   145A      0.658686  
     146A      0.676068   147A      0.677170   148A      0.686836  
     149A      0.704512   150A      0.712525   151A      0.721430  
     152A      0.732472   153A      0.735453   154A      0.749153  
     155A      0.764607   156A      0.768472   157A      0.774339  
     158A      0.778914   159A      0.785261   160A      0.794728  
     161A      0.802916   162A      0.812699   163A      0.819957  
     164A      0.833656   165A      0.838492   166A      0.850001  
     167A      0.851086   168A      0.868943   169A      0.872597  
     170A      0.891435   171A      0.905657   172A      0.913862  
     173A      0.923847   174A      0.931685   175A      0.935072  
     176A      0.936888   177A      0.943431   178A      0.956815  
     179A      0.969479   180A      0.975411   181A      0.998224  
     182A      1.007406   183A      1.014198   184A      1.017267  
     185A      1.036211   186A      1.039205   187A      1.063149  
     188A      1.085049   189A      1.096632   190A      1.107018  
     191A      1.119840   192A      1.125123   193A      1.141552  
     194A      1.163826   195A      1.200873   196A      1.220117  
     197A      1.236480   198A      1.253973   199A      1.257036  
     200A      1.265121   201A      1.280713   202A      1.300092  
     203A      1.316026   204A      1.327605   205A      1.334907  
     206A      1.356501   207A      1.375915   208A      1.388376  
     209A      1.402719   210A      1.451448   211A      1.460117  
     212A      1.513212   213A      1.534404   214A      1.557820  
     215A      1.594608   216A      1.602881   217A      1.625334  
     218A      1.628864   219A      1.674510   220A      1.714665  
     221A      1.737600   222A      1.749126   223A      1.789934  
     224A      1.838752   225A      1.844011   226A      1.860404  
     227A      1.867028   228A      1.874773   229A      1.890363  
     230A      1.916207   231A      1.925722   232A      1.946328  
     233A      1.953018   234A      1.972897   235A      1.984916  
     236A      2.003741   237A      2.023435   238A      2.033566  
     239A      2.050975   240A      2.075142   241A      2.080505  
     242A      2.085885   243A      2.091384   244A      2.137365  
     245A      2.163763   246A      2.215402   247A      2.242187  
     248A      2.264037   249A      2.306111   250A      2.338823  
     251A      2.340285   252A      2.346318   253A      2.362193  
     254A      2.404748   255A      2.410600   256A      2.432674  
     257A      2.444679   258A      2.483877   259A      2.507258  
     260A      2.508585   261A      2.524463   262A      2.533347  
     263A      2.602628   264A      2.657598   265A      2.701206  
     266A      2.718704   267A      2.741806   268A      2.762593  
     269A      2.799933   270A      2.807164   271A      2.822614  
     272A      2.853630   273A      2.877484   274A      2.888276  
     275A      2.901624   276A      2.911950   277A      2.966475  
     278A      2.974710   279A      3.003156   280A      3.012729  
     281A      3.053529   282A      3.059097   283A      3.110323  
     284A      3.115663   285A      3.127305   286A      3.158544  
     287A      3.190374   288A      3.236635   289A      3.273664  
     290A      3.275380   291A      3.345606   292A      3.408371  
     293A      3.411754   294A      3.420235   295A      3.432733  
     296A      3.449273   297A      3.463904   298A      3.469160  
     299A      3.541574   300A      3.562084   301A      3.570235  
     302A      3.608630   303A      3.655266   304A      3.667801  
     305A      3.692260   306A      3.727888   307A      3.794663  
     308A      3.869427   309A      3.986869   310A      4.017218  
     311A      4.028080   312A      4.060841   313A      4.122777  
     314A      4.188159   315A      4.325739   316A      4.366881  
     317A      4.511234   318A      4.651960   319A      4.894074  
     320A      4.906102   321A      5.159868   322A      5.199501  
     323A      5.398627   324A      5.923206   325A     23.485741  
     326A     23.717724   327A     23.949042   328A     23.986032  
     329A     24.032672   330A     24.065842   331A     24.171981  
     332A     24.199479   333A     24.270109   334A     24.308702  
     335A     24.339465   336A     35.668841   337A     35.672834  
     338A     50.217998  

    Final Occupation by Irrep:
              A 
    DOCC [    49 ]

  @DF-RKS Final Energy:  -609.85594171913840

   => Energetics <=

    Nuclear Repulsion Energy =            820.4208855099089988
    One-Electron Energy =               -2453.8617859716050589
    Two-Electron Energy =                1082.9323744060720855
    DFT Exchange-Correlation Energy =     -59.3331921695960105
    Empirical Dispersion Energy =          -0.0142234939184834
    VV10 Nonlocal Energy =                  0.0000000000000000
    Total Energy =                       -609.8559417191384000

Computation Completed


Properties will be evaluated at   0.000000,   0.000000,   0.000000 [a0]

Properties computed using the SCF density matrix


 Multipole Moments:

 ------------------------------------------------------------------------------------
     Multipole            Electronic (a.u.)      Nuclear  (a.u.)        Total (a.u.)
 ------------------------------------------------------------------------------------

 L = 1.  Multiply by 2.5417464519 to convert [e a0] to [Debye]
 Dipole X            :          2.9309771           -3.6825492           -0.7515721
 Dipole Y            :          4.0206580           -4.7617412           -0.7410832
 Dipole Z            :          1.8335486           -2.5290143           -0.6954657
 Magnitude           :                                                    1.2640164

 ------------------------------------------------------------------------------------

*** tstop() called on node165.bme.utexas.edu at Sat Nov 18 08:49:11 2023
Module time:
	user time   =      97.50 seconds =       1.62 minutes
	system time =       3.80 seconds =       0.06 minutes
	total time  =         22 seconds =       0.37 minutes
Total time:
	user time   =      97.50 seconds =       1.62 minutes
	system time =       3.80 seconds =       0.06 minutes
	total time  =         22 seconds =       0.37 minutes


Properties will be evaluated at   0.000000,   0.000000,   0.000000 [a0]
OEProp: No title given, name of density matrix used for the following properties is 'SCF density'


  Wiberg Bond Indices using Orthogonal Lowdin Orbitals:

  Irrep: 1 Size: 24 x 24

                 1                   2                   3                   4                   5

    1     0.00000000000000     1.48031134344828     0.11642947779902     0.02876321590080     0.19326313107019
    2     1.48031134344828     0.00000000000000     1.00586611455755     0.12303602845195     1.46334927946534
    3     0.11642947779902     1.00586611455755     0.00000000000000     1.41784929317609     0.11814085264771
    4     0.02876321590080     0.12303602845195     1.41784929317609     0.00000000000000     0.03991810312009
    5     0.19326313107019     1.46334927946534     0.11814085264771     0.03991810312009     0.00000000000000
    6     0.04077784468693     0.12363625416643     1.42269168066974     0.13108911936230     0.03035447778235
    7     0.78500606212943     0.04738196452884     0.00949727892626     0.00132263838612     0.01477780092830
    8     0.02299320320815     0.11359383911179     0.03556846274269     0.02557603290206     1.15654094943010
    9     0.00512527881141     0.01800389515337     0.00281955898126     0.00134750664959     0.13408885515722
   10     0.06536857958266     0.13490728350581     0.01538355620125     0.00454108675636     1.07313386194864
   11     0.02871087137480     0.07496712557319     0.00630716840891     0.00371403395471     0.16913234593623
   12     0.00421177042335     0.01696228654008     0.13699849246654     0.14633097301676     0.00388886924163
   13     0.00328453432187     0.01661479443984     0.13680835921533     1.52067870717846     0.00455554553846
   14     0.00434878824832     0.01077642854352     0.13854016661893     0.14041168158879     0.00441785720620
   15     0.00506541191484     0.01803568903187     0.05725896683810     0.00981442947062     0.00313687690791
   16     0.00167825996705     0.01739503346226     0.05653744732475     0.80848722814239     0.00683404029970
   17     0.00029593882351     0.00163580727419     0.00048073722378     0.00012279463019     0.01185892526543
   18     0.10434171116929     0.08109624006424     0.00488297083809     0.00230422242297     0.14473463411091
   19     0.00016685538046     0.00123574725221     0.01070621437563     0.00254203640785     0.00033803848664
   20     0.00023203636432     0.00127706855395     0.01073868182906     0.06081470004659     0.00027904556944
   21     0.00004797620981     0.00028293012920     0.00298275795201     0.01132327986219     0.00005792735730
   22     0.00019523855794     0.01100011908375     0.00898170755233     0.00776454621135     0.05006432820224
   23     0.00042721112820     0.00172404513148     0.00033087409548     0.00014335713081     0.01388895360148
   24     0.83628917007539     0.05037983993887     0.01427895845435     0.00202636126230     0.01259672366385

                 6                   7                   8                   9                  10

    1     0.04077784468693     0.78500606212943     0.02299320320815     0.00512527881141     0.06536857958266
    2     0.12363625416643     0.04738196452884     0.11359383911179     0.01800389515337     0.13490728350581
    3     1.42269168066974     0.00949727892626     0.03556846274269     0.00281955898126     0.01538355620125
    4     0.13108911936230     0.00132263838612     0.02557603290206     0.00134750664959     0.00454108675636
    5     0.03035447778235     0.01477780092830     1.15654094943010     0.13408885515722     1.07313386194864
    6     0.00000000000000     0.00140788577342     0.00935104489108     0.00079358131728     0.00382508532373
    7     0.00140788577342     0.00000000000000     0.00123478287818     0.00114371956539     0.01266835631442
    8     0.00935104489108     0.00123478287818     0.00000000000000     0.19950446527086     0.13584016566690
    9     0.00079358131728     0.00114371956539     0.19950446527086     0.00000000000000     1.33948854992648
   10     0.00382508532373     0.01266835631442     0.13584016566690     1.33948854992648     0.00000000000000
   11     0.00180260263538     0.00050071419309     1.79961792504551     1.27696202655997     0.14116880942024
   12     1.52027342078129     0.00019643798044     0.00171008968490     0.00018451309882     0.00057190911751
   13     0.14679135830181     0.00022933064281     0.00416567040855     0.00025587492216     0.00071848321068
   14     0.14036527605710     0.00045374228542     0.00151757325648     0.00014959139083     0.00085381730843
   15     0.81298464365878     0.00007100917478     0.00054355840967     0.00004101709169     0.00019962046873
   16     0.00949742917494     0.00003513742702     0.00449040817399     0.00016421280997     0.00044927000313
   17     0.00011366767158     0.00011883918793     0.01091480217602     0.80559524489875     0.04385320455458
   18     0.00200851549853     0.05220748029001     0.02307026325781     0.21819156287768     2.09916382374836
   19     0.06082946071114     0.00000812812445     0.00007202781180     0.00001508462512     0.00006726723155
   20     0.00251949824712     0.00000799061968     0.00008413806113     0.00001153967348     0.00005821821975
   21     0.01139452763443     0.00001064484886     0.00001930681378     0.00000517610693     0.00001441130521
   22     0.00194053310644     0.00005123245917     0.81438778367663     0.01106058279445     0.00983491362390
   23     0.00008024880788     0.00019171098529     0.05895200416083     0.05649210945213     0.01240570797701
   24     0.00587267058805     0.01183330745611     0.00123509763358     0.00020633805104     0.00248844949045

                11                  12                  13                  14                  15

    1     0.02871087137480     0.00421177042335     0.00328453432187     0.00434878824832     0.00506541191484
    2     0.07496712557319     0.01696228654008     0.01661479443984     0.01077642854352     0.01803568903187
    3     0.00630716840891     0.13699849246654     0.13680835921533     0.13854016661893     0.05725896683810
    4     0.00371403395471     0.14633097301676     1.52067870717846     0.14041168158879     0.00981442947062
    5     0.16913234593623     0.00388886924163     0.00455554553846     0.00441785720620     0.00313687690791
    6     0.00180260263538     1.52027342078129     0.14679135830181     0.14036527605710     0.81298464365878
    7     0.00050071419309     0.00019643798044     0.00022933064281     0.00045374228542     0.00007100917478
    8     1.79961792504551     0.00171008968490     0.00416567040855     0.00151757325648     0.00054355840967
    9     1.27696202655997     0.00018451309882     0.00025587492216     0.00014959139083     0.00004101709169
   10     0.14116880942024     0.00057190911751     0.00071848321068     0.00085381730843     0.00019962046873
   11     0.00000000000000     0.00030248635731     0.00057246571945     0.00042316909706     0.00004982015882
   12     0.00030248635731     0.00000000000000     0.13950448522792     1.52124201685579     0.05672209421893
   13     0.00057246571945     0.13950448522792     0.00000000000000     1.51947207606905     0.00233082205711
   14     0.00042316909706     1.52124201685579     1.51947207606905     0.00000000000000     0.01072822054474
   15     0.00004982015882     0.05672209421893     0.00233082205711     0.01072822054474     0.00000000000000
   16     0.00029106113877     0.00222199329537     0.05605574720662     0.01055809578265     0.00032617053923
   17     0.04270772653085     0.00002409054387     0.00002379391389     0.00004247647524     0.00000217509340
   18     0.02507566508985     0.00033674769031     0.00038767084640     0.00041862191521     0.00010710063345
   19     0.00003854469368     0.83159636259797     0.01131322636622     0.05966246783881     0.00534354162791
   20     0.00005515116000     0.01130710080478     0.83134546252105     0.05966880462098     0.00027385246613
   21     0.00000646325856     0.05975890234870     0.05963499089878     0.83340721150096     0.00022945951500
   22     0.05987937454122     0.00047833493514     0.00125181003772     0.00038540221440     0.00002490168896
   23     0.83324278244394     0.00001610046956     0.00001932108487     0.00000849335131     0.00000800268570
   24     0.00122339676013     0.00052029325759     0.00041787926209     0.00043223900537     0.00020228472608

                16                  17                  18                  19                  20

    1     0.00167825996705     0.00029593882351     0.10434171116929     0.00016685538046     0.00023203636432
    2     0.01739503346226     0.00163580727419     0.08109624006424     0.00123574725221     0.00127706855395
    3     0.05653744732475     0.00048073722378     0.00488297083809     0.01070621437563     0.01073868182906
    4     0.80848722814239     0.00012279463019     0.00230422242297     0.00254203640785     0.06081470004659
    5     0.00683404029970     0.01185892526543     0.14473463411091     0.00033803848664     0.00027904556944
    6     0.00949742917494     0.00011366767158     0.00200851549853     0.06082946071114     0.00251949824712
    7     0.00003513742702     0.00011883918793     0.05220748029001     0.00000812812445     0.00000799061968
    8     0.00449040817399     0.01091480217602     0.02307026325781     0.00007202781180     0.00008413806113
    9     0.00016421280997     0.80559524489875     0.21819156287768     0.00001508462512     0.00001153967348
   10     0.00044927000313     0.04385320455458     2.09916382374836     0.00006726723155     0.00005821821975
   11     0.00029106113877     0.04270772653085     0.02507566508985     0.00003854469368     0.00005515116000
   12     0.00222199329537     0.00002409054387     0.00033674769031     0.83159636259797     0.01130710080478
   13     0.05605574720662     0.00002379391389     0.00038767084640     0.01131322636622     0.83134546252105
   14     0.01055809578265     0.00004247647524     0.00041862191521     0.05966246783881     0.05966880462098
   15     0.00032617053923     0.00000217509340     0.00010710063345     0.00534354162791     0.00027385246613
   16     0.00000000000000     0.00000390640648     0.00019062085081     0.00026482671097     0.00528208454903
   17     0.00000390640648     0.00000000000000     0.01016732700290     0.00000075197308     0.00000060601813
   18     0.00019062085081     0.01016732700290     0.00000000000000     0.00003729216361     0.00004462955823
   19     0.00026482671097     0.00000075197308     0.00003729216361     0.00000000000000     0.00023999097036
   20     0.00528208454903     0.00000060601813     0.00004462955823     0.00023999097036     0.00000000000000
   21     0.00023665349810     0.00000048596573     0.00000471352058     0.00541243640722     0.00541563690134
   22     0.00059729037114     0.00042887656796     0.00202483769975     0.00000071905036     0.00001070271649
   23     0.00001017683561     0.00317638447444     0.00166818527358     0.00000143193266     0.00000257193129
   24     0.00001600437201     0.00001443900860     0.00139291894755     0.00003017407575     0.00003377855363

                21                  22                  23                  24

    1     0.00004797620981     0.00019523855794     0.00042721112820     0.83628917007539
    2     0.00028293012920     0.01100011908375     0.00172404513148     0.05037983993887
    3     0.00298275795201     0.00898170755233     0.00033087409548     0.01427895845435
    4     0.01132327986219     0.00776454621135     0.00014335713081     0.00202636126230
    5     0.00005792735730     0.05006432820224     0.01388895360148     0.01259672366385
    6     0.01139452763443     0.00194053310644     0.00008024880788     0.00587267058805
    7     0.00001064484886     0.00005123245917     0.00019171098529     0.01183330745611
    8     0.00001930681378     0.81438778367663     0.05895200416083     0.00123509763358
    9     0.00000517610693     0.01106058279445     0.05649210945213     0.00020633805104
   10     0.00001441130521     0.00983491362390     0.01240570797701     0.00248844949045
   11     0.00000646325856     0.05987937454122     0.83324278244394     0.00122339676013
   12     0.05975890234870     0.00047833493514     0.00001610046956     0.00052029325759
   13     0.05963499089878     0.00125181003772     0.00001932108487     0.00041787926209
   14     0.83340721150096     0.00038540221440     0.00000849335131     0.00043223900537
   15     0.00022945951500     0.00002490168896     0.00000800268570     0.00020228472608
   16     0.00023665349810     0.00059729037114     0.00001017683561     0.00001600437201
   17     0.00000048596573     0.00042887656796     0.00317638447444     0.00001443900860
   18     0.00000471352058     0.00202483769975     0.00166818527358     0.00139291894755
   19     0.00541243640722     0.00000071905036     0.00000143193266     0.00003017407575
   20     0.00541563690134     0.00001070271649     0.00000257193129     0.00003377855363
   21     0.00000000000000     0.00000409293218     0.00000058078151     0.00000747934377
   22     0.00000409293218     0.00000000000000     0.00251889133669     0.00008008122596
   23     0.00000058078151     0.00251889133669     0.00000000000000     0.00001872957098
   24     0.00000747934377     0.00008008122596     0.00001872957098     0.00000000000000



  Atomic Valences: 

 #  #
 Irrep: 1
      1:    3.727333910595989
      2:    4.813469157407991
      3:    4.730079778894887
      4:    4.489921376031335
      5:    4.649351422937354
      6:    4.480400826847732
      7:    0.940356195105416
      8:    4.420983594672476
      9:    4.071650285185879
     10:    5.097004430905785
     11:    4.466751730051657
     12:    4.455359770954553
     13:    4.456432409391130
     14:    4.458284217775581
     15:    0.983499668922445
     16:    0.981623098341981
     17:    0.931583001680519
     18:    2.773857755470153
     19:    0.989922626815452
     20:    0.989703289955951
     21:    0.990258045092152
     22:    0.982966300586158
     23:    0.985327874642735
     24:    0.941596614723501


    Psi4 stopped on: Saturday, 18 November 2023 08:49AM
    Psi4 wall time for execution: 0:00:21.91

*** Psi4 exiting successfully. Buy a developer a beer!
