24
 energy: -38.551566961929 gnorm: 0.000267925516 xtb: 6.5.0 (97a52f5)
N            1.75068542320417       -0.55777152399127        1.09180817803585
C            0.62513107421231       -0.21971998951848        0.42392734512665
C           -0.23448231129029       -1.31879141846786       -0.04744914026675
C           -1.61203464043830       -1.29871407250546        0.15967682311530
C            0.29491329380787        1.10862793382449        0.28757369738537
C            0.32358612706129       -2.39244008386040       -0.74001203450368
H            2.36460457160222        0.23319382897581        1.29588252428433
C           -0.88098473021732        1.76239768769978       -0.22417075549073
N            0.55460350027751        3.34582202050503        0.43239889128198
C            1.20078303365543        2.17461284510487        0.71486365237423
C           -0.68632822710409        3.09188558642356       -0.12525080069024
C           -0.47441719944128       -3.41725902283569       -1.21313354093874
C           -2.40597843287931       -2.32981578649365       -0.30672102419581
C           -1.84206587726736       -3.38891215813879       -0.99877537933182
H            1.38645012172438       -2.41356356904379       -0.93836466372908
H           -2.05004011855867       -0.49441661687190        0.72925031378203
H            0.93287421513762        4.25880909985725        0.62046380119986
O            2.32276082228444        2.08976142264748        1.21508609449998
H           -0.02812489617515       -4.23859631589694       -1.75441831769820
H           -3.47121844440255       -2.30752133789832       -0.12934330230976
H           -2.46515490714715       -4.18972250463634       -1.36810873636517
H           -1.73659835080163        1.27947588650727       -0.65079448917540
H           -1.33350736910596        3.90259358213492       -0.39983036867722
H            2.18892632186171       -1.44252750352178        0.89628423228709
