24
 energy: -38.542107289599 gnorm: 0.074410791886 xtb: 6.5.0 (97a52f5)
N            1.29538850000000       -0.49131334000000        1.72651064000000
C            0.45434825000000       -0.19365775000000        0.67180446000000
C           -0.33136915000000       -1.31023552000000        0.07801602000000
C           -1.43194702000000       -1.86409302000000        0.77722451000000
C            0.30500646000000        1.12873907000000        0.25943104000000
C            0.00909621000000       -1.82357891000000       -1.19746822000000
H            1.91572351000000        0.27550574000000        2.05158259000000
C           -0.59744228000000        1.75767945000000       -0.69195549000000
N            0.78049031000000        3.34190205000000        0.15749819000000
C            1.17768428000000        2.18671221000000        0.78464141000000
C           -0.28195815000000        3.08355180000000       -0.72040590000000
C           -0.73406290000000       -2.87085656000000       -1.75634544000000
C           -2.17089528000000       -2.91093986000000        0.21205274000000
C           -1.82754910000000       -3.42140910000000       -1.05671617000000
H            0.85120482000000       -1.39616925000000       -1.74556545000000
H           -1.70339359000000       -1.46852352000000        1.75812361000000
H            1.22382323000000        4.23039681000000        0.33999905000000
O            2.11097372000000        2.09274159000000        1.62760625000000
H           -0.46480535000000       -3.25997842000000       -2.73988336000000
H           -3.01808262000000       -3.33075397000000        0.75755158000000
H           -2.40635264000000       -4.23689414000000       -1.49481719000000
H           -1.37076520000000        1.27600606000000       -1.27250210000000
H           -0.71942022000000        3.88603195000000       -1.29784915000000
H            1.65868619000000       -1.44345338000000        1.74231138000000
24
 energy: -38.549700492760 gnorm: 0.030199161394 xtb: 6.5.0 (97a52f5)
N            1.27546603249554       -0.49588896286500        1.70001716227807
C            0.44830918335129       -0.19532616921641        0.66284677957360
C           -0.33559872617919       -1.30865040616273        0.07277367940329
C           -1.42047832442278       -1.85682844623362        0.76057026549864
C            0.31103583053524        1.11500650835849        0.26332072184141
C           -0.00547706850980       -1.81594766276019       -1.18553137277270
H            1.88287715455381        0.27246424148070        2.00826880660853
C           -0.58113239484253        1.74709393029791       -0.67862666531651
N            0.77992645031636        3.32290780443462        0.15640953633648
C            1.16761984273671        2.17627056229918        0.79178461425696
C           -0.27210039511902        3.06142051468929       -0.71296430553827
C           -0.73767919310632       -2.85626649771810       -1.73672371218823
C           -2.15163103133672       -2.89459851477457        0.20309796875873
C           -1.81306470814530       -3.39948203381052       -1.04585465692414
H            0.83262850066849       -1.39509597443043       -1.72700767098536
H           -1.68611566725386       -1.46630518713284        1.73477267062809
H            1.21275967858041        4.21581222196955        0.33014419432968
O            2.08430035087981        2.09408125810479        1.61921386835176
H           -0.46990624372976       -3.24629221497763       -2.71120670181929
H           -2.99158777812453       -3.31326577026913        0.74416957588839
H           -2.38587243515882       -4.20983889628613       -1.47929191801276
H           -1.35170061290953        1.26329386453247       -1.24841013255089
H           -0.71118285180821        3.85923285443728       -1.28479391874933
H            1.64298638652872       -1.43638703396697        1.73386621110385
24
 energy: -38.550113562540 gnorm: 0.118474459351 xtb: 6.5.0 (97a52f5)
N            1.26532051368819       -0.50641733146780        1.69204174256294
C            0.45004476645886       -0.19719325429567        0.65995337880900
C           -0.33712293004136       -1.30335148002384        0.06830605679318
C           -1.41657349159174       -1.84441797450729        0.75493901739426
C            0.31524471522747        1.10713943148562        0.26683052200978
C           -0.00756002955181       -1.80661434316116       -1.18433595658524
H            1.86864560364460        0.26283621792084        1.98999598382976
C           -0.57568481995971        1.73374357975905       -0.67324960761580
N            0.77715070430999        3.31057876873878        0.15405342954533
C            1.16837370224440        2.16942269744816        0.79492597657743
C           -0.27076542391387        3.04455464069640       -0.71216655555001
C           -0.73661481210438       -2.84569796754390       -1.73257243915527
C           -2.14521244071261       -2.88110066728505        0.20182291175955
C           -1.80675184103934       -3.38512782445504       -1.04149358641657
H            0.82596607575764       -1.38307997543556       -1.72494227950401
H           -1.67824986824064       -1.45268358075834        1.72638627384616
H            1.19693594637033        4.20963757155333        0.32202609001946
O            2.07573892170683        2.09582361720533        1.62207379360353
H           -0.46938307323317       -3.23528315239012       -2.70377654950308
H           -2.98172088374721       -3.29798738178439        0.74308646594352
H           -2.37615690265560       -4.19554315847637       -1.47124444660335
H           -1.34340013776325        1.24062060619070       -1.23558545835607
H           -0.71300227761528        3.83849981641345       -1.28270683001128
H            1.63915996276165       -1.44094886582718        1.73647706660678
24
 energy: -38.549820221715 gnorm: 0.142011280617 xtb: 6.5.0 (97a52f5)
N            1.26521308217047       -0.51836502666908        1.68371262814838
C            0.44990844312028       -0.19889931546907        0.66223542881821
C           -0.33709042647475       -1.29863003693060        0.06479038284347
C           -1.41566737685148       -1.83104094996181        0.75123908982357
C            0.32121676113898        1.09990825851749        0.26990506950336
C           -0.00870262939564       -1.79605072898692       -1.18486867935371
H            1.86074896309468        0.25238762846532        1.97748582339847
C           -0.57109143605303        1.71880728626320       -0.66970089123811
N            0.77364110879965        3.29982724069031        0.15077639026963
C            1.17001558401781        2.16430021419689        0.79838605939722
C           -0.27148727067684        3.02798075851014       -0.71279014104985
C           -0.73565739580951       -2.83474856312270       -1.73153327124812
C           -2.14240310659603       -2.86783795767588        0.20096279942372
C           -1.80220846246316       -3.37193914526722       -1.03875140592323
H            0.82160769348473       -1.36927075058777       -1.72430687387515
H           -1.67370579733969       -1.43722962273545        1.72065800956386
H            1.17875297314590        4.20610831412454        0.31265972158011
O            2.06978976459167        2.09917540088415        1.62763898053591
H           -0.46821793233681       -3.22398191252990       -2.70031586431565
H           -2.97677874086789       -3.28292510861349        0.74227820634113
H           -2.36843014646904       -4.18334188206681       -1.46549683375441
H           -1.33575144013336        1.21388281379337       -1.22412092846930
H           -0.71760450372407        3.81773478619642       -1.28322721055301
H            1.63828427162710       -1.44844171102520        1.74322851013349
24
 energy: -38.550541287052 gnorm: 0.007141362052 xtb: 6.5.0 (97a52f5)
N            1.27078135912111       -0.51525555211749        1.69396288880386
C            0.45392318288657       -0.19951147087644        0.66444040387854
C           -0.33445572928806       -1.30087229090358        0.06690865691407
C           -1.41623847595227       -1.83703715145038        0.75513107577746
C            0.32005565748600        1.10385311234437        0.27022637852053
C           -0.00659491906949       -1.79930517605220       -1.18825404499505
H            1.87152143892450        0.25509485218685        1.99228050304543
C           -0.57470096137018        1.72230036474526       -0.67181188863766
N            0.77361995698421        3.30653172689285        0.15045473240466
C            1.16882602750492        2.16959936815487        0.79850665423474
C           -0.27432190303820        3.03434749316550       -0.71452619226020
C           -0.73726977658355       -2.83833520137584       -1.73645879613609
C           -2.14716465819396       -2.87279536971811        0.20156097922958
C           -1.80682493812839       -3.37794949118890       -1.04206743396645
H            0.82645348172084       -1.37364980378564       -1.72837335005096
H           -1.67682187420946       -1.44133237987874        1.72545211102807
H            1.18355107161780        4.21102221886903        0.31299722599373
O            2.07482748081084        2.10098733330158        1.62864517557684
H           -0.47066974997203       -3.22780988664787       -2.70778546268680
H           -2.98472271749414       -3.28743792700317        0.74274140340655
H           -2.37579047433921       -4.18943187978629       -1.47061085214319
H           -1.33891888594252        1.21838376228819       -1.22980825018901
H           -0.71924732012135        3.82459028210953       -1.28803145498434
H            1.64456470664599       -1.44857694327345        1.74526453723565
24
 energy: -38.550578595638 gnorm: 0.002490311452 xtb: 6.5.0 (97a52f5)
N            1.27342199579789       -0.51767318738988        1.69707203425833
C            0.45737140503434       -0.20109026551010        0.66727326066837
C           -0.33253734963816       -1.30026670202250        0.06739487504337
C           -1.41541881621606       -1.83481718204628        0.75522753342544
C            0.32305436142718        1.10176086053775        0.27219203160802
C           -0.00565503714438       -1.79704239639527       -1.18867759128568
H            1.87437092702333        0.25242103735491        1.99528207824133
C           -0.57347093771824        1.71582885951595       -0.67132992657148
N            0.77103709567231        3.30484226264828        0.14862000444762
C            1.16946697728713        2.16996946353361        0.79884234408276
C           -0.27628872385492        3.02853308386249       -0.71609332451324
C           -0.73822568808230       -2.83437042488794       -1.73789648867769
C           -2.14827284973614       -2.86870547168178        0.20047074741356
C           -1.80818003054644       -3.37319552777886       -1.04350719710027
H            0.82708004684052       -1.37058922780811       -1.72869699899186
H           -1.67486988298072       -1.43867353272947        1.72566299452669
H            1.17518890981252        4.21241867937044        0.30894140206169
O            2.07475688418448        2.10401883015279        1.62961156297988
H           -0.47320701122827       -3.22262806153786       -2.71016033585445
H           -2.98694424967802       -3.28212499559564        0.74086514147518
H           -2.37780478693551       -4.18410320877200       -1.47243079274177
H           -1.33570871210779        1.20662353578041       -1.22724740582587
H           -0.72304587701733        3.81668533911667       -1.29114148745393
H            1.64826332980454       -1.45041177771770        1.75057053878396
24
 energy: -38.550623449546 gnorm: 0.003854323481 xtb: 6.5.0 (97a52f5)
N            1.28001727138603       -0.52208731732464        1.70313624103855
C            0.46489191329406       -0.20444907787243        0.67289309950319
C           -0.32826373528311       -1.29940041769020        0.06881112683718
C           -1.41359306431635       -1.83093520390387        0.75569959210499
C            0.32985014474317        1.09758028369772        0.27573872705004
C           -0.00401763221162       -1.79261315475103       -1.18954546235155
H            1.88155240321812        0.24694406168196        2.00204497600997
C           -0.57042168142828        1.70268294721111       -0.67091458437907
N            0.76525959388344        3.30195654277995        0.14525777546719
C            1.17029846808023        2.17146100242874        0.79999083128206
C           -0.28086950084566        3.01689381561344       -0.71888116250225
C           -0.74066847410663       -2.82626115144219       -1.74093492320551
C           -2.15105297282370       -2.86028288784654        0.19814473519965
C           -1.81168157226400       -3.36356816555872       -1.04670900073265
H            0.82950733517316       -1.36634471720204       -1.72867682786462
H           -1.67129400599162       -1.43379871231067        1.72625619006897
H            1.15702740522179        4.21579502254353        0.30120671015740
O            2.07500236646485        2.11102525280019        1.63137095780035
H           -0.47787017155619       -3.21320560318972       -2.71448282181033
H           -2.99238302317447       -3.27089135886841        0.73676467278748
H           -2.38325104956429       -4.17276601457633       -1.47679988089294
H           -1.32812700855995        1.18298141625633       -1.22322156084801
H           -0.73159003149132        3.80076494815166       -1.29692513774651
H            1.65605900215229       -1.45407152062800        1.76062072702640
24
 energy: -38.550640430741 gnorm: 0.002832933878 xtb: 6.5.0 (97a52f5)
N            1.28407777918940       -0.52356542853412        1.70722325357035
C            0.46944479490601       -0.20651131754184        0.67646539002675
C           -0.32470549329760       -1.29994414389648        0.07094269311590
C           -1.41142761162557       -1.83007530603062        0.75690796090707
C            0.33403155513279        1.09467862454601        0.27719261822623
C           -0.00217575986968       -1.79104827453414       -1.18864747249150
H            1.88596146282239        0.24480406214923        2.00642012536005
C           -0.56807500467588        1.69442547565042       -0.67149732352729
N            0.76105842780471        3.30015631708945        0.14317676542932
C            1.17040866276345        2.17236500673891        0.80010155747937
C           -0.28365220963143        3.00949041209387       -0.72116128852099
C           -0.74217356621637       -2.82105864189768       -1.74235902164275
C           -2.15253108993237       -2.85534847855050        0.19678897544467
C           -1.81489038737016       -3.35658374084392       -1.04938797965517
H            0.83187100833033       -1.36523006807108       -1.72734327639824
H           -1.66770531147992       -1.43395793019278        1.72827078611777
H            1.14539713309396        4.21732993172218        0.29733206944731
O            2.07474704401108        2.11590555532606        1.63186439450215
H           -0.48132179811655       -3.20609125398583       -2.71723421995732
H           -2.99548216525952       -3.26427803052288        0.73420194611259
H           -2.38920581546869       -4.16280222103667       -1.48150993515300
H           -1.32289710699065        1.16937310961274       -1.22243649122980
H           -0.73689866618402        3.79071875872176       -1.30083764747934
H            1.66052609806425       -1.45534242801227        1.76637112031583
24
 energy: -38.550651570541 gnorm: 0.001416837568 xtb: 6.5.0 (97a52f5)
N            1.28657126320923       -0.52335256984139        1.70950968955208
C            0.47203450688281       -0.20769802896027        0.67824908929780
C           -0.32225360684729       -1.30100267760851        0.07305789243312
C           -1.40947352064663       -1.83084923143189        0.75838404953795
C            0.33609824268457        1.09288441526961        0.27732971876379
C           -0.00089441486009       -1.79078229423959       -1.18732786016664
H            1.88847838594317        0.24470092237427        2.00873328058341
C           -0.56653420613550        1.68999629336244       -0.67253434309017
N            0.75827018852328        3.29919943909253        0.14213905525855
C            1.16987481742865        2.17281154600607        0.79990642595317
C           -0.28517467483743        3.00554662048850       -0.72274992688004
C           -0.74324502714192       -2.81794067367345       -1.74298864935070
C           -2.15309852093181       -2.85307157395383        0.19626771015687
C           -1.81742538726416       -3.35213332123215       -1.05131092321310
H            0.83407062412840       -1.36606766941060       -1.72545181634022
H           -1.66479629763894       -1.43644377460870        1.73070270716587
H            1.13916328715260        4.21759954519889        0.29617134622251
O            2.07400869900628        2.11887801237214        1.63190630902939
H           -0.48333347335206       -3.20163911427181       -2.71863319554601
H           -2.99695573490855       -3.26106773140970        0.73294379446530
H           -2.39440037874986       -4.15529907964206       -1.48550842159857
H           -1.31961375702487        1.16303908552312       -1.22378473065615
H           -0.73967407358829        3.78539162595395       -1.30323582688967
H            1.66268503896836       -1.45528977535778        1.76906962531143
24
 energy: -38.550665481157 gnorm: 0.002200232806 xtb: 6.5.0 (97a52f5)
N            1.28945007184754       -0.52185488002423        1.71276620105173
C            0.47492678126751       -0.20909183884555        0.68045730179867
C           -0.31837156810605       -1.30350349728828        0.07670094082898
C           -1.40597570082307       -1.83339370721874        0.76124826181319
C            0.33809464067579        1.09042223922805        0.27644806922961
C            0.00105996619052       -1.79125260430268       -1.18494193645094
H            1.89101037082623        0.24638534413153        2.01147216374486
C           -0.56449747719414        1.68491065292789       -0.67486768872536
N            0.75441443072672        3.29803462236824        0.14093328370576
C            1.16829287263839        2.17308115946838        0.79939075749305
C           -0.28682639148967        3.00113937037347       -0.72533385291972
C           -0.74494420584399       -2.81386604448928       -1.74377152156351
C           -2.15336316904544       -2.85100118010863        0.19604600130209
C           -1.82146435543516       -3.34599261447829       -1.05416068083892
H            0.83764369533446       -1.36857479657701       -1.72212133502138
H           -1.65955245493541       -1.44277559307891        1.73559110606876
H            1.13280372921478        4.21695489587174        0.29624372700437
O            2.07192341817655        2.12256292046580        1.63207442269637
H           -0.48634589296154       -3.19529014592605       -2.72061620253827
H           -2.99790264263351       -3.25825605329000        0.73214633330535
H           -2.40307504446777       -4.14378271146368       -1.49191190556922
H           -1.31543110424134        1.15719097889721       -1.22816865553703
H           -0.74253726460872        3.77946103335080       -1.30678726583981
H            1.66504927488724       -1.45409755999201        1.77200747496131
24
 energy: -38.550671239797 gnorm: 0.001123756401 xtb: 6.5.0 (97a52f5)
N            1.29096500939110       -0.52123542204494        1.71458828398067
C            0.47655174439017       -0.20996702365558        0.68168667696337
C           -0.31647891656360       -1.30470873366368        0.07832254926217
C           -1.40424115037493       -1.83444350976207        0.76264021725448
C            0.33889047904439        1.08900582307313        0.27621470077352
C            0.00190588467035       -1.79112892489628       -1.18411340830708
H            1.89195442288087        0.24756850870022        2.01263886178993
C           -0.56360721819654        1.68206399294993       -0.67597481095965
N            0.75253962774974        3.29717937450283        0.14020357099004
C            1.16741116682101        2.17290951767701        0.79933051888207
C           -0.28752144141600        2.99867712751819       -0.72684687372140
C           -0.74591386035324       -2.81158733259079       -1.74441612291462
C           -2.15340785963810       -2.84997179788566        0.19601829967532
C           -1.82324310932676       -3.34287355106779       -1.05544068112563
H            0.83885168379890       -1.36880021859796       -1.72097937889598
H           -1.65678822199121       -1.44542279548725        1.73787969161511
H            1.13018311258124        4.21641568356890        0.29616433700708
O            2.07040128539797        2.12410765358313        1.63277893973620
H           -0.48839893640606       -3.19148105792452       -2.72212840418389
H           -2.99820575963226       -3.25692752598907        0.73192145764189
H           -2.40685751380406       -4.13831998114071       -1.49468503516332
H           -1.31345767472943        1.15365065292073       -1.23030110744523
H           -0.74373871191254        3.77612966179701       -1.30907513793111
H            1.66658793761891       -1.45343013158506        1.77441785507601
24
 energy: -38.550677457139 gnorm: 0.000869425541 xtb: 6.5.0 (97a52f5)
N            1.29249747588213       -0.52058144702904        1.71717146449080
C            0.47838057592597       -0.21112360330460        0.68350794470947
C           -0.31407033890386       -1.30625805022407        0.08005510728646
C           -1.40207450126451       -1.83561698902056        0.76420715757347
C            0.33964937987458        1.08717727122355        0.27621167351609
C            0.00256350610745       -1.79036298836977       -1.18372186549936
H            1.89243852056973        0.24949981311043        2.01412294458704
C           -0.56272177425272        1.67845745558308       -0.67707544050395
N            0.75049531308216        3.29585437135515        0.13908375130123
C            1.16615916005516        2.17246980963338        0.79950631231415
C           -0.28817493001189        2.99544459125683       -0.72882456601744
C           -0.74746585356612       -2.80829172486619       -1.74567537490139
C           -2.15320101570571       -2.84891610663861        0.19609948632224
C           -1.82506823632884       -3.33921953697661       -1.05685867523544
H            0.83976847324616       -1.36809322085807       -1.72020317204702
H           -1.65325449155277       -1.44816849138624        1.74039469022630
H            1.12795972525169        4.21525519635122        0.29545788897246
O            2.06820343061766        2.12563223595422        1.63406079228493
H           -0.49145914387631       -3.18627645959070       -2.72450209312375
H           -2.99826820909024       -3.25554097784646        0.73182128803494
H           -2.41075890824020       -4.13225680799725       -1.49760811239388
H           -1.31126003397152        1.14898429679463       -1.23238081941918
H           -0.74482774058127        3.77168299828813       -1.31234077092967
H            1.66887159673318       -1.45234164544273        1.77833538845145
24
 energy: -38.550681924477 gnorm: 0.000341291511 xtb: 6.5.0 (97a52f5)
N            1.29341294289218       -0.52002533169183        1.71955232915972
C            0.47962827489603       -0.21207194471739        0.68525470157290
C           -0.31229289628041       -1.30735921568124        0.08129565836585
C           -1.40066740346561       -1.83642079828926        0.76517887493726
C            0.34013987444021        1.08581402714462        0.27672739793405
C            0.00295821964907       -1.78942723437568       -1.18359796631397
H            1.89246646313430        0.25121327220061        2.01571213185869
C           -0.56220299714072        1.67553011798109       -0.67753375398071
N            0.74932369327749        3.29466346394423        0.13787565171444
C            1.16545083590251        2.17210332619476        0.79953502518037
C           -0.28848091450346        2.99265998975362       -0.73043646526417
C           -0.74856588254465       -2.80560173427138       -1.74675589066549
C           -2.15314842508529       -2.84811022533195        0.19593497558075
C           -1.82628276371325       -3.33655297588846       -1.05808293460725
H            0.83978562127042       -1.36644947218339       -1.72011843964990
H           -1.65066862469473       -1.45011106004305        1.74212588362416
H            1.12676922820880        4.21415733343751        0.29377649980500
O            2.06685280946015        2.12662931499016        1.63492159281071
H           -0.49427414983469       -3.18156490694125       -2.72682653810139
H           -2.99816938207841       -3.25489471150602        0.73160852079628
H           -2.41308552357844       -4.12827380130673       -1.49980314834824
H           -1.30994108273148        1.14487478828825       -1.23274153802894
H           -0.74546506040906        3.76784913577467       -1.31508662509658
H            1.67083912292895       -1.45122136748221        1.78232905671640
