
    -----------------------------------------------------------------------
          Psi4: An Open-Source Ab Initio Electronic Structure Package
                               Psi4 1.6 release

                         Git: Rev {HEAD} 77475b5 


    D. G. A. Smith, L. A. Burns, A. C. Simmonett, R. M. Parrish,
    M. C. Schieber, R. Galvelis, P. Kraus, H. Kruse, R. Di Remigio,
    A. Alenaizan, A. M. James, S. Lehtola, J. P. Misiewicz, M. Scheurer,
    R. A. Shaw, J. B. Schriber, Y. Xie, Z. L. Glick, D. A. Sirianni,
    J. S. O'Brien, J. M. Waldrop, A. Kumar, E. G. Hohenstein,
    B. P. Pritchard, B. R. Brooks, H. F. Schaefer III, A. Yu. Sokolov,
    K. Patkowski, A. E. DePrince III, U. Bozkaya, R. A. King,
    F. A. Evangelista, J. M. Turney, T. D. Crawford, C. D. Sherrill,
    J. Chem. Phys. 152(18) 184108 (2020). https://doi.org/10.1063/5.0006002

                            Additional Code Authors
    E. T. Seidl, C. L. Janssen, E. F. Valeev, M. L. Leininger,
    J. F. Gonthier, R. M. Richard, H. R. McAlexander, M. Saitow, X. Wang,
    P. Verma, M. H. Lechner, and A. Jiang

             Previous Authors, Complete List of Code Contributors,
                       and Citations for Specific Modules
    https://github.com/psi4/psi4/blob/master/codemeta.json
    https://github.com/psi4/psi4/graphs/contributors
    http://psicode.org/psi4manual/master/introduction.html#citing-psifour

    -----------------------------------------------------------------------


    Psi4 started on: Saturday, 18 November 2023 08:00AM

    Process ID: 1106558
    Host:       node165.bme.utexas.edu
    PSIDATADIR: /home/liuchw/anaconda3/envs/poltype2022/share/psi4
    Memory:     500.0 MiB
    Threads:    1
    
  ==> Input File <==

--------------------------------------------------------------------------
molecule { 
0 1
H         -1.68130       -0.10010       -2.92110
N         -1.86950       -0.60480       -2.05600
C         -0.69030       -0.69330       -1.27690
C          0.54570       -0.74670       -1.92620
C         -3.13200       -0.30890       -1.55600
C         -0.69900       -0.87610        0.10610
C         -3.56930        0.84960       -1.00940
N         -3.52250        3.04850       -0.30400
C         -4.88910        1.21140       -0.43690
C         -2.71040        2.09760       -0.89730
C         -4.78720        2.54830       -0.03700
C         -4.06450       -1.44090       -1.76170
C         -4.11830       -2.50030       -0.84590
C         -4.89140       -1.47140       -2.89490
C         -5.00460       -3.56020       -1.04690
C         -5.77650       -2.53260       -3.09260
C         -5.83500       -3.57330       -2.16680
C          0.49640       -1.04020        0.82360
C          1.74110       -0.91260       -1.20990
C          1.74620       -1.05080        0.18250
H         -1.63560       -0.88150        0.65530
H          0.59670       -0.66530       -3.00930
H         -3.20520        3.98790       -0.12020
O         -1.56570        2.29350       -1.25750
H         -3.47150       -2.50600        0.02660
H         -4.85310       -0.66750       -3.62570
H         -5.04800       -4.37620       -0.33030
H         -6.42130       -2.54800       -3.96760
H         -6.52760       -4.39750       -2.31960
H          0.40570       -1.13160        1.90150
H          2.65370       -0.96970       -1.79450
H         -5.71600        0.60000       -0.35090
H         -5.55090        3.08910        0.39820
H          2.62540       -1.15540        0.71270
}
memory 208GB
set_num_threads(51)
psi4_io.set_default_path("/scratch/liuchw/Psi4-farH_in17")
set maxiter 500
set freeze_core True
set PROPERTIES_ORIGIN ["COM"]
set cubeprop_tasks ['esp']
set basis MINIX 
E, wfn = properties('hf',properties=['dipole','WIBERG_LOWDIN_INDICES','MULLIKEN_CHARGES'],return_wfn=True)
cubeprop(wfn)
fchk(wfn, "farH_in17-esp_frag.fchk")
clean()
--------------------------------------------------------------------------

  Memory set to 193.715 GiB by Python driver.
  Threads set to 51 by Python driver.

*** tstart() called on node165.bme.utexas.edu
*** at Sat Nov 18 08:00:40 2023

   => Loading Basis Set <=

    Name: MINIX
    Role: ORBITAL
    Keyword: BASIS
    atoms 1, 21-23, 25-34 entry H          line    24 file /home/liuchw/anaconda3/envs/poltype2022/share/psi4/basis/minix.gbs 
    atoms 2, 8            entry N          line    88 file /home/liuchw/anaconda3/envs/poltype2022/share/psi4/basis/minix.gbs 
    atoms 3-7, 9-20       entry C          line    74 file /home/liuchw/anaconda3/envs/poltype2022/share/psi4/basis/minix.gbs 
    atoms 24              entry O          line   102 file /home/liuchw/anaconda3/envs/poltype2022/share/psi4/basis/minix.gbs 


         ---------------------------------------------------------
                                   SCF
               by Justin Turney, Rob Parrish, Andy Simmonett
                          and Daniel G. A. Smith
                              RHF Reference
                       51 Threads, 198364 MiB Core
         ---------------------------------------------------------

  ==> Geometry <==

    Molecular point group: c1
    Full point group: C1

    Geometry (in Angstrom), charge = 0, multiplicity = 1:

       Center              X                  Y                   Z               Mass       
    ------------   -----------------  -----------------  -----------------  -----------------
         H            0.937179343251     0.315429434533    -1.789609994244     1.007825032230
         N            0.748979343251    -0.189270565467    -0.924509994244    14.003074004430
         C            1.928179343251    -0.277770565467    -0.145409994244    12.000000000000
         C            3.164179343251    -0.331170565467    -0.794709994244    12.000000000000
         C           -0.513520656749     0.106629434533    -0.424509994244    12.000000000000
         C            1.919479343251    -0.460570565467     1.237590005756    12.000000000000
         C           -0.950820656749     1.265129434533     0.122090005756    12.000000000000
         N           -0.904020656749     3.464029434533     0.827490005756    14.003074004430
         C           -2.270620656749     1.626929434533     0.694590005756    12.000000000000
         C           -0.091920656749     2.513129434533     0.234190005756    12.000000000000
         C           -2.168720656749     2.963829434533     1.094490005756    12.000000000000
         C           -1.446020656749    -1.025370565467    -0.630209994244    12.000000000000
         C           -1.499820656749    -2.084770565467     0.285590005756    12.000000000000
         C           -2.272920656749    -1.055870565467    -1.763409994244    12.000000000000
         C           -2.386120656749    -3.144670565467     0.084590005756    12.000000000000
         C           -3.158020656749    -2.117070565467    -1.961109994244    12.000000000000
         C           -3.216520656749    -3.157770565467    -1.035309994244    12.000000000000
         C            3.114879343251    -0.624670565467     1.955090005756    12.000000000000
         C            4.359579343251    -0.497070565467    -0.078409994244    12.000000000000
         C            4.364679343251    -0.635270565467     1.313990005756    12.000000000000
         H            0.982879343251    -0.465970565467     1.786790005756     1.007825032230
         H            3.215179343251    -0.249770565467    -1.877809994244     1.007825032230
         H           -0.586720656749     4.403429434533     1.011290005756     1.007825032230
         O            1.052779343251     2.709029434533    -0.126009994244    15.994914619570
         H           -0.853020656749    -2.090470565467     1.158090005756     1.007825032230
         H           -2.234620656749    -0.251970565467    -2.494209994244     1.007825032230
         H           -2.429520656749    -3.960670565467     0.801190005756     1.007825032230
         H           -3.802820656749    -2.132470565467    -2.836109994244     1.007825032230
         H           -3.909120656749    -3.981970565467    -1.188109994244     1.007825032230
         H            3.024179343251    -0.716070565467     3.032990005756     1.007825032230
         H            5.272179343251    -0.554170565467    -0.663009994244     1.007825032230
         H           -3.097520656749     1.015529434533     0.780590005756     1.007825032230
         H           -2.932420656749     3.504629434533     1.529690005756     1.007825032230
         H            5.243879343251    -0.739870565467     1.844190005756     1.007825032230

  Running in c1 symmetry.

  Rotational constants: A =      0.01440  B =      0.00930  C =      0.00653 [cm^-1]
  Rotational constants: A =    431.61803  B =    278.89599  C =    195.86173 [MHz]
  Nuclear repulsion = 1417.547469715657598

  Charge       = 0
  Multiplicity = 1
  Electrons    = 138
  Nalpha       = 69
  Nbeta        = 69

  ==> Algorithm <==

  SCF Algorithm Type is DF.
  DIIS enabled.
  MOM disabled.
  Fractional occupation disabled.
  Guess Type is SAD.
  Energy threshold   = 1.00e-06
  Density threshold  = 1.00e-06
  Integral threshold = 1.00e-12

  ==> Primary Basis <==

  Basis Set: MINIX
    Blend: MINIX
    Number of shells: 74
    Number of basis functions: 114
    Number of Cartesian functions: 114
    Spherical Harmonics?: true
    Max angular momentum: 1

   => Loading Basis Set <=

    Name: (MINIX AUX)
    Role: JKFIT
    Keyword: DF_BASIS_SCF
    atoms 1, 21-23, 25-34 entry H          line    18 file /home/liuchw/anaconda3/envs/poltype2022/share/psi4/basis/def2-universal-jkfit.gbs 
    atoms 2, 8            entry N          line   258 file /home/liuchw/anaconda3/envs/poltype2022/share/psi4/basis/def2-universal-jkfit.gbs 
    atoms 3-7, 9-20       entry C          line   198 file /home/liuchw/anaconda3/envs/poltype2022/share/psi4/basis/def2-universal-jkfit.gbs 
    atoms 24              entry O          line   318 file /home/liuchw/anaconda3/envs/poltype2022/share/psi4/basis/def2-universal-jkfit.gbs 

  ==> Integral Setup <==

  DFHelper Memory: AOs need 0.183 GiB; user supplied 145.286 GiB. Using in-core AOs.

  ==> MemDFJK: Density-Fitted J/K Matrices <==

    J tasked:                   Yes
    K tasked:                   Yes
    wK tasked:                   No
    OpenMP threads:              51
    Memory [MiB]:            148773
    Algorithm:                 Core
    Schwarz Cutoff:           1E-12
    Mask sparsity (%):      10.5879
    Fitting Condition:        1E-10

   => Auxiliary Basis Set <=

  Basis Set: (MINIX AUX)
    Blend: DEF2-UNIVERSAL-JKFIT
    Number of shells: 584
    Number of basis functions: 1758
    Number of Cartesian functions: 2072
    Spherical Harmonics?: true
    Max angular momentum: 4

  Minimum eigenvalue in the overlap matrix is 1.7219145054E-01.
  Reciprocal condition number of the overlap matrix is 6.3705260458E-02.
    Using symmetric orthogonalization.

  ==> Pre-Iterations <==

  SCF Guess: Superposition of Atomic Densities via on-the-fly atomic UHF (no occupation information).

   -------------------------
    Irrep   Nso     Nmo    
   -------------------------
     A        114     114 
   -------------------------
    Total     114     114
   -------------------------

  ==> Iterations <==

                           Total Energy        Delta E     RMS |[F,P]|

   @DF-RHF iter SAD:  -821.23577776496484   -8.21236e+02   0.00000e+00 
   @DF-RHF iter   1:  -829.66249352451621   -8.42672e+00   4.35261e-03 DIIS/ADIIS
   @DF-RHF iter   2:  -829.79417266981841   -1.31679e-01   3.01374e-03 DIIS/ADIIS
   @DF-RHF iter   3:  -829.85631897038479   -6.21463e-02   3.96150e-04 DIIS/ADIIS
   @DF-RHF iter   4:  -829.85918522034797   -2.86625e-03   1.68284e-04 DIIS/ADIIS
   @DF-RHF iter   5:  -829.85963029013260   -4.45070e-04   6.96417e-05 DIIS
   @DF-RHF iter   6:  -829.85972134401823   -9.10539e-05   2.42022e-05 DIIS
   @DF-RHF iter   7:  -829.85973251847702   -1.11745e-05   1.04288e-05 DIIS
   @DF-RHF iter   8:  -829.85973460764490   -2.08917e-06   3.20071e-06 DIIS
   @DF-RHF iter   9:  -829.85973485786815   -2.50223e-07   1.39783e-06 DIIS
   @DF-RHF iter  10:  -829.85973488812795   -3.02598e-08   3.90926e-07 DIIS
  Energy and wave function converged.


  ==> Post-Iterations <==

    Orbital Energies [Eh]
    ---------------------

    Doubly Occupied:                                                      

       1A    -20.323532     2A    -15.470888     3A    -15.418585  
       4A    -11.336706     5A    -11.245895     6A    -11.242737  
       7A    -11.231246     8A    -11.198559     9A    -11.193179  
      10A    -11.178293    11A    -11.177938    12A    -11.176614  
      13A    -11.176385    14A    -11.174897    15A    -11.168690  
      16A    -11.168496    17A    -11.163375    18A    -11.156364  
      19A    -11.154664    20A    -11.154209    21A     -1.400333  
      22A     -1.277066    23A     -1.252337    24A     -1.164810  
      25A     -1.136411    26A     -1.085749    27A     -1.036901  
      28A     -1.020023    29A     -1.004390    30A     -1.001760  
      31A     -0.980407    32A     -0.903001    33A     -0.829041  
      34A     -0.826041    35A     -0.818414    36A     -0.814196  
      37A     -0.802774    38A     -0.746241    39A     -0.718170  
      40A     -0.705531    41A     -0.691034    42A     -0.668425  
      43A     -0.656570    44A     -0.638126    45A     -0.627490  
      46A     -0.619040    47A     -0.610920    48A     -0.601930  
      49A     -0.598082    50A     -0.589900    51A     -0.586960  
      52A     -0.579808    53A     -0.568142    54A     -0.554892  
      55A     -0.528073    56A     -0.518776    57A     -0.500907  
      58A     -0.493403    59A     -0.489907    60A     -0.473527  
      61A     -0.468251    62A     -0.437707    63A     -0.422518  
      64A     -0.401263    65A     -0.349865    66A     -0.345885  
      67A     -0.336069    68A     -0.296713    69A     -0.290013  

    Virtual:                                                              

      70A      0.098476    71A      0.181095    72A      0.185000  
      73A      0.195371    74A      0.206515    75A      0.254979  
      76A      0.336483    77A      0.417795    78A      0.435886  
      79A      0.493465    80A      0.523880    81A      0.542705  
      82A      0.568135    83A      0.584820    84A      0.609520  
      85A      0.612470    86A      0.619914    87A      0.638956  
      88A      0.650231    89A      0.656962    90A      0.672598  
      91A      0.679531    92A      0.683120    93A      0.685616  
      94A      0.696147    95A      0.701517    96A      0.721653  
      97A      0.769763    98A      0.786943    99A      0.834178  
     100A      0.862655   101A      0.865983   102A      0.871957  
     103A      0.875338   104A      0.881397   105A      0.886613  
     106A      0.896398   107A      0.913033   108A      0.930695  
     109A      1.024277   110A      1.047972   111A      1.060706  
     112A      1.089488   113A      1.113328   114A      1.130411  

    Final Occupation by Irrep:
              A 
    DOCC [    69 ]

  @DF-RHF Final Energy:  -829.85973488812795

   => Energetics <=

    Nuclear Repulsion Energy =           1417.5474697156575985
    One-Electron Energy =               -3942.8564232139642627
    Two-Electron Energy =                1695.4492186101786046
    Total Energy =                       -829.8597348881278322

Computation Completed


Properties will be evaluated at   0.000000,   0.000000,  -0.000000 [a0]

Properties computed using the HF density matrix


 Multipole Moments:

 ------------------------------------------------------------------------------------
     Multipole            Electronic (a.u.)      Nuclear  (a.u.)        Total (a.u.)
 ------------------------------------------------------------------------------------

 L = 1.  Multiply by 2.5417464519 to convert [e a0] to [Debye]
 Dipole X            :         -0.1299057           -1.0916015           -1.2215072
 Dipole Y            :          6.1048844           -5.5316782            0.5732062
 Dipole Z            :         -0.8342355            1.0271054            0.1928699
 Magnitude           :                                                    1.3630275

 ------------------------------------------------------------------------------------
  Mulliken Charges: (a.u.)
   Center  Symbol    Alpha    Beta     Spin     Total
       1     H     0.37135  0.37135  0.00000  0.25731
       2     N     3.70313  3.70313  0.00000 -0.40627
       3     C     2.94102  2.94102  0.00000  0.11796
       4     C     3.07625  3.07625  0.00000 -0.15250
       5     C     2.93233  2.93233  0.00000  0.13534
       6     C     3.08007  3.08007  0.00000 -0.16015
       7     C     3.02291  3.02291  0.00000 -0.04582
       8     N     3.70763  3.70763  0.00000 -0.41526
       9     C     3.09267  3.09267  0.00000 -0.18535
      10     C     2.80165  2.80165  0.00000  0.39670
      11     C     3.00218  3.00218  0.00000 -0.00436
      12     C     3.00546  3.00546  0.00000 -0.01092
      13     C     3.06441  3.06441  0.00000 -0.12882
      14     C     3.06590  3.06590  0.00000 -0.13181
      15     C     3.06881  3.06881  0.00000 -0.13762
      16     C     3.06932  3.06932  0.00000 -0.13864
      17     C     3.07000  3.07000  0.00000 -0.14001
      18     C     3.06098  3.06098  0.00000 -0.12196
      19     C     3.06136  3.06136  0.00000 -0.12272
      20     C     3.08505  3.08505  0.00000 -0.17010
      21     H     0.43382  0.43382  0.00000  0.13237
      22     H     0.43399  0.43399  0.00000  0.13202
      23     H     0.35703  0.35703  0.00000  0.28594
      24     O     4.20342  4.20342  0.00000 -0.40683
      25     H     0.42897  0.42897  0.00000  0.14207
      26     H     0.43077  0.43077  0.00000  0.13846
      27     H     0.42939  0.42939  0.00000  0.14121
      28     H     0.42981  0.42981  0.00000  0.14039
      29     H     0.43017  0.43017  0.00000  0.13967
      30     H     0.43165  0.43165  0.00000  0.13670
      31     H     0.43089  0.43089  0.00000  0.13821
      32     H     0.42567  0.42567  0.00000  0.14867
      33     H     0.42002  0.42002  0.00000  0.15997
      34     H     0.43191  0.43191  0.00000  0.13618

   Total alpha = 69.00000, Total beta = 69.00000, Total charge =  0.00000



  Wiberg Bond Indices using Orthogonal Lowdin Orbitals:

  Irrep: 1 Size: 34 x 34

                 1                   2                   3                   4                   5

    1     0.00000000000000     0.93131083568699     0.00060192807829     0.00225299240061     0.00225759109636
    2     0.93131083568699     0.00000000000000     1.06112964501607     0.03284200122291     1.02494005121684
    3     0.00060192807829     1.06112964501607     0.00000000000000     1.38228306145816     0.00186784662138
    4     0.00225299240061     0.03284200122291     1.38228306145816     0.00000000000000     0.00611267625503
    5     0.00225759109636     1.02494005121684     0.00186784662138     0.00611267625503     0.00000000000000
    6     0.00665859076481     0.03614197656036     1.38781940419296     0.00516156222971     0.00149111435298
    7     0.01373287909027     0.01934860887170     0.01174608854234     0.00121258868446     1.75648625205360
    8     0.00006118718087     0.00032203406424     0.00007248072199     0.00001389848443     0.00402751095092
    9     0.00007952739319     0.00975649147876     0.00023914518439     0.00018138686252     0.00572399459488
   10     0.00043838210459     0.00396631158874     0.00041450970651     0.00018841535749     0.01496989844648
   11     0.00235773515810     0.00108676051443     0.00184535960283     0.00013707473965     0.07946092214495
   12     0.00127083456646     0.01660350676615     0.00338986444090     0.00077966975907     0.99206601180778
   13     0.00013557976949     0.00629954687101     0.00051868772864     0.00018267647183     0.00282118172163
   14     0.00024606917837     0.00722921694258     0.00044077385242     0.00020945818294     0.00303207911848
   15     0.00004100358793     0.00027719604130     0.00006639733434     0.00001857417216     0.00686753915610
   16     0.00003015250373     0.00026919788986     0.00005642213211     0.00001760965700     0.00666894445429
   17     0.00006914047197     0.00307879751540     0.00024699690036     0.00011926707679     0.00028411985221
   18     0.00038878296602     0.00768882845126     0.00372103304230     0.11211832389772     0.00017210300806
   19     0.00006409863402     0.00777247089709     0.00352934233587     1.45087157190161     0.00067983232196
   20     0.00051700361686     0.01756749743838     0.10070992533840     0.00473758400227     0.00023294561462
   21     0.00010298779947     0.00357463795245     0.00044668321416     0.00678079795262     0.00092400275631
   22     0.00066991663656     0.00333855583297     0.00042835227337     0.96907808213507     0.00013950942701
   23     0.00000118330215     0.00005689712245     0.00000338076343     0.00000226727684     0.00035601678369
   24     0.00268312828562     0.00090640656843     0.00238556115376     0.00020348698714     0.06672047730738
   25     0.00000619341541     0.00010489532091     0.00003921162344     0.00002022508868     0.00279394580583
   26     0.00000014670552     0.00014382198106     0.00003370119577     0.00001101585005     0.00276884832644
   27     0.00000001805754     0.00002269512655     0.00001160817355     0.00000181276470     0.00041436678623
   28     0.00000926938730     0.00004679007833     0.00000294881277     0.00000248849540     0.00043269366214
   29     0.00000000288739     0.00000100521257     0.00000039945171     0.00000029615454     0.00010442276147
   30     0.00015916380343     0.00039802574402     0.00655800143340     0.00030776268216     0.00000896137380
   31     0.00002514450552     0.00032515669444     0.00658300361208     0.00083701327465     0.00017085449092
   32     0.00000094868385     0.00002019128094     0.00000016077461     0.00000102314974     0.00074279037429
   33     0.00000075791316     0.00027784964741     0.00000623675034     0.00001030503351     0.00019945928329
   34     0.00000198549618     0.00015679261912     0.00016208712588     0.00671326633238     0.00001127041703

                 6                   7                   8                   9                  10

    1     0.00665859076481     0.01373287909027     0.00006118718087     0.00007952739319     0.00043838210459
    2     0.03614197656036     0.01934860887170     0.00032203406424     0.00975649147876     0.00396631158874
    3     1.38781940419296     0.01174608854234     0.00007248072199     0.00023914518439     0.00041450970651
    4     0.00516156222971     0.00121258868446     0.00001389848443     0.00018138686252     0.00018841535749
    5     0.00149111435298     1.75648625205360     0.00402751095092     0.00572399459488     0.01496989844648
    6     0.00000000000000     0.00159500795985     0.00000784592964     0.00013306530952     0.00007443609619
    7     0.00159500795985     0.00000000000000     0.01253603270323     1.08768683756648     0.99142073528580
    8     0.00000784592964     0.01253603270323     0.00000000000000     0.08650422889980     1.08967098059666
    9     0.00013306530952     1.08768683756648     0.08650422889980     0.00000000000000     0.01063952448592
   10     0.00007443609619     0.99142073528580     1.08967098059666     0.01063952448592     0.00000000000000
   11     0.00018516601200     0.00355243325764     1.11544860944072     1.77033127617457     0.00625236909146
   12     0.00071201858071     0.00314924206867     0.00066454538498     0.00297795495787     0.00972455025775
   13     0.00050172948472     0.01230265284730     0.00013500356541     0.00027099862002     0.00086724798902
   14     0.00012936316686     0.01264185423663     0.00011186347621     0.00023123812370     0.00082654325351
   15     0.00002805742176     0.00087651398892     0.00002580766132     0.00006181070135     0.00017820724134
   16     0.00001688018691     0.00095231629107     0.00002765804730     0.00007522973719     0.00014510305465
   17     0.00009121186689     0.00137099096667     0.00005762325992     0.00006993736743     0.00029432854637
   18     1.44591181384522     0.00002111932374     0.00000164124069     0.00000351008321     0.00001670925675
   19     0.10843055035068     0.00020236119429     0.00000296484503     0.00003286566034     0.00002163280554
   20     0.00485149723510     0.00059238570887     0.00000366431132     0.00006051544630     0.00005599356888
   21     0.96778018194015     0.00018765166920     0.00000023558769     0.00001719099184     0.00000666333155
   22     0.00657166248670     0.00004689376576     0.00000064649590     0.00000569101273     0.00000382171572
   23     0.00000149275748     0.00763571110808     0.94093637808792     0.00610570662132     0.00029441886271
   24     0.00027448668088     0.04738445161091     0.13162957866589     0.01276132756979     1.81400961385916
   25     0.00006846685649     0.00005321773026     0.00001025193255     0.00002897478876     0.00008311766032
   26     0.00000894069712     0.00003817744013     0.00000937097827     0.00002874862667     0.00007623197859
   27     0.00000461267058     0.00030741329911     0.00000363632874     0.00000799589322     0.00003507006152
   28     0.00000235296891     0.00029646194764     0.00000302360278     0.00000811905303     0.00002819583372
   29     0.00000225252969     0.00000097648782     0.00000016689518     0.00000096904733     0.00000174185778
   30     0.00081464623780     0.00005359539635     0.00000028793680     0.00000018732103     0.00000225637848
   31     0.00028078132154     0.00004990938977     0.00000052222636     0.00000448036324     0.00000426804650
   32     0.00000066116130     0.00044332200576     0.00607583741169     0.97441046530361     0.00545081140003
   33     0.00001076952143     0.00684669519675     0.00060159721489     0.00146384626407     0.00654051885204
   34     0.00656888208775     0.00000168036660     0.00000006701381     0.00000041898673     0.00000039513822

                11                  12                  13                  14                  15

    1     0.00235773515810     0.00127083456646     0.00013557976949     0.00024606917837     0.00004100358793
    2     0.00108676051443     0.01660350676615     0.00629954687101     0.00722921694258     0.00027719604130
    3     0.00184535960283     0.00338986444090     0.00051868772864     0.00044077385242     0.00006639733434
    4     0.00013707473965     0.00077966975907     0.00018267647183     0.00020945818294     0.00001857417216
    5     0.07946092214495     0.99206601180778     0.00282118172163     0.00303207911848     0.00686753915610
    6     0.00018516601200     0.00071201858071     0.00050172948472     0.00012936316686     0.00002805742176
    7     0.00355243325764     0.00314924206867     0.01230265284730     0.01264185423663     0.00087651398892
    8     1.11544860944072     0.00066454538498     0.00013500356541     0.00011186347621     0.00002580766132
    9     1.77033127617457     0.00297795495787     0.00027099862002     0.00023123812370     0.00006181070135
   10     0.00625236909146     0.00972455025775     0.00086724798902     0.00082654325351     0.00017820724134
   11     0.00000000000000     0.00018294350829     0.00138674543225     0.00144674761553     0.00016764875872
   12     0.00018294350829     0.00000000000000     1.41360205632824     1.41293049756844     0.00308536941435
   13     0.00138674543225     1.41360205632824     0.00000000000000     0.00332078336658     1.44190050578777
   14     0.00144674761553     1.41293049756844     0.00332078336658     0.00000000000000     0.11378659738108
   15     0.00016764875872     0.00308536941435     1.44190050578777     0.11378659738108     0.00000000000000
   16     0.00014692897648     0.00307762455992     0.11405677608292     1.44126998801741     0.00322755697008
   17     0.00011950030297     0.11230634108301     0.00314718585315     0.00317598909344     1.43845939063111
   18     0.00000392424534     0.00002605655939     0.00006230195376     0.00000906811779     0.00000702930344
   19     0.00003419322914     0.00012646450641     0.00005092974995     0.00003620809578     0.00000266462050
   20     0.00006021166363     0.00042943227650     0.00008579256866     0.00007573826199     0.00001234918782
   21     0.00000441202861     0.00002918297373     0.00003400007695     0.00001413199419     0.00000436821566
   22     0.00000942441473     0.00002218446928     0.00000753013923     0.00000877236872     0.00000053898705
   23     0.00013959306135     0.00027902063219     0.00005236951367     0.00004847480349     0.00000556081496
   24     0.01108204874299     0.00056266813553     0.00145632736899     0.00149137458287     0.00015153503588
   25     0.00000081690563     0.00049575941273     0.96831542481913     0.00693694565124     0.00075608921631
   26     0.00000186294731     0.00045122197287     0.00688612728243     0.96932861312220     0.00026074815394
   27     0.00005238459544     0.00694077476723     0.00071481930168     0.00024161056446     0.96779921050767
   28     0.00005076073872     0.00695483124055     0.00024074177213     0.00069821913426     0.00713756661274
   29     0.00000003952844     0.00022886626007     0.00720370434624     0.00720118070079     0.00070582339060
   30     0.00001116040920     0.00000071222469     0.00000329612992     0.00000001420072     0.00000032995567
   31     0.00001075512829     0.00000702426812     0.00000691686286     0.00000633775828     0.00000026423043
   32     0.00114845377711     0.00019490532101     0.00000168433948     0.00000768098005     0.00000153324665
   33     0.97094838500649     0.00003203085448     0.00000060256042     0.00000035399473     0.00000052543353
   34     0.00000036712270     0.00000141968925     0.00000232223101     0.00000080322696     0.00000002920473

                16                  17                  18                  19                  20

    1     0.00003015250373     0.00006914047197     0.00038878296602     0.00006409863402     0.00051700361686
    2     0.00026919788986     0.00307879751540     0.00768882845126     0.00777247089709     0.01756749743838
    3     0.00005642213211     0.00024699690036     0.00372103304230     0.00352934233587     0.10070992533840
    4     0.00001760965700     0.00011926707679     0.11211832389772     1.45087157190161     0.00473758400227
    5     0.00666894445429     0.00028411985221     0.00017210300806     0.00067983232196     0.00023294561462
    6     0.00001688018691     0.00009121186689     1.44591181384522     0.10843055035068     0.00485149723510
    7     0.00095231629107     0.00137099096667     0.00002111932374     0.00020236119429     0.00059238570887
    8     0.00002765804730     0.00005762325992     0.00000164124069     0.00000296484503     0.00000366431132
    9     0.00007522973719     0.00006993736743     0.00000351008321     0.00003286566034     0.00006051544630
   10     0.00014510305465     0.00029432854637     0.00001670925675     0.00002163280554     0.00005599356888
   11     0.00014692897648     0.00011950030297     0.00000392424534     0.00003419322914     0.00006021166363
   12     0.00307762455992     0.11230634108301     0.00002605655939     0.00012646450641     0.00042943227650
   13     0.11405677608292     0.00314718585315     0.00006230195376     0.00005092974995     0.00008579256866
   14     1.44126998801741     0.00317598909344     0.00000906811779     0.00003620809578     0.00007573826199
   15     0.00322755697008     1.43845939063111     0.00000702930344     0.00000266462050     0.00001234918782
   16     0.00000000000000     1.43908627409561     0.00000051449260     0.00000509089406     0.00000930616243
   17     1.43908627409561     0.00000000000000     0.00000621893498     0.00002210532003     0.00005444587909
   18     0.00000051449260     0.00000621893498     0.00000000000000     0.00349400037082     1.43412630267618
   19     0.00000509089406     0.00002210532003     0.00349400037082     0.00000000000000     1.43262810898602
   20     0.00000930616243     0.00005444587909     1.43412630267618     1.43262810898602     0.00000000000000
   21     0.00000063972914     0.00000726715355     0.00090817623458     0.00036912755204     0.00679006260452
   22     0.00000038374731     0.00000459602189     0.00039254217588     0.00088789741964     0.00677566515658
   23     0.00000426582233     0.00002854643883     0.00000032418153     0.00000028821798     0.00000102967914
   24     0.00015555539752     0.00011348397888     0.00005294453898     0.00004527954316     0.00008434744591
   25     0.00025779186890     0.00704837787396     0.00000627103636     0.00000214485552     0.00000409188742
   26     0.00073473480456     0.00706860136742     0.00000012356642     0.00000172127872     0.00000537414672
   27     0.00713266035644     0.00071753472987     0.00000076816514     0.00000075146551     0.00000089902324
   28     0.96786978952111     0.00072576894565     0.00000002508962     0.00000040701551     0.00000148536909
   29     0.00069879093591     0.96816897080292     0.00000045117860     0.00000005081878     0.00000038086087
   30     0.00000003611926     0.00000010390405     0.96935049444180     0.00714709664897     0.00063762544638
   31     0.00000028899440     0.00000404725162     0.00736021058114     0.96880547197761     0.00068581742244
   32     0.00000350016836     0.00000074480405     0.00000010208781     0.00000008094820     0.00000040191549
   33     0.00000049604299     0.00000040021318     0.00000006214283     0.00000128341478     0.00000577868786
   34     0.00000000602056     0.00000059300738     0.00099736976606     0.00106052913579     0.97099677572018

                21                  22                  23                  24                  25

    1     0.00010298779947     0.00066991663656     0.00000118330215     0.00268312828562     0.00000619341541
    2     0.00357463795245     0.00333855583297     0.00005689712245     0.00090640656843     0.00010489532091
    3     0.00044668321416     0.00042835227337     0.00000338076343     0.00238556115376     0.00003921162344
    4     0.00678079795262     0.96907808213507     0.00000226727684     0.00020348698714     0.00002022508868
    5     0.00092400275631     0.00013950942701     0.00035601678369     0.06672047730738     0.00279394580583
    6     0.96778018194015     0.00657166248670     0.00000149275748     0.00027448668088     0.00006846685649
    7     0.00018765166920     0.00004689376576     0.00763571110808     0.04738445161091     0.00005321773026
    8     0.00000023558769     0.00000064649590     0.94093637808792     0.13162957866589     0.00001025193255
    9     0.00001719099184     0.00000569101273     0.00610570662132     0.01276132756979     0.00002897478876
   10     0.00000666333155     0.00000382171572     0.00029441886271     1.81400961385916     0.00008311766032
   11     0.00000441202861     0.00000942441473     0.00013959306135     0.01108204874299     0.00000081690563
   12     0.00002918297373     0.00002218446928     0.00027902063219     0.00056266813553     0.00049575941273
   13     0.00003400007695     0.00000753013923     0.00005236951367     0.00145632736899     0.96831542481913
   14     0.00001413199419     0.00000877236872     0.00004847480349     0.00149137458287     0.00693694565124
   15     0.00000436821566     0.00000053898705     0.00000556081496     0.00015153503588     0.00075608921631
   16     0.00000063972914     0.00000038374731     0.00000426582233     0.00015555539752     0.00025779186890
   17     0.00000726715355     0.00000459602189     0.00002854643883     0.00011348397888     0.00704837787396
   18     0.00090817623458     0.00039254217588     0.00000032418153     0.00005294453898     0.00000627103636
   19     0.00036912755204     0.00088789741964     0.00000028821798     0.00004527954316     0.00000214485552
   20     0.00679006260452     0.00677566515658     0.00000102967914     0.00008434744591     0.00000409188742
   21     0.00000000000000     0.00075231524062     0.00000021184379     0.00002708058649     0.00034080287683
   22     0.00075231524062     0.00000000000000     0.00000007053032     0.00001189372092     0.00000002521532
   23     0.00000021184379     0.00000007053032     0.00000000000000     0.00134440594272     0.00000312904732
   24     0.00002708058649     0.00001189372092     0.00134440594272     0.00000000000000     0.00000729858354
   25     0.00034080287683     0.00000002521532     0.00000312904732     0.00000729858354     0.00000000000000
   26     0.00000051269225     0.00000025880082     0.00000276296414     0.00000582849686     0.00051725813504
   27     0.00000014180571     0.00000003440645     0.00000091906034     0.00005355385793     0.00348488147080
   28     0.00000031528338     0.00000007480831     0.00000068363890     0.00005252392994     0.00010570255722
   29     0.00000001314304     0.00000001073858     0.00000006870292     0.00000003990407     0.00044511483820
   30     0.00354067249869     0.00006068590786     0.00000000028089     0.00001191096564     0.00000005942025
   31     0.00007130353012     0.00356203969506     0.00000005056263     0.00000949015106     0.00000032586965
   32     0.00000003493058     0.00000000055008     0.00044866920614     0.00100061274992     0.00000268192480
   33     0.00000013178384     0.00000009773217     0.00119800532232     0.00101643523581     0.00000028351211
   34     0.00031144637421     0.00032114615851     0.00000000975632     0.00000014536513     0.00000014712872

                26                  27                  28                  29                  30

    1     0.00000014670552     0.00000001805754     0.00000926938730     0.00000000288739     0.00015916380343
    2     0.00014382198106     0.00002269512655     0.00004679007833     0.00000100521257     0.00039802574402
    3     0.00003370119577     0.00001160817355     0.00000294881277     0.00000039945171     0.00655800143340
    4     0.00001101585005     0.00000181276470     0.00000248849540     0.00000029615454     0.00030776268216
    5     0.00276884832644     0.00041436678623     0.00043269366214     0.00010442276147     0.00000896137380
    6     0.00000894069712     0.00000461267058     0.00000235296891     0.00000225252969     0.00081464623780
    7     0.00003817744013     0.00030741329911     0.00029646194764     0.00000097648782     0.00005359539635
    8     0.00000937097827     0.00000363632874     0.00000302360278     0.00000016689518     0.00000028793680
    9     0.00002874862667     0.00000799589322     0.00000811905303     0.00000096904733     0.00000018732103
   10     0.00007623197859     0.00003507006152     0.00002819583372     0.00000174185778     0.00000225637848
   11     0.00000186294731     0.00005238459544     0.00005076073872     0.00000003952844     0.00001116040920
   12     0.00045122197287     0.00694077476723     0.00695483124055     0.00022886626007     0.00000071222469
   13     0.00688612728243     0.00071481930168     0.00024074177213     0.00720370434624     0.00000329612992
   14     0.96932861312220     0.00024161056446     0.00069821913426     0.00720118070079     0.00000001420072
   15     0.00026074815394     0.96779921050767     0.00713756661274     0.00070582339060     0.00000032995567
   16     0.00073473480456     0.00713266035644     0.96786978952111     0.00069879093591     0.00000003611926
   17     0.00706860136742     0.00071753472987     0.00072576894565     0.96816897080292     0.00000010390405
   18     0.00000012356642     0.00000076816514     0.00000002508962     0.00000045117860     0.96935049444180
   19     0.00000172127872     0.00000075146551     0.00000040701551     0.00000005081878     0.00714709664897
   20     0.00000537414672     0.00000089902324     0.00000148536909     0.00000038086087     0.00063762544638
   21     0.00000051269225     0.00000014180571     0.00000031528338     0.00000001314304     0.00354067249869
   22     0.00000025880082     0.00000003440645     0.00000007480831     0.00000001073858     0.00006068590786
   23     0.00000276296414     0.00000091906034     0.00000068363890     0.00000006870292     0.00000000028089
   24     0.00000582849686     0.00005355385793     0.00005252392994     0.00000003990407     0.00001191096564
   25     0.00051725813504     0.00348488147080     0.00010570255722     0.00044511483820     0.00000005942025
   26     0.00000000000000     0.00010437423682     0.00348164143437     0.00044997497522     0.00000000011241
   27     0.00010437423682     0.00000000000000     0.00045695733518     0.00351313313267     0.00000000721893
   28     0.00348164143437     0.00045695733518     0.00000000000000     0.00351708262133     0.00000000004361
   29     0.00044997497522     0.00351313313267     0.00351708262133     0.00000000000000     0.00000002089847
   30     0.00000000011241     0.00000000721893     0.00000000004361     0.00000002089847     0.00000000000000
   31     0.00000018688656     0.00000006091991     0.00000002295925     0.00000000098098     0.00062282191984
   32     0.00000387255186     0.00000048272422     0.00000057966473     0.00000000543707     0.00000000654160
   33     0.00000020048357     0.00000007083639     0.00000006708488     0.00000000744839     0.00000001321333
   34     0.00000001401898     0.00000005393129     0.00000000005979     0.00000001255248     0.00295505494354

                31                  32                  33                  34

    1     0.00002514450552     0.00000094868385     0.00000075791316     0.00000198549618
    2     0.00032515669444     0.00002019128094     0.00027784964741     0.00015679261912
    3     0.00658300361208     0.00000016077461     0.00000623675034     0.00016208712588
    4     0.00083701327465     0.00000102314974     0.00001030503351     0.00671326633238
    5     0.00017085449092     0.00074279037429     0.00019945928329     0.00001127041703
    6     0.00028078132154     0.00000066116130     0.00001076952143     0.00656888208775
    7     0.00004990938977     0.00044332200576     0.00684669519675     0.00000168036660
    8     0.00000052222636     0.00607583741169     0.00060159721489     0.00000006701381
    9     0.00000448036324     0.97441046530361     0.00146384626407     0.00000041898673
   10     0.00000426804650     0.00545081140003     0.00654051885204     0.00000039513822
   11     0.00001075512829     0.00114845377711     0.97094838500649     0.00000036712270
   12     0.00000702426812     0.00019490532101     0.00003203085448     0.00000141968925
   13     0.00000691686286     0.00000168433948     0.00000060256042     0.00000232223101
   14     0.00000633775828     0.00000768098005     0.00000035399473     0.00000080322696
   15     0.00000026423043     0.00000153324665     0.00000052543353     0.00000002920473
   16     0.00000028899440     0.00000350016836     0.00000049604299     0.00000000602056
   17     0.00000404725162     0.00000074480405     0.00000040021318     0.00000059300738
   18     0.00736021058114     0.00000010208781     0.00000006214283     0.00099736976606
   19     0.96880547197761     0.00000008094820     0.00000128341478     0.00106052913579
   20     0.00068581742244     0.00000040191549     0.00000577868786     0.97099677572018
   21     0.00007130353012     0.00000003493058     0.00000013178384     0.00031144637421
   22     0.00356203969506     0.00000000055008     0.00000009773217     0.00032114615851
   23     0.00000005056263     0.00044866920614     0.00119800532232     0.00000000975632
   24     0.00000949015106     0.00100061274992     0.00101643523581     0.00000014536513
   25     0.00000032586965     0.00000268192480     0.00000028351211     0.00000014712872
   26     0.00000018688656     0.00000387255186     0.00000020048357     0.00000001401898
   27     0.00000006091991     0.00000048272422     0.00000007083639     0.00000005393129
   28     0.00000002295925     0.00000057966473     0.00000006708488     0.00000000005979
   29     0.00000000098098     0.00000000543707     0.00000000744839     0.00000001255248
   30     0.00062282191984     0.00000000654160     0.00000001321333     0.00295505494354
   31     0.00000000000000     0.00000000507654     0.00000011841629     0.00301066842416
   32     0.00000000507654     0.00000000000000     0.00143888931010     0.00000000043119
   33     0.00000011841629     0.00143888931010     0.00000000000000     0.00000001596478
   34     0.00301066842416     0.00000000043119     0.00000001596478     0.00000000000000



  Atomic Valences: 

 #  #
 Irrep: 1
      1:    0.966175161128027
      2:    3.197004696215713
      3:    3.977360248588492
      4:    3.983410235993848
      5:    3.985950234344374
      6:    3.982331481464656
      7:    3.994773058055694
      8:    3.388967181143167
      9:    3.969903660490782
     10:    3.956703003710000
     11:    3.967667014275683
     12:    3.993305586616620
     13:    3.986574248936497
     14:    3.987134590132717
     15:    3.985914342367194
     16:    3.985998513734413
     17:    3.985948901510631
     18:    3.986849146956032
     19:    3.986329587011347
     20:    3.982800435309159
     21:    0.993027384347971
     22:    0.993101320187151
     23:    0.958951912710261
     24:    2.097695302949696
     25:    0.991939924329649
     26:    0.992425018211101
     27:    0.992025313575028
     28:    0.992127590702287
     29:    0.992245977482121
     30:    0.992645011752985
     31:    0.992445363792231
     32:    0.991401140232844
     33:    0.990602290372187
     34:    0.993275775817424


*** tstop() called on node165.bme.utexas.edu at Sat Nov 18 08:00:42 2023
Module time:
	user time   =      74.80 seconds =       1.25 minutes
	system time =       2.61 seconds =       0.04 minutes
	total time  =          2 seconds =       0.03 minutes
Total time:
	user time   =      74.80 seconds =       1.25 minutes
	system time =       2.61 seconds =       0.04 minutes
	total time  =          2 seconds =       0.03 minutes
  ==> One Electron Grid Properties (v2.0) <==

  ==> CubicScalarGrid <==

    Filepath     = .
    Total Points =          1502336
    XYZ Blocking =               10
    X Points     =              128
    Y Points     =              121
    Z Points     =               97
    X Spacing    =        2.000E-01
    Y Spacing    =        2.000E-01
    Z Spacing    =        2.000E-01
    X Minimum    =       -1.141E+01
    Y Minimum    =       -1.160E+01
    Z Minimum    =       -9.414E+00
    X Maximum    =        1.399E+01
    Y Maximum    =        1.240E+01
    Z Maximum    =        9.786E+00

  Basis Set: MINIX
    Blend: MINIX
    Number of shells: 74
    Number of basis functions: 114
    Number of Cartesian functions: 114
    Spherical Harmonics?: true
    Max angular momentum: 1

*********************************************************************************************************************
When computing potential integrals with different bra and ket basis, the atom definition is taken from the bra basis.
*********************************************************************************************************************
*********************************************************************************************************************
When computing potential integrals with different bra and ket basis, the atom definition is taken from the bra basis.
*********************************************************************************************************************
*********************************************************************************************************************
When computing potential integrals with different bra and ket basis, the atom definition is taken from the bra basis.
*********************************************************************************************************************
*********************************************************************************************************************
When computing potential integrals with different bra and ket basis, the atom definition is taken from the bra basis.
*********************************************************************************************************************
*********************************************************************************************************************
When computing potential integrals with different bra and ket basis, the atom definition is taken from the bra basis.
*********************************************************************************************************************
*********************************************************************************************************************
When computing potential integrals with different bra and ket basis, the atom definition is taken from the bra basis.
*********************************************************************************************************************
*********************************************************************************************************************
When computing potential integrals with different bra and ket basis, the atom definition is taken from the bra basis.
*********************************************************************************************************************
*********************************************************************************************************************
When computing potential integrals with different bra and ket basis, the atom definition is taken from the bra basis.
*********************************************************************************************************************
*********************************************************************************************************************
When computing potential integrals with different bra and ket basis, the atom definition is taken from the bra basis.
*********************************************************************************************************************
*********************************************************************************************************************
When computing potential integrals with different bra and ket basis, the atom definition is taken from the bra basis.
*********************************************************************************************************************
*********************************************************************************************************************
When computing potential integrals with different bra and ket basis, the atom definition is taken from the bra basis.
*********************************************************************************************************************
*********************************************************************************************************************
When computing potential integrals with different bra and ket basis, the atom definition is taken from the bra basis.
*********************************************************************************************************************
*********************************************************************************************************************
When computing potential integrals with different bra and ket basis, the atom definition is taken from the bra basis.
*********************************************************************************************************************
*********************************************************************************************************************
When computing potential integrals with different bra and ket basis, the atom definition is taken from the bra basis.
*********************************************************************************************************************
*********************************************************************************************************************
When computing potential integrals with different bra and ket basis, the atom definition is taken from the bra basis.
*********************************************************************************************************************
*********************************************************************************************************************
When computing potential integrals with different bra and ket basis, the atom definition is taken from the bra basis.
*********************************************************************************************************************
*********************************************************************************************************************
When computing potential integrals with different bra and ket basis, the atom definition is taken from the bra basis.
*********************************************************************************************************************
*********************************************************************************************************************
When computing potential integrals with different bra and ket basis, the atom definition is taken from the bra basis.
*********************************************************************************************************************
*********************************************************************************************************************
When computing potential integrals with different bra and ket basis, the atom definition is taken from the bra basis.
*********************************************************************************************************************
*********************************************************************************************************************
When computing potential integrals with different bra and ket basis, the atom definition is taken from the bra basis.
*********************************************************************************************************************
*********************************************************************************************************************
When computing potential integrals with different bra and ket basis, the atom definition is taken from the bra basis.
*********************************************************************************************************************
*********************************************************************************************************************
When computing potential integrals with different bra and ket basis, the atom definition is taken from the bra basis.
*********************************************************************************************************************
*********************************************************************************************************************
When computing potential integrals with different bra and ket basis, the atom definition is taken from the bra basis.
*********************************************************************************************************************
*********************************************************************************************************************
When computing potential integrals with different bra and ket basis, the atom definition is taken from the bra basis.
*********************************************************************************************************************
*********************************************************************************************************************
When computing potential integrals with different bra and ket basis, the atom definition is taken from the bra basis.
*********************************************************************************************************************
*********************************************************************************************************************
When computing potential integrals with different bra and ket basis, the atom definition is taken from the bra basis.
*********************************************************************************************************************
*********************************************************************************************************************
When computing potential integrals with different bra and ket basis, the atom definition is taken from the bra basis.
*********************************************************************************************************************
*********************************************************************************************************************
When computing potential integrals with different bra and ket basis, the atom definition is taken from the bra basis.
*********************************************************************************************************************
*********************************************************************************************************************
When computing potential integrals with different bra and ket basis, the atom definition is taken from the bra basis.
*********************************************************************************************************************
*********************************************************************************************************************
When computing potential integrals with different bra and ket basis, the atom definition is taken from the bra basis.
*********************************************************************************************************************
*********************************************************************************************************************
When computing potential integrals with different bra and ket basis, the atom definition is taken from the bra basis.
*********************************************************************************************************************
*********************************************************************************************************************
When computing potential integrals with different bra and ket basis, the atom definition is taken from the bra basis.
*********************************************************************************************************************
*********************************************************************************************************************
When computing potential integrals with different bra and ket basis, the atom definition is taken from the bra basis.
*********************************************************************************************************************
*********************************************************************************************************************
When computing potential integrals with different bra and ket basis, the atom definition is taken from the bra basis.
*********************************************************************************************************************
*********************************************************************************************************************
When computing potential integrals with different bra and ket basis, the atom definition is taken from the bra basis.
*********************************************************************************************************************
*********************************************************************************************************************
When computing potential integrals with different bra and ket basis, the atom definition is taken from the bra basis.
*********************************************************************************************************************
*********************************************************************************************************************
When computing potential integrals with different bra and ket basis, the atom definition is taken from the bra basis.
*********************************************************************************************************************
*********************************************************************************************************************
When computing potential integrals with different bra and ket basis, the atom definition is taken from the bra basis.
*********************************************************************************************************************
*********************************************************************************************************************
When computing potential integrals with different bra and ket basis, the atom definition is taken from the bra basis.
*********************************************************************************************************************
*********************************************************************************************************************
When computing potential integrals with different bra and ket basis, the atom definition is taken from the bra basis.
*********************************************************************************************************************
*********************************************************************************************************************
When computing potential integrals with different bra and ket basis, the atom definition is taken from the bra basis.
*********************************************************************************************************************
*********************************************************************************************************************
When computing potential integrals with different bra and ket basis, the atom definition is taken from the bra basis.
*********************************************************************************************************************
*********************************************************************************************************************
When computing potential integrals with different bra and ket basis, the atom definition is taken from the bra basis.
*********************************************************************************************************************
*********************************************************************************************************************
When computing potential integrals with different bra and ket basis, the atom definition is taken from the bra basis.
*********************************************************************************************************************
*********************************************************************************************************************
When computing potential integrals with different bra and ket basis, the atom definition is taken from the bra basis.
*********************************************************************************************************************
*********************************************************************************************************************
When computing potential integrals with different bra and ket basis, the atom definition is taken from the bra basis.
*********************************************************************************************************************
*********************************************************************************************************************
When computing potential integrals with different bra and ket basis, the atom definition is taken from the bra basis.
*********************************************************************************************************************
*********************************************************************************************************************
When computing potential integrals with different bra and ket basis, the atom definition is taken from the bra basis.
*********************************************************************************************************************
*********************************************************************************************************************
When computing potential integrals with different bra and ket basis, the atom definition is taken from the bra basis.
*********************************************************************************************************************
*********************************************************************************************************************
When computing potential integrals with different bra and ket basis, the atom definition is taken from the bra basis.
*********************************************************************************************************************
*********************************************************************************************************************
When computing potential integrals with different bra and ket basis, the atom definition is taken from the bra basis.
*********************************************************************************************************************
FCHKWriter: !WARNING! method 'HF'' renamed to label 'HF'.
FCHKWriter: Writing farH_in17-esp_frag.fchk with label ' SCF Density'.

    Psi4 stopped on: Saturday, 18 November 2023 08:00AM
    Psi4 wall time for execution: 0:00:14.02

*** Psi4 exiting successfully. Buy a developer a beer!
