
    -----------------------------------------------------------------------
          Psi4: An Open-Source Ab Initio Electronic Structure Package
                               Psi4 1.6 release

                         Git: Rev {HEAD} 77475b5 


    D. G. A. Smith, L. A. Burns, A. C. Simmonett, R. M. Parrish,
    M. C. Schieber, R. Galvelis, P. Kraus, H. Kruse, R. Di Remigio,
    A. Alenaizan, A. M. James, S. Lehtola, J. P. Misiewicz, M. Scheurer,
    R. A. Shaw, J. B. Schriber, Y. Xie, Z. L. Glick, D. A. Sirianni,
    J. S. O'Brien, J. M. Waldrop, A. Kumar, E. G. Hohenstein,
    B. P. Pritchard, B. R. Brooks, H. F. Schaefer III, A. Yu. Sokolov,
    K. Patkowski, A. E. DePrince III, U. Bozkaya, R. A. King,
    F. A. Evangelista, J. M. Turney, T. D. Crawford, C. D. Sherrill,
    J. Chem. Phys. 152(18) 184108 (2020). https://doi.org/10.1063/5.0006002

                            Additional Code Authors
    E. T. Seidl, C. L. Janssen, E. F. Valeev, M. L. Leininger,
    J. F. Gonthier, R. M. Richard, H. R. McAlexander, M. Saitow, X. Wang,
    P. Verma, M. H. Lechner, and A. Jiang

             Previous Authors, Complete List of Code Contributors,
                       and Citations for Specific Modules
    https://github.com/psi4/psi4/blob/master/codemeta.json
    https://github.com/psi4/psi4/graphs/contributors
    http://psicode.org/psi4manual/master/introduction.html#citing-psifour

    -----------------------------------------------------------------------


    Psi4 started on: Saturday, 18 November 2023 08:03AM

    Process ID: 1108510
    Host:       node165.bme.utexas.edu
    PSIDATADIR: /home/liuchw/anaconda3/envs/poltype2022/share/psi4
    Memory:     500.0 MiB
    Threads:    1
    
  ==> Input File <==

--------------------------------------------------------------------------
molecule { 
0 1
 C    1.746200   -1.050800    0.182500
 N    2.967700   -1.225900    0.938300
 C    4.207900   -0.750700    0.463500
 C    5.417000   -0.912000    1.425500
 C    2.836100   -1.830700    2.266900
 O    4.378600   -0.195400   -0.626700
 C    0.496400   -1.040200    0.823600
 C   -0.690300   -0.693300   -1.276900
 C   -0.699000   -0.876100    0.106100
 C    0.545700   -0.746700   -1.926200
 C    1.741100   -0.912600   -1.209900
 H    3.761900   -2.313800    2.585000
 H    2.072800   -2.615500    2.262000
 H    2.582700   -1.048300    2.988800
 N    6.609300   -0.198000    0.919400
 H    5.638500   -1.984900    1.468800
 H    5.161100   -0.544900    2.425100
 H    0.405700   -1.131600    1.901500
 H   -1.635600   -0.881500    0.655300
 H    0.596700   -0.665300   -3.009300
 H    2.653700   -0.969700   -1.794500
 H    6.757300   -0.466700   -0.053400
 H   -1.621100   -0.513900   -1.835000
 H    6.457400    0.818900    0.980000
}
set {
  geom_maxiter 400
  g_convergence GAU_LOOSE
  dynamic_level 1
}
geometric_keywords = {
 'coordsys' : 'tric',
 'convergence_cmax' : 1e0,
 'convergence_set' : 'GAU_LOOSE',
 'convergence_energy' : 1e-4,
}
memory 20GB
set_num_threads(5)
psi4_io.set_default_path("/scratch/liuchw/Psi4-3_25_Index_0_GrowFragment_3-farH_in17")
basis {
assign 6-31G*
}
opt_finished = False
if not opt_finished:
    try:
        ener, opt_hist = optimize('mp2',engine='geometric',optimizer_keywords=geometric_keywords, return_history=True)
        opt_finished = len(opt_hist['energy']) < 400
    except Exception as e:
        core.print_out('Exception: %s'%(e))
if not opt_finished:
    try:
        optimize('mp2')
    except:
        set opt_coordinates both
        optimize('mp2')
    opt_finished = True
clean()
assert opt_finished

--------------------------------------------------------------------------

  Memory set to  18.626 GiB by Python driver.
  Threads set to 5 by Python driver.


  ==> GeomeTRIC Optimizer <==                                                                   ~

Scratch directory: /scratch/liuchw/Psi4-3_25_Index_0_GrowFragment_3-farH_in17/
gradient() will perform analytic gradient computation.
    SCF Algorithm Type (re)set to DF.

*** tstart() called on node165.bme.utexas.edu
*** at Sat Nov 18 08:03:46 2023

   => Loading Basis Set <=

    Name: ANONYMOUS065EE44E
    Role: ORBITAL
    Keyword: BASIS
    atoms 1, 3-5, 7-11 entry C          line   111 file /home/liuchw/anaconda3/envs/poltype2022/share/psi4/basis/6-31gs.gbs 
    atoms 2, 15        entry N          line   128 file /home/liuchw/anaconda3/envs/poltype2022/share/psi4/basis/6-31gs.gbs 
    atoms 6            entry O          line   145 file /home/liuchw/anaconda3/envs/poltype2022/share/psi4/basis/6-31gs.gbs 
    atoms 12-14, 16-24 entry H          line    44 file /home/liuchw/anaconda3/envs/poltype2022/share/psi4/basis/6-31gs.gbs 


         ---------------------------------------------------------
                                   SCF
               by Justin Turney, Rob Parrish, Andy Simmonett
                          and Daniel G. A. Smith
                              RHF Reference
                        5 Threads,  19073 MiB Core
         ---------------------------------------------------------

  ==> Geometry <==

    Molecular point group: c1
    Full point group: C1

    Geometry (in Angstrom), charge = 0, multiplicity = 1:

       Center              X                  Y                   Z               Mass       
    ------------   -----------------  -----------------  -----------------  -----------------
         C           -0.840375294636    -0.190108341442    -0.030133533161    12.000000000000
         N            0.381124705364    -0.365208341442     0.725666466839    14.003074004430
         C            1.621324705364     0.109991658558     0.250866466839    12.000000000000
         C            2.830424705364    -0.051308341442     1.212866466839    12.000000000000
         C            0.249524705364    -0.970008341442     2.054266466839    12.000000000000
         O            1.792024705364     0.665291658558    -0.839333533161    15.994914619570
         C           -2.090175294636    -0.179508341442     0.610966466839    12.000000000000
         C           -3.276875294636     0.167391658558    -1.489533533161    12.000000000000
         C           -3.285575294636    -0.015408341442    -0.106533533161    12.000000000000
         C           -2.040875294636     0.113991658558    -2.138833533161    12.000000000000
         C           -0.845475294636    -0.051908341442    -1.422533533161    12.000000000000
         H            1.175324705364    -1.453108341442     2.372366466839     1.007825032230
         H           -0.513775294636    -1.754808341442     2.049366466839     1.007825032230
         H           -0.003875294636    -0.187608341442     2.776166466839     1.007825032230
         N            4.022724705364     0.662691658558     0.706766466839    14.003074004430
         H            3.051924705364    -1.124208341442     1.256166466839     1.007825032230
         H            2.574524705364     0.315791658558     2.212466466839     1.007825032230
         H           -2.180875294636    -0.270908341442     1.688866466839     1.007825032230
         H           -4.222175294636    -0.020808341442     0.442666466839     1.007825032230
         H           -1.989875294636     0.195391658558    -3.221933533161     1.007825032230
         H            0.067124705364    -0.109008341442    -2.007133533161     1.007825032230
         H            4.170724705364     0.393991658558    -0.266033533161     1.007825032230
         H           -4.207675294636     0.346791658558    -2.047633533161     1.007825032230
         H            3.870824705364     1.679591658558     0.767366466839     1.007825032230

  Running in c1 symmetry.

  Rotational constants: A =      0.07497  B =      0.01752  C =      0.01460 [cm^-1]
  Rotational constants: A =   2247.44098  B =    525.33008  C =    437.64247 [MHz]
  Nuclear repulsion =  675.715235629673998

  Charge       = 0
  Multiplicity = 1
  Electrons    = 88
  Nalpha       = 44
  Nbeta        = 44

  ==> Algorithm <==

  SCF Algorithm Type is DF.
  DIIS enabled.
  MOM disabled.
  Fractional occupation disabled.
  Guess Type is SAD.
  Energy threshold   = 1.00e-10
  Density threshold  = 1.00e-10
  Integral threshold = 1.00e-12

  ==> Primary Basis <==

  Basis Set: ANONYMOUS065EE44E
    Blend: 6-31G*
    Number of shells: 96
    Number of basis functions: 204
    Number of Cartesian functions: 204
    Spherical Harmonics?: false
    Max angular momentum: 2

   => Loading Basis Set <=

    Name: (ANONYMOUS065EE44E AUX)
    Role: JKFIT
    Keyword: DF_BASIS_SCF
    atoms 1, 3-5, 7-11 entry C          line   121 file /home/liuchw/anaconda3/envs/poltype2022/share/psi4/basis/cc-pvdz-jkfit.gbs 
    atoms 2, 15        entry N          line   171 file /home/liuchw/anaconda3/envs/poltype2022/share/psi4/basis/cc-pvdz-jkfit.gbs 
    atoms 6            entry O          line   221 file /home/liuchw/anaconda3/envs/poltype2022/share/psi4/basis/cc-pvdz-jkfit.gbs 
    atoms 12-14, 16-24 entry H          line    51 file /home/liuchw/anaconda3/envs/poltype2022/share/psi4/basis/cc-pvdz-jkfit.gbs 

  ==> Integral Setup <==

  DFHelper Memory: AOs need 0.367 GiB; user supplied 13.970 GiB. Using in-core AOs.

  ==> MemDFJK: Density-Fitted J/K Matrices <==

    J tasked:                   Yes
    K tasked:                   Yes
    wK tasked:                   No
    OpenMP threads:               5
    Memory [MiB]:             14305
    Algorithm:                 Core
    Schwarz Cutoff:           1E-12
    Mask sparsity (%):      12.7403
    Fitting Condition:        1E-10

   => Auxiliary Basis Set <=

  Basis Set: (ANONYMOUS065EE44E AUX)
    Blend: CC-PVDZ-JKFIT
    Number of shells: 396
    Number of basis functions: 1272
    Number of Cartesian functions: 1272
    Spherical Harmonics?: false
    Max angular momentum: 3

  Minimum eigenvalue in the overlap matrix is 4.5833730476E-04.
  Reciprocal condition number of the overlap matrix is 5.9673276582E-05.
    Using symmetric orthogonalization.

  ==> Pre-Iterations <==

  SCF Guess: Superposition of Atomic Densities via on-the-fly atomic UHF (no occupation information).

   -------------------------
    Irrep   Nso     Nmo    
   -------------------------
     A        204     204 
   -------------------------
    Total     204     204
   -------------------------

  ==> Iterations <==

                           Total Energy        Delta E     RMS |[F,P]|

   @DF-RHF iter SAD:  -530.04115500272451   -5.30041e+02   0.00000e+00 
   @DF-RHF iter   1:  -531.27490110747453   -1.23375e+00   3.38131e-03 DIIS/ADIIS
   @DF-RHF iter   2:  -531.46154170011232   -1.86641e-01   2.18061e-03 DIIS/ADIIS
   @DF-RHF iter   3:  -531.53653543256576   -7.49937e-02   4.77861e-04 DIIS/ADIIS
   @DF-RHF iter   4:  -531.54186813214721   -5.33270e-03   1.69187e-04 DIIS/ADIIS
   @DF-RHF iter   5:  -531.54256264747721   -6.94515e-04   3.14602e-05 DIIS
   @DF-RHF iter   6:  -531.54261272894553   -5.00815e-05   1.60113e-05 DIIS
   @DF-RHF iter   7:  -531.54262450097860   -1.17720e-05   6.20407e-06 DIIS
   @DF-RHF iter   8:  -531.54262680808438   -2.30711e-06   2.57548e-06 DIIS
   @DF-RHF iter   9:  -531.54262716685344   -3.58769e-07   9.48765e-07 DIIS
   @DF-RHF iter  10:  -531.54262720971758   -4.28641e-08   2.52433e-07 DIIS
   @DF-RHF iter  11:  -531.54262721337238   -3.65480e-09   1.00545e-07 DIIS
   @DF-RHF iter  12:  -531.54262721387158   -4.99199e-10   3.43240e-08 DIIS
   @DF-RHF iter  13:  -531.54262721393673   -6.51426e-11   1.28753e-08 DIIS
   @DF-RHF iter  14:  -531.54262721394855   -1.18234e-11   5.89736e-09 DIIS
   @DF-RHF iter  15:  -531.54262721395173   -3.18323e-12   2.57962e-09 DIIS
   @DF-RHF iter  16:  -531.54262721395253   -7.95808e-13   1.17212e-09 DIIS
   @DF-RHF iter  17:  -531.54262721395253    0.00000e+00   4.39810e-10 DIIS
   @DF-RHF iter  18:  -531.54262721395276   -2.27374e-13   1.31817e-10 DIIS
   @DF-RHF iter  19:  -531.54262721395355   -7.95808e-13   5.29699e-11 DIIS
  Energy and wave function converged.


  ==> Post-Iterations <==

    Orbital Energies [Eh]
    ---------------------

    Doubly Occupied:                                                      

       1A    -20.538350     2A    -15.614392     3A    -15.547464  
       4A    -11.365705     5A    -11.286879     6A    -11.282063  
       7A    -11.277140     8A    -11.238269     9A    -11.237025  
      10A    -11.233963    11A    -11.231942    12A    -11.226117  
      13A     -1.379036    14A     -1.255439    15A     -1.170632  
      16A     -1.136430    17A     -1.016989    18A     -1.008048  
      19A     -0.966701    20A     -0.935482    21A     -0.832604  
      22A     -0.817531    23A     -0.753535    24A     -0.693620  
      25A     -0.691219    26A     -0.678080    27A     -0.659008  
      28A     -0.641097    29A     -0.622597    30A     -0.608047  
      31A     -0.588762    32A     -0.575328    33A     -0.570883  
      34A     -0.562725    35A     -0.549758    36A     -0.525435  
      37A     -0.508361    38A     -0.494915    39A     -0.490916  
      40A     -0.428156    41A     -0.414967    42A     -0.392277  
      43A     -0.327837    44A     -0.306719  

    Virtual:                                                              

      45A      0.137824    46A      0.144781    47A      0.195069  
      48A      0.217970    49A      0.232279    50A      0.244350  
      51A      0.259681    52A      0.292142    53A      0.299822  
      54A      0.306420    55A      0.310651    56A      0.318878  
      57A      0.333410    58A      0.343443    59A      0.356515  
      60A      0.363424    61A      0.378084    62A      0.395288  
      63A      0.424019    64A      0.461387    65A      0.475448  
      66A      0.494498    67A      0.504908    68A      0.533342  
      69A      0.552837    70A      0.587297    71A      0.677268  
      72A      0.714974    73A      0.724164    74A      0.743560  
      75A      0.751837    76A      0.762485    77A      0.781043  
      78A      0.790280    79A      0.817382    80A      0.823810  
      81A      0.826557    82A      0.834401    83A      0.841595  
      84A      0.845404    85A      0.850304    86A      0.855327  
      87A      0.878039    88A      0.911380    89A      0.928281  
      90A      0.936174    91A      0.939789    92A      0.981784  
      93A      0.991404    94A      0.999459    95A      1.026641  
      96A      1.068693    97A      1.091036    98A      1.100021  
      99A      1.104243   100A      1.112408   101A      1.113708  
     102A      1.126364   103A      1.131647   104A      1.141154  
     105A      1.157544   106A      1.169887   107A      1.181585  
     108A      1.188574   109A      1.205149   110A      1.211439  
     111A      1.223403   112A      1.237536   113A      1.237883  
     114A      1.258070   115A      1.285451   116A      1.317487  
     117A      1.330674   118A      1.341809   119A      1.384255  
     120A      1.391128   121A      1.447594   122A      1.480345  
     123A      1.485001   124A      1.501264   125A      1.554383  
     126A      1.594321   127A      1.623390   128A      1.662270  
     129A      1.679108   130A      1.694774   131A      1.710759  
     132A      1.723144   133A      1.749273   134A      1.772747  
     135A      1.779355   136A      1.809162   137A      1.826631  
     138A      1.877540   139A      1.909302   140A      2.019062  
     141A      2.032539   142A      2.053676   143A      2.075679  
     144A      2.093219   145A      2.097312   146A      2.131482  
     147A      2.160131   148A      2.174889   149A      2.208918  
     150A      2.243426   151A      2.262408   152A      2.293055  
     153A      2.318076   154A      2.322664   155A      2.342201  
     156A      2.375197   157A      2.389805   158A      2.410655  
     159A      2.437782   160A      2.454606   161A      2.456067  
     162A      2.466796   163A      2.496143   164A      2.523794  
     165A      2.543708   166A      2.575419   167A      2.596678  
     168A      2.632120   169A      2.635573   170A      2.654213  
     171A      2.717845   172A      2.722384   173A      2.758861  
     174A      2.773308   175A      2.809776   176A      2.854709  
     177A      2.891132   178A      2.921918   179A      2.979062  
     180A      2.989484   181A      3.002399   182A      3.041124  
     183A      3.087602   184A      3.113454   185A      3.115750  
     186A      3.164243   187A      3.171977   188A      3.306903  
     189A      3.352326   190A      3.404826   191A      3.628505  
     192A      3.793101   193A      4.201850   194A      4.465740  
     195A      4.487684   196A      4.514077   197A      4.541060  
     198A      4.581633   199A      4.695440   200A      4.764581  
     201A      4.771757   202A      4.797568   203A      4.934028  
     204A      5.152672  

    Final Occupation by Irrep:
              A 
    DOCC [    44 ]

  @DF-RHF Final Energy:  -531.54262721395355

   => Energetics <=

    Nuclear Repulsion Energy =            675.7152356296739981
    One-Electron Energy =               -2063.1508430216131273
    Two-Electron Energy =                 855.8929801779855779
    Total Energy =                       -531.5426272139535513

Computation Completed


Properties will be evaluated at   0.000000,   0.000000,   0.000000 [a0]

Properties computed using the SCF density matrix


 Multipole Moments:

 ------------------------------------------------------------------------------------
     Multipole            Electronic (a.u.)      Nuclear  (a.u.)        Total (a.u.)
 ------------------------------------------------------------------------------------

 L = 1.  Multiply by 2.5417464519 to convert [e a0] to [Debye]
 Dipole X            :         -2.3435348            1.6759491           -0.6675857
 Dipole Y            :          1.3104313           -1.8622005           -0.5517692
 Dipole Z            :         -4.6615312            5.6379017            0.9763705
 Magnitude           :                                                    1.3051510

 ------------------------------------------------------------------------------------

*** tstop() called on node165.bme.utexas.edu at Sat Nov 18 08:03:51 2023
Module time:
	user time   =      19.98 seconds =       0.33 minutes
	system time =       1.59 seconds =       0.03 minutes
	total time  =          5 seconds =       0.08 minutes
Total time:
	user time   =      19.98 seconds =       0.33 minutes
	system time =       1.59 seconds =       0.03 minutes
	total time  =          5 seconds =       0.08 minutes

*** tstart() called on node165.bme.utexas.edu
*** at Sat Nov 18 08:03:51 2023


  //>>>>>>>>>>>>>>>>>>>>>>>>>>>>>>>>>>>//
  //               DFMP2               //
  //<<<<<<<<<<<<<<<<<<<<<<<<<<<<<<<<<<<//

   => Loading Basis Set <=

    Name: (ANONYMOUS065EE44E AUX)
    Role: RIFIT
    Keyword: DF_BASIS_MP2
    atoms 1, 3-5, 7-11 entry C          line   159 file /home/liuchw/anaconda3/envs/poltype2022/share/psi4/basis/cc-pvdz-ri.gbs 
    atoms 2, 15        entry N          line   197 file /home/liuchw/anaconda3/envs/poltype2022/share/psi4/basis/cc-pvdz-ri.gbs 
    atoms 6            entry O          line   235 file /home/liuchw/anaconda3/envs/poltype2022/share/psi4/basis/cc-pvdz-ri.gbs 
    atoms 12-14, 16-24 entry H          line    19 file /home/liuchw/anaconda3/envs/poltype2022/share/psi4/basis/cc-pvdz-ri.gbs 

	 --------------------------------------------------------
	                          DF-MP2                         
	      2nd-Order Density-Fitted Moller-Plesset Theory     
	              RMP2 Wavefunction,   5 Threads             
	                                                         
	        Rob Parrish, Justin Turney, Andy Simmonett,      
	           Ed Hohenstein, and C. David Sherrill          
	 --------------------------------------------------------

   => Auxiliary Basis Set <=

  Basis Set: (ANONYMOUS065EE44E AUX)
    Blend: CC-PVDZ-RI
    Number of shells: 288
    Number of basis functions: 840
    Number of Cartesian functions: 972
    Spherical Harmonics?: true
    Max angular momentum: 3

	 --------------------------------------------------------
	                 NBF =   204, NAUX =   840
	 --------------------------------------------------------
	   CLASS    FOCC     OCC    AOCC    AVIR     VIR    FVIR
	   PAIRS       0      44      44     160     160       0
	 --------------------------------------------------------

  DFHelper Memory: AOs need 0.367 GiB; user supplied 13.970 GiB. Using in-core AOs.


         ------------------------------------------------------------
                                     CPHF                           
                                  Rob Parrish                       
         ------------------------------------------------------------

  ==> Geometry <==

    Molecular point group: c1
    Full point group: C1

    Geometry (in Angstrom), charge = 0, multiplicity = 1:

       Center              X                  Y                   Z               Mass       
    ------------   -----------------  -----------------  -----------------  -----------------
         C           -0.840375294636    -0.190108341442    -0.030133533161    12.000000000000
         N            0.381124705364    -0.365208341442     0.725666466839    14.003074004430
         C            1.621324705364     0.109991658558     0.250866466839    12.000000000000
         C            2.830424705364    -0.051308341442     1.212866466839    12.000000000000
         C            0.249524705364    -0.970008341442     2.054266466839    12.000000000000
         O            1.792024705364     0.665291658558    -0.839333533161    15.994914619570
         C           -2.090175294636    -0.179508341442     0.610966466839    12.000000000000
         C           -3.276875294636     0.167391658558    -1.489533533161    12.000000000000
         C           -3.285575294636    -0.015408341442    -0.106533533161    12.000000000000
         C           -2.040875294636     0.113991658558    -2.138833533161    12.000000000000
         C           -0.845475294636    -0.051908341442    -1.422533533161    12.000000000000
         H            1.175324705364    -1.453108341442     2.372366466839     1.007825032230
         H           -0.513775294636    -1.754808341442     2.049366466839     1.007825032230
         H           -0.003875294636    -0.187608341442     2.776166466839     1.007825032230
         N            4.022724705364     0.662691658558     0.706766466839    14.003074004430
         H            3.051924705364    -1.124208341442     1.256166466839     1.007825032230
         H            2.574524705364     0.315791658558     2.212466466839     1.007825032230
         H           -2.180875294636    -0.270908341442     1.688866466839     1.007825032230
         H           -4.222175294636    -0.020808341442     0.442666466839     1.007825032230
         H           -1.989875294636     0.195391658558    -3.221933533161     1.007825032230
         H            0.067124705364    -0.109008341442    -2.007133533161     1.007825032230
         H            4.170724705364     0.393991658558    -0.266033533161     1.007825032230
         H           -4.207675294636     0.346791658558    -2.047633533161     1.007825032230
         H            3.870824705364     1.679591658558     0.767366466839     1.007825032230

  Nuclear repulsion =  675.715235629673998
  Reference energy  = -531.542627213953551

  ==> Basis Set <==

  Basis Set: ANONYMOUS065EE44E
    Blend: 6-31G*
    Number of shells: 96
    Number of basis functions: 204
    Number of Cartesian functions: 204
    Spherical Harmonics?: false
    Max angular momentum: 2

  ==> CGRSolver (by Rob Parrish) <==

   Number of roots    =         1
   Preconditioning    =    JACOBI
   Convergence cutoff =     1E-06
   Maximum iterations =       100

  ==> CPHFRHamiltonian (by Rob Parrish) <== 

  ==> MemDFJK: Density-Fitted J/K Matrices <==

    J tasked:                   Yes
    K tasked:                   Yes
    wK tasked:                   No
    OpenMP threads:               5
    Memory [MiB]:             14305
    Algorithm:                 Core
    Schwarz Cutoff:           1E-12
    Mask sparsity (%):      12.7403
    Fitting Condition:        1E-10

   => Auxiliary Basis Set <=

  Basis Set: (ANONYMOUS065EE44E AUX)
    Blend: CC-PVDZ-JKFIT
    Number of shells: 396
    Number of basis functions: 1272
    Number of Cartesian functions: 1272
    Spherical Harmonics?: false
    Max angular momentum: 3

  ==> CPHF Iterations <==

  => Iterations <=

             Iter  Converged  Remaining    Residual
  CGR           1          0          1   1.329E-01
  CGR           2          0          1   3.984E-02
  CGR           3          0          1   1.574E-02
  CGR           4          0          1   5.464E-03
  CGR           5          0          1   1.996E-03
  CGR           6          0          1   1.074E-03
  CGR           7          0          1   5.141E-04
  CGR           8          0          1   1.815E-04
  CGR           9          0          1   4.833E-05
  CGR          10          0          1   1.657E-05
  CGR          11          0          1   4.441E-06
  CGR          12          0          1   1.529E-06
  CGR          13          1          0   7.774E-07

    CGRSolver converged.

  ==> DFCorrGrad: Density-Fitted Correlated Gradients <==

    OpenMP threads:              5
    Integrals threads:           5
    Memory [GiB]:           13.970
    Schwarz Cutoff:          0E+00
    Fitting Condition:       1E-10

   => Auxiliary Basis Set <=

  Basis Set: (ANONYMOUS065EE44E AUX)
    Blend: CC-PVDZ-JKFIT
    Number of shells: 396
    Number of basis functions: 1272
    Number of Cartesian functions: 1272
    Spherical Harmonics?: false
    Max angular momentum: 3

	-----------------------------------------------------------
	 ==================> DF-MP2 Energies <==================== 
	-----------------------------------------------------------
	 Reference Energy          =    -531.5426272139535513 [Eh]
	 Singles Energy            =      -0.0000000000000000 [Eh]
	 Same-Spin Energy          =      -0.4523214722900648 [Eh]
	 Opposite-Spin Energy      =      -1.2564674681441521 [Eh]
	 Correlation Energy        =      -1.7087889404342169 [Eh]
	 Total Energy              =    -533.2514161543878117 [Eh]
	-----------------------------------------------------------
	 ================> DF-SCS-MP2 Energies <================== 
	-----------------------------------------------------------
	 SCS Same-Spin Scale       =       0.3333333333333333 [-]
	 SCS Opposite-Spin Scale   =       1.2000000000000000 [-]
	 SCS Same-Spin Energy      =      -0.1507738240966883 [Eh]
	 SCS Opposite-Spin Energy  =      -1.5077609617729826 [Eh]
	 SCS Correlation Energy    =      -1.6585347858696708 [Eh]
	 SCS Total Energy          =    -533.2011619998231708 [Eh]
	-----------------------------------------------------------


  -Total Gradient:
     Atom            X                  Y                   Z
    ------   -----------------  -----------------  -----------------
       1       -0.005465813170    -0.000391615567    -0.003701902157
       2        0.000310574363     0.000619416305     0.020118551556
       3        0.009738674885    -0.003893327401    -0.010649368358
       4       -0.003828275679    -0.010293648586     0.021172041151
       5       -0.004433237797    -0.003714143214     0.000051885015
       6        0.006101461087     0.007201705744    -0.007597579624
       7        0.006086281459    -0.001080983792    -0.003257921432
       8        0.000413933900     0.000405450076     0.001015866173
       9       -0.006431796893    -0.001131442079    -0.000567333613
      10       -0.001142420560    -0.000491056429    -0.006852291051
      11       -0.000028624648     0.002966566437     0.017852255590
      12       -0.000174920747    -0.002979392674     0.003169679795
      13        0.000492651668    -0.005057920343     0.002705090165
      14        0.002589803010     0.004290007670    -0.004777713247
      15        0.007710876823     0.007034090399    -0.018502217621
      16       -0.003055545244    -0.001112238162    -0.005365023007
      17       -0.003272871626     0.002176782882     0.000961541821
      18       -0.002848504815     0.000417053739    -0.000282575249
      19        0.000764876290    -0.001023427418    -0.000552246195
      20       -0.000687035132    -0.001121162209    -0.000452184299
      21        0.000265412004    -0.001022614680    -0.006030319169
      22        0.003634273857    -0.007549137366    -0.001506828312
      23       -0.007617895728     0.003479615575    -0.004684589843
      24        0.000878122693     0.012271421095     0.007733181910


*** tstop() called on node165.bme.utexas.edu at Sat Nov 18 08:04:06 2023
Module time:
	user time   =      64.43 seconds =       1.07 minutes
	system time =       5.65 seconds =       0.09 minutes
	total time  =         15 seconds =       0.25 minutes
Total time:
	user time   =      84.42 seconds =       1.41 minutes
	system time =       7.24 seconds =       0.12 minutes
	total time  =         20 seconds =       0.33 minutes

  Measures of convergence in internal coordinates in au.                                        ~
  Criteria marked as inactive (o), active & met (*), and active & unmet ( ).                    ~
  --------------------------------------------------------------------------------------------- ~
   Step     Total Energy     Delta E     MAX Force     RMS Force      MAX Disp      RMS Disp    ~
  --------------------------------------------------------------------------------------------- ~
    Convergence Criteria    1.00e-04      2.50e-03      1.70e-03      1.00e-02      6.70e-03    ~
  --------------------------------------------------------------------------------------------- ~
      0  -5.33251416e+02    --------      2.39e-02      1.10e-02      --------      --------    ~
Scratch directory: /scratch/liuchw/Psi4-3_25_Index_0_GrowFragment_3-farH_in17/
gradient() will perform analytic gradient computation.
    SCF Algorithm Type (re)set to DF.

*** tstart() called on node165.bme.utexas.edu
*** at Sat Nov 18 08:04:07 2023

   => Loading Basis Set <=

    Name: ANONYMOUS065EE44E
    Role: ORBITAL
    Keyword: BASIS
    atoms 1, 3-5, 7-11 entry C          line   111 file /home/liuchw/anaconda3/envs/poltype2022/share/psi4/basis/6-31gs.gbs 
    atoms 2, 15        entry N          line   128 file /home/liuchw/anaconda3/envs/poltype2022/share/psi4/basis/6-31gs.gbs 
    atoms 6            entry O          line   145 file /home/liuchw/anaconda3/envs/poltype2022/share/psi4/basis/6-31gs.gbs 
    atoms 12-14, 16-24 entry H          line    44 file /home/liuchw/anaconda3/envs/poltype2022/share/psi4/basis/6-31gs.gbs 


         ---------------------------------------------------------
                                   SCF
               by Justin Turney, Rob Parrish, Andy Simmonett
                          and Daniel G. A. Smith
                              RHF Reference
                        5 Threads,  19073 MiB Core
         ---------------------------------------------------------

  ==> Geometry <==

    Molecular point group: c1
    Full point group: C1

    Geometry (in Angstrom), charge = 0, multiplicity = 1:

       Center              X                  Y                   Z               Mass       
    ------------   -----------------  -----------------  -----------------  -----------------
         C           -0.813596303839    -0.175435651016    -0.116929536114    12.000000000000
         N            0.376958406424    -0.338437307012     0.651980895597    14.003074004430
         C            1.619391099155     0.120698467044     0.237761150635    12.000000000000
         C            2.791539417845    -0.050265790550     1.233364841484    12.000000000000
         C            0.213832129683    -0.932055304868     1.976551497960    12.000000000000
         O            1.814244541627     0.661423484518    -0.849075850156    15.994914619570
         C           -2.006501500149    -0.164936281762     0.621386715551    12.000000000000
         C           -3.250863617673     0.136270229107    -1.418937004935    12.000000000000
         C           -3.227377059455    -0.017157582765    -0.035477485941    12.000000000000
         C           -2.065761887808     0.090263828234    -2.151917850194    12.000000000000
         C           -0.834484535153    -0.058436689318    -1.514447782450    12.000000000000
         H            1.138610879733    -1.409570462895     2.297199064129     1.007825032230
         H           -0.547709436585    -1.711365458838     1.927468423630     1.007825032230
         H           -0.069141171235    -0.181229054308     2.721901490981     1.007825032230
         N            4.000626847622     0.634144879155     0.802136148684    14.003074004430
         H            3.012619198056    -1.121474018579     1.303925750467     1.007825032230
         H            2.509816336292     0.319940060166     2.221581116684     1.007825032230
         H           -2.014009761133    -0.242221901771     1.704264404534     1.007825032230
         H           -4.144824724272    -0.013687529633     0.547282973944     1.007825032230
         H           -2.084845284831     0.163300865180    -3.236237179604     1.007825032230
         H            0.065326178915    -0.115708288084    -2.110827719852     1.007825032230
         H            4.181769418447     0.380686762418    -0.164972812382     1.007825032230
         H           -4.198764718649     0.293961898950    -1.929594363884     1.007825032230
         H            3.843138475684     1.638290651989     0.838808315327     1.007825032230

  Running in c1 symmetry.

  Rotational constants: A =      0.07674  B =      0.01779  C =      0.01486 [cm^-1]
  Rotational constants: A =   2300.56534  B =    533.40279  C =    445.51002 [MHz]
  Nuclear repulsion =  680.922882650643260

  Charge       = 0
  Multiplicity = 1
  Electrons    = 88
  Nalpha       = 44
  Nbeta        = 44

  ==> Algorithm <==

  SCF Algorithm Type is DF.
  DIIS enabled.
  MOM disabled.
  Fractional occupation disabled.
  Guess Type is SAD.
  Energy threshold   = 1.00e-10
  Density threshold  = 1.00e-10
  Integral threshold = 1.00e-12

  ==> Primary Basis <==

  Basis Set: ANONYMOUS065EE44E
    Blend: 6-31G*
    Number of shells: 96
    Number of basis functions: 204
    Number of Cartesian functions: 204
    Spherical Harmonics?: false
    Max angular momentum: 2

   => Loading Basis Set <=

    Name: (ANONYMOUS065EE44E AUX)
    Role: JKFIT
    Keyword: DF_BASIS_SCF
    atoms 1, 3-5, 7-11 entry C          line   121 file /home/liuchw/anaconda3/envs/poltype2022/share/psi4/basis/cc-pvdz-jkfit.gbs 
    atoms 2, 15        entry N          line   171 file /home/liuchw/anaconda3/envs/poltype2022/share/psi4/basis/cc-pvdz-jkfit.gbs 
    atoms 6            entry O          line   221 file /home/liuchw/anaconda3/envs/poltype2022/share/psi4/basis/cc-pvdz-jkfit.gbs 
    atoms 12-14, 16-24 entry H          line    51 file /home/liuchw/anaconda3/envs/poltype2022/share/psi4/basis/cc-pvdz-jkfit.gbs 

  ==> Integral Setup <==

  DFHelper Memory: AOs need 0.369 GiB; user supplied 13.970 GiB. Using in-core AOs.

  ==> MemDFJK: Density-Fitted J/K Matrices <==

    J tasked:                   Yes
    K tasked:                   Yes
    wK tasked:                   No
    OpenMP threads:               5
    Memory [MiB]:             14305
    Algorithm:                 Core
    Schwarz Cutoff:           1E-12
    Mask sparsity (%):      12.3462
    Fitting Condition:        1E-10

   => Auxiliary Basis Set <=

  Basis Set: (ANONYMOUS065EE44E AUX)
    Blend: CC-PVDZ-JKFIT
    Number of shells: 396
    Number of basis functions: 1272
    Number of Cartesian functions: 1272
    Spherical Harmonics?: false
    Max angular momentum: 3

  Minimum eigenvalue in the overlap matrix is 4.6828676325E-04.
  Reciprocal condition number of the overlap matrix is 6.0524604311E-05.
    Using symmetric orthogonalization.

  ==> Pre-Iterations <==

  SCF Guess: Superposition of Atomic Densities via on-the-fly atomic UHF (no occupation information).

   -------------------------
    Irrep   Nso     Nmo    
   -------------------------
     A        204     204 
   -------------------------
    Total     204     204
   -------------------------

  ==> Iterations <==

                           Total Energy        Delta E     RMS |[F,P]|

   @DF-RHF iter SAD:  -530.31718439932638   -5.30317e+02   0.00000e+00 
   @DF-RHF iter   1:  -531.27954487794727   -9.62360e-01   3.38887e-03 DIIS/ADIIS
   @DF-RHF iter   2:  -531.47046311845065   -1.90918e-01   2.13347e-03 DIIS/ADIIS
   @DF-RHF iter   3:  -531.54195059513040   -7.14875e-02   4.73723e-04 DIIS/ADIIS
   @DF-RHF iter   4:  -531.54715375230512   -5.20316e-03   1.67931e-04 DIIS/ADIIS
   @DF-RHF iter   5:  -531.54782582102746   -6.72069e-04   3.06130e-05 DIIS
   @DF-RHF iter   6:  -531.54787192857793   -4.61076e-05   1.56094e-05 DIIS
   @DF-RHF iter   7:  -531.54788263565479   -1.07071e-05   5.95804e-06 DIIS
   @DF-RHF iter   8:  -531.54788472776022   -2.09211e-06   2.46012e-06 DIIS
   @DF-RHF iter   9:  -531.54788505535191   -3.27592e-07   9.02037e-07 DIIS
   @DF-RHF iter  10:  -531.54788509486593   -3.95140e-08   2.36141e-07 DIIS
   @DF-RHF iter  11:  -531.54788509825710   -3.39116e-09   9.43516e-08 DIIS
   @DF-RHF iter  12:  -531.54788509874152   -4.84420e-10   3.58741e-08 DIIS
   @DF-RHF iter  13:  -531.54788509882371   -8.21956e-11   1.52136e-08 DIIS
   @DF-RHF iter  14:  -531.54788509884293   -1.92131e-11   7.19071e-09 DIIS
   @DF-RHF iter  15:  -531.54788509884941   -6.48015e-12   3.02071e-09 DIIS
   @DF-RHF iter  16:  -531.54788509885020   -7.95808e-13   1.23359e-09 DIIS
   @DF-RHF iter  17:  -531.54788509884952    6.82121e-13   4.00509e-10 DIIS
   @DF-RHF iter  18:  -531.54788509884975   -2.27374e-13   1.37955e-10 DIIS
   @DF-RHF iter  19:  -531.54788509885088   -1.13687e-12   5.85690e-11 DIIS
  Energy and wave function converged.


  ==> Post-Iterations <==

    Orbital Energies [Eh]
    ---------------------

    Doubly Occupied:                                                      

       1A    -20.534441     2A    -15.610362     3A    -15.545191  
       4A    -11.359785     5A    -11.284908     6A    -11.278897  
       7A    -11.273255     8A    -11.237777     9A    -11.234689  
      10A    -11.234309    11A    -11.228955    12A    -11.228485  
      13A     -1.382818    14A     -1.264299    15A     -1.181954  
      16A     -1.139572    17A     -1.017624    18A     -1.015934  
      19A     -0.967916    20A     -0.937266    21A     -0.839591  
      22A     -0.819676    23A     -0.753736    24A     -0.697179  
      25A     -0.695340    26A     -0.682362    27A     -0.660450  
      28A     -0.644256    29A     -0.626997    30A     -0.611045  
      31A     -0.588856    32A     -0.584909    33A     -0.572855  
      34A     -0.560307    35A     -0.547988    36A     -0.525219  
      37A     -0.507486    38A     -0.497448    39A     -0.494850  
      40A     -0.431517    41A     -0.415316    42A     -0.393706  
      43A     -0.333137    44A     -0.304071  

    Virtual:                                                              

      45A      0.138392    46A      0.142980    47A      0.198843  
      48A      0.221117    49A      0.234187    50A      0.246799  
      51A      0.260555    52A      0.291577    53A      0.298881  
      54A      0.308298    55A      0.315912    56A      0.323693  
      57A      0.337422    58A      0.343093    59A      0.361373  
      60A      0.365111    61A      0.379694    62A      0.404571  
      63A      0.436123    64A      0.467699    65A      0.476600  
      66A      0.500192    67A      0.505561    68A      0.540094  
      69A      0.558427    70A      0.591091    71A      0.684549  
      72A      0.715069    73A      0.725279    74A      0.744332  
      75A      0.754274    76A      0.761549    77A      0.781211  
      78A      0.793958    79A      0.818645    80A      0.826310  
      81A      0.827904    82A      0.836655    83A      0.841516  
      84A      0.844092    85A      0.847654    86A      0.861259  
      87A      0.882339    88A      0.913569    89A      0.927579  
      90A      0.939780    91A      0.945555    92A      0.985367  
      93A      0.994691    94A      1.003108    95A      1.030473  
      96A      1.071748    97A      1.095488    98A      1.104202  
      99A      1.107112   100A      1.115054   101A      1.116814  
     102A      1.128669   103A      1.136394   104A      1.145955  
     105A      1.161398   106A      1.172925   107A      1.180395  
     108A      1.188672   109A      1.210329   110A      1.220268  
     111A      1.226849   112A      1.237506   113A      1.241622  
     114A      1.264040   115A      1.282201   116A      1.318440  
     117A      1.339666   118A      1.347834   119A      1.382729  
     120A      1.399795   121A      1.453969   122A      1.473328  
     123A      1.490974   124A      1.514802   125A      1.563550  
     126A      1.612834   127A      1.628977   128A      1.660439  
     129A      1.680083   130A      1.698718   131A      1.713565  
     132A      1.725493   133A      1.750390   134A      1.763526  
     135A      1.783348   136A      1.799537   137A      1.827705  
     138A      1.880132   139A      1.916844   140A      2.023886  
     141A      2.034062   142A      2.073612   143A      2.075546  
     144A      2.097122   145A      2.113603   146A      2.139663  
     147A      2.174969   148A      2.180537   149A      2.212992  
     150A      2.257929   151A      2.280556   152A      2.301290  
     153A      2.311983   154A      2.323147   155A      2.354694  
     156A      2.399566   157A      2.407954   158A      2.419915  
     159A      2.446496   160A      2.455796   161A      2.473399  
     162A      2.474718   163A      2.497046   164A      2.525505  
     165A      2.539308   166A      2.584398   167A      2.609286  
     168A      2.635176   169A      2.646589   170A      2.660789  
     171A      2.722362   172A      2.726860   173A      2.771448  
     174A      2.782582   175A      2.835256   176A      2.869552  
     177A      2.904452   178A      2.937773   179A      2.982433  
     180A      3.004439   181A      3.021558   182A      3.052967  
     183A      3.097813   184A      3.102164   185A      3.129320  
     186A      3.166436   187A      3.194714   188A      3.318582  
     189A      3.368162   190A      3.419779   191A      3.667877  
     192A      3.809266   193A      4.213142   194A      4.473998  
     195A      4.494654   196A      4.518471   197A      4.549552  
     198A      4.585561   199A      4.702463   200A      4.760970  
     201A      4.785724   202A      4.804412   203A      4.943027  
     204A      5.162389  

    Final Occupation by Irrep:
              A 
    DOCC [    44 ]

  @DF-RHF Final Energy:  -531.54788509885088

   => Energetics <=

    Nuclear Repulsion Energy =            680.9228826506432597
    One-Electron Energy =               -2073.4480637255064721
    Two-Electron Energy =                 860.9772959760123285
    Total Energy =                       -531.5478850988508839

Computation Completed


Properties will be evaluated at   0.000000,   0.000000,   0.000000 [a0]

Properties computed using the SCF density matrix


 Multipole Moments:

 ------------------------------------------------------------------------------------
     Multipole            Electronic (a.u.)      Nuclear  (a.u.)        Total (a.u.)
 ------------------------------------------------------------------------------------

 L = 1.  Multiply by 2.5417464519 to convert [e a0] to [Debye]
 Dipole X            :         -3.3833597            2.6571533           -0.7262064
 Dipole Y            :          1.2490113           -1.7840229           -0.5350116
 Dipole Z            :         -3.7714352            4.7151298            0.9436946
 Magnitude           :                                                    1.3054397

 ------------------------------------------------------------------------------------

*** tstop() called on node165.bme.utexas.edu at Sat Nov 18 08:04:11 2023
Module time:
	user time   =      18.16 seconds =       0.30 minutes
	system time =       1.03 seconds =       0.02 minutes
	total time  =          4 seconds =       0.07 minutes
Total time:
	user time   =     104.90 seconds =       1.75 minutes
	system time =       8.31 seconds =       0.14 minutes
	total time  =         25 seconds =       0.42 minutes

*** tstart() called on node165.bme.utexas.edu
*** at Sat Nov 18 08:04:11 2023


  //>>>>>>>>>>>>>>>>>>>>>>>>>>>>>>>>>>>//
  //               DFMP2               //
  //<<<<<<<<<<<<<<<<<<<<<<<<<<<<<<<<<<<//

   => Loading Basis Set <=

    Name: (ANONYMOUS065EE44E AUX)
    Role: RIFIT
    Keyword: DF_BASIS_MP2
    atoms 1, 3-5, 7-11 entry C          line   159 file /home/liuchw/anaconda3/envs/poltype2022/share/psi4/basis/cc-pvdz-ri.gbs 
    atoms 2, 15        entry N          line   197 file /home/liuchw/anaconda3/envs/poltype2022/share/psi4/basis/cc-pvdz-ri.gbs 
    atoms 6            entry O          line   235 file /home/liuchw/anaconda3/envs/poltype2022/share/psi4/basis/cc-pvdz-ri.gbs 
    atoms 12-14, 16-24 entry H          line    19 file /home/liuchw/anaconda3/envs/poltype2022/share/psi4/basis/cc-pvdz-ri.gbs 

	 --------------------------------------------------------
	                          DF-MP2                         
	      2nd-Order Density-Fitted Moller-Plesset Theory     
	              RMP2 Wavefunction,   5 Threads             
	                                                         
	        Rob Parrish, Justin Turney, Andy Simmonett,      
	           Ed Hohenstein, and C. David Sherrill          
	 --------------------------------------------------------

   => Auxiliary Basis Set <=

  Basis Set: (ANONYMOUS065EE44E AUX)
    Blend: CC-PVDZ-RI
    Number of shells: 288
    Number of basis functions: 840
    Number of Cartesian functions: 972
    Spherical Harmonics?: true
    Max angular momentum: 3

	 --------------------------------------------------------
	                 NBF =   204, NAUX =   840
	 --------------------------------------------------------
	   CLASS    FOCC     OCC    AOCC    AVIR     VIR    FVIR
	   PAIRS       0      44      44     160     160       0
	 --------------------------------------------------------

  DFHelper Memory: AOs need 0.369 GiB; user supplied 13.970 GiB. Using in-core AOs.


         ------------------------------------------------------------
                                     CPHF                           
                                  Rob Parrish                       
         ------------------------------------------------------------

  ==> Geometry <==

    Molecular point group: c1
    Full point group: C1

    Geometry (in Angstrom), charge = 0, multiplicity = 1:

       Center              X                  Y                   Z               Mass       
    ------------   -----------------  -----------------  -----------------  -----------------
         C           -0.813596303839    -0.175435651016    -0.116929536114    12.000000000000
         N            0.376958406424    -0.338437307012     0.651980895597    14.003074004430
         C            1.619391099155     0.120698467044     0.237761150635    12.000000000000
         C            2.791539417845    -0.050265790550     1.233364841484    12.000000000000
         C            0.213832129683    -0.932055304868     1.976551497960    12.000000000000
         O            1.814244541627     0.661423484518    -0.849075850156    15.994914619570
         C           -2.006501500149    -0.164936281762     0.621386715551    12.000000000000
         C           -3.250863617673     0.136270229107    -1.418937004935    12.000000000000
         C           -3.227377059455    -0.017157582765    -0.035477485941    12.000000000000
         C           -2.065761887808     0.090263828234    -2.151917850194    12.000000000000
         C           -0.834484535153    -0.058436689318    -1.514447782450    12.000000000000
         H            1.138610879733    -1.409570462895     2.297199064129     1.007825032230
         H           -0.547709436585    -1.711365458838     1.927468423630     1.007825032230
         H           -0.069141171235    -0.181229054308     2.721901490981     1.007825032230
         N            4.000626847622     0.634144879155     0.802136148684    14.003074004430
         H            3.012619198056    -1.121474018579     1.303925750467     1.007825032230
         H            2.509816336292     0.319940060166     2.221581116684     1.007825032230
         H           -2.014009761133    -0.242221901771     1.704264404534     1.007825032230
         H           -4.144824724272    -0.013687529633     0.547282973944     1.007825032230
         H           -2.084845284831     0.163300865180    -3.236237179604     1.007825032230
         H            0.065326178915    -0.115708288084    -2.110827719852     1.007825032230
         H            4.181769418447     0.380686762418    -0.164972812382     1.007825032230
         H           -4.198764718649     0.293961898950    -1.929594363884     1.007825032230
         H            3.843138475684     1.638290651989     0.838808315327     1.007825032230

  Nuclear repulsion =  680.922882650643260
  Reference energy  = -531.547885098850884

  ==> Basis Set <==

  Basis Set: ANONYMOUS065EE44E
    Blend: 6-31G*
    Number of shells: 96
    Number of basis functions: 204
    Number of Cartesian functions: 204
    Spherical Harmonics?: false
    Max angular momentum: 2

  ==> CGRSolver (by Rob Parrish) <==

   Number of roots    =         1
   Preconditioning    =    JACOBI
   Convergence cutoff =     1E-06
   Maximum iterations =       100

  ==> CPHFRHamiltonian (by Rob Parrish) <== 

  ==> MemDFJK: Density-Fitted J/K Matrices <==

    J tasked:                   Yes
    K tasked:                   Yes
    wK tasked:                   No
    OpenMP threads:               5
    Memory [MiB]:             14305
    Algorithm:                 Core
    Schwarz Cutoff:           1E-12
    Mask sparsity (%):      12.3462
    Fitting Condition:        1E-10

   => Auxiliary Basis Set <=

  Basis Set: (ANONYMOUS065EE44E AUX)
    Blend: CC-PVDZ-JKFIT
    Number of shells: 396
    Number of basis functions: 1272
    Number of Cartesian functions: 1272
    Spherical Harmonics?: false
    Max angular momentum: 3

  ==> CPHF Iterations <==

  => Iterations <=

             Iter  Converged  Remaining    Residual
  CGR           1          0          1   1.312E-01
  CGR           2          0          1   3.887E-02
  CGR           3          0          1   1.570E-02
  CGR           4          0          1   5.668E-03
  CGR           5          0          1   2.311E-03
  CGR           6          0          1   1.251E-03
  CGR           7          0          1   5.393E-04
  CGR           8          0          1   1.744E-04
  CGR           9          0          1   4.464E-05
  CGR          10          0          1   1.583E-05
  CGR          11          0          1   4.655E-06
  CGR          12          0          1   1.753E-06
  CGR          13          1          0   8.753E-07

    CGRSolver converged.

  ==> DFCorrGrad: Density-Fitted Correlated Gradients <==

    OpenMP threads:              5
    Integrals threads:           5
    Memory [GiB]:           13.970
    Schwarz Cutoff:          0E+00
    Fitting Condition:       1E-10

   => Auxiliary Basis Set <=

  Basis Set: (ANONYMOUS065EE44E AUX)
    Blend: CC-PVDZ-JKFIT
    Number of shells: 396
    Number of basis functions: 1272
    Number of Cartesian functions: 1272
    Spherical Harmonics?: false
    Max angular momentum: 3

	-----------------------------------------------------------
	 ==================> DF-MP2 Energies <==================== 
	-----------------------------------------------------------
	 Reference Energy          =    -531.5478850988508839 [Eh]
	 Singles Energy            =      -0.0000000000000000 [Eh]
	 Same-Spin Energy          =      -0.4525667329955644 [Eh]
	 Opposite-Spin Energy      =      -1.2539993969247194 [Eh]
	 Correlation Energy        =      -1.7065661299202839 [Eh]
	 Total Energy              =    -533.2544512287711314 [Eh]
	-----------------------------------------------------------
	 ================> DF-SCS-MP2 Energies <================== 
	-----------------------------------------------------------
	 SCS Same-Spin Scale       =       0.3333333333333333 [-]
	 SCS Opposite-Spin Scale   =       1.2000000000000000 [-]
	 SCS Same-Spin Energy      =      -0.1508555776651881 [Eh]
	 SCS Opposite-Spin Energy  =      -1.5047992763096631 [Eh]
	 SCS Correlation Energy    =      -1.6556548539748512 [Eh]
	 SCS Total Energy          =    -533.2035399528257358 [Eh]
	-----------------------------------------------------------


  -Total Gradient:
     Atom            X                  Y                   Z
    ------   -----------------  -----------------  -----------------
       1       -0.006588384938    -0.000536639092    -0.012033872325
       2       -0.006588685573     0.004637769825     0.005876796345
       3        0.005143190312    -0.001894609460    -0.008467795513
       4        0.000012216764    -0.002882633716     0.011424935630
       5       -0.006502169739     0.002449495763    -0.000894051936
       6       -0.000120337534     0.000360028333     0.003491341066
       7        0.010417248108    -0.003044498697     0.006729174500
       8        0.007063424220    -0.000448077494     0.003924954866
       9       -0.004963108896    -0.000713805095     0.000454712539
      10       -0.001335865727    -0.000278976720    -0.003553876185
      11        0.003862333695     0.002866046017     0.000629717373
      12        0.000461027992    -0.001078214792     0.000774988914
      13       -0.000540090623    -0.001007833664    -0.000418908070
      14        0.000913293269     0.001611802400    -0.001521228786
      15        0.000136997503     0.005488492271    -0.009665281471
      16       -0.000182347719     0.000094783445    -0.004072126642
      17       -0.001012880484     0.001814800331    -0.001254988561
      18       -0.000649003529    -0.001455033595     0.003438156435
      19        0.000741862493    -0.001076683654     0.001293999326
      20        0.000978561345    -0.001099678647    -0.000204986629
      21       -0.002054959225    -0.001277942528    -0.003721601722
      22        0.001046206749    -0.004552759951     0.002336347972
      23       -0.000492424814     0.001789849995     0.000111293332
      24        0.000253896350     0.000234318726     0.005322299543


*** tstop() called on node165.bme.utexas.edu at Sat Nov 18 08:04:25 2023
Module time:
	user time   =      60.63 seconds =       1.01 minutes
	system time =       4.86 seconds =       0.08 minutes
	total time  =         14 seconds =       0.23 minutes
Total time:
	user time   =     165.54 seconds =       2.76 minutes
	system time =      13.17 seconds =       0.22 minutes
	total time  =         39 seconds =       0.65 minutes

      1  -5.33254451e+02   -3.04e-03      1.37e-02      6.88e-03      1.70e-01      9.42e-02    ~
Scratch directory: /scratch/liuchw/Psi4-3_25_Index_0_GrowFragment_3-farH_in17/
gradient() will perform analytic gradient computation.
    SCF Algorithm Type (re)set to DF.

*** tstart() called on node165.bme.utexas.edu
*** at Sat Nov 18 08:04:26 2023

   => Loading Basis Set <=

    Name: ANONYMOUS065EE44E
    Role: ORBITAL
    Keyword: BASIS
    atoms 1, 3-5, 7-11 entry C          line   111 file /home/liuchw/anaconda3/envs/poltype2022/share/psi4/basis/6-31gs.gbs 
    atoms 2, 15        entry N          line   128 file /home/liuchw/anaconda3/envs/poltype2022/share/psi4/basis/6-31gs.gbs 
    atoms 6            entry O          line   145 file /home/liuchw/anaconda3/envs/poltype2022/share/psi4/basis/6-31gs.gbs 
    atoms 12-14, 16-24 entry H          line    44 file /home/liuchw/anaconda3/envs/poltype2022/share/psi4/basis/6-31gs.gbs 


         ---------------------------------------------------------
                                   SCF
               by Justin Turney, Rob Parrish, Andy Simmonett
                          and Daniel G. A. Smith
                              RHF Reference
                        5 Threads,  19073 MiB Core
         ---------------------------------------------------------

  ==> Geometry <==

    Molecular point group: c1
    Full point group: C1

    Geometry (in Angstrom), charge = 0, multiplicity = 1:

       Center              X                  Y                   Z               Mass       
    ------------   -----------------  -----------------  -----------------  -----------------
         C           -0.832361761448    -0.187409042623    -0.041672326414    12.000000000000
         N            0.358860375621    -0.366328792871     0.719438634227    14.003074004430
         C            1.573580050491     0.107360397693     0.262573328752    12.000000000000
         C            2.798586056220    -0.044317278355     1.191702193376    12.000000000000
         C            0.239762638089    -0.972099192972     2.043186186453    12.000000000000
         O            1.706078413698     0.652115721087    -0.830921775514    15.994914619570
         C           -2.066351147355    -0.160608399479     0.628499220936    12.000000000000
         C           -3.219658146290     0.163825459555    -1.465840710165    12.000000000000
         C           -3.251751789783     0.005988152404    -0.084224999196    12.000000000000
         C           -1.999432785120     0.104429169150    -2.134189476119    12.000000000000
         C           -0.804221306810    -0.062987881830    -1.438543876719    12.000000000000
         H            1.178068472184    -1.444565219264     2.326590540021     1.007825032230
         H           -0.516946745653    -1.755050143771     2.006300718419     1.007825032230
         H           -0.026907778666    -0.237473329062     2.810696181406     1.007825032230
         N            3.968606075263     0.658207252577     0.703822813911    14.003074004430
         H            3.043822766314    -1.110987839738     1.252382664902     1.007825032230
         H            2.564727250264     0.319215082960     2.194325417177     1.007825032230
         H           -2.128742649750    -0.240175889633     1.707851855615     1.007825032230
         H           -4.194462462431     0.020409701676     0.456887794407     1.007825032230
         H           -1.963030338701     0.182041365953    -3.217622430225     1.007825032230
         H            0.122138831298    -0.128777700216    -1.989968764352     1.007825032230
         H            4.103804651775     0.413626797657    -0.272607362867     1.007825032230
         H           -4.138983627492     0.333836037999    -2.018003880182     1.007825032230
         H            3.794807886988     1.656725376460     0.746533256263     1.007825032230

  Running in c1 symmetry.

  Rotational constants: A =      0.07540  B =      0.01808  C =      0.01502 [cm^-1]
  Rotational constants: A =   2260.50124  B =    542.01984  C =    450.22749 [MHz]
  Nuclear repulsion =  682.471657057628818

  Charge       = 0
  Multiplicity = 1
  Electrons    = 88
  Nalpha       = 44
  Nbeta        = 44

  ==> Algorithm <==

  SCF Algorithm Type is DF.
  DIIS enabled.
  MOM disabled.
  Fractional occupation disabled.
  Guess Type is SAD.
  Energy threshold   = 1.00e-10
  Density threshold  = 1.00e-10
  Integral threshold = 1.00e-12

  ==> Primary Basis <==

  Basis Set: ANONYMOUS065EE44E
    Blend: 6-31G*
    Number of shells: 96
    Number of basis functions: 204
    Number of Cartesian functions: 204
    Spherical Harmonics?: false
    Max angular momentum: 2

   => Loading Basis Set <=

    Name: (ANONYMOUS065EE44E AUX)
    Role: JKFIT
    Keyword: DF_BASIS_SCF
    atoms 1, 3-5, 7-11 entry C          line   121 file /home/liuchw/anaconda3/envs/poltype2022/share/psi4/basis/cc-pvdz-jkfit.gbs 
    atoms 2, 15        entry N          line   171 file /home/liuchw/anaconda3/envs/poltype2022/share/psi4/basis/cc-pvdz-jkfit.gbs 
    atoms 6            entry O          line   221 file /home/liuchw/anaconda3/envs/poltype2022/share/psi4/basis/cc-pvdz-jkfit.gbs 
    atoms 12-14, 16-24 entry H          line    51 file /home/liuchw/anaconda3/envs/poltype2022/share/psi4/basis/cc-pvdz-jkfit.gbs 

  ==> Integral Setup <==

  DFHelper Memory: AOs need 0.369 GiB; user supplied 13.970 GiB. Using in-core AOs.

  ==> MemDFJK: Density-Fitted J/K Matrices <==

    J tasked:                   Yes
    K tasked:                   Yes
    wK tasked:                   No
    OpenMP threads:               5
    Memory [MiB]:             14305
    Algorithm:                 Core
    Schwarz Cutoff:           1E-12
    Mask sparsity (%):      12.2165
    Fitting Condition:        1E-10

   => Auxiliary Basis Set <=

  Basis Set: (ANONYMOUS065EE44E AUX)
    Blend: CC-PVDZ-JKFIT
    Number of shells: 396
    Number of basis functions: 1272
    Number of Cartesian functions: 1272
    Spherical Harmonics?: false
    Max angular momentum: 3

  Minimum eigenvalue in the overlap matrix is 4.5776899062E-04.
  Reciprocal condition number of the overlap matrix is 5.9185515379E-05.
    Using symmetric orthogonalization.

  ==> Pre-Iterations <==

  SCF Guess: Superposition of Atomic Densities via on-the-fly atomic UHF (no occupation information).

   -------------------------
    Irrep   Nso     Nmo    
   -------------------------
     A        204     204 
   -------------------------
    Total     204     204
   -------------------------

  ==> Iterations <==

                           Total Energy        Delta E     RMS |[F,P]|

   @DF-RHF iter SAD:  -530.34516565957529   -5.30345e+02   0.00000e+00 
   @DF-RHF iter   1:  -531.28216957584209   -9.37004e-01   3.38784e-03 DIIS/ADIIS
   @DF-RHF iter   2:  -531.47345439938044   -1.91285e-01   2.12360e-03 DIIS/ADIIS
   @DF-RHF iter   3:  -531.54446582235857   -7.10114e-02   4.72341e-04 DIIS/ADIIS
   @DF-RHF iter   4:  -531.54964308426327   -5.17726e-03   1.67806e-04 DIIS/ADIIS
   @DF-RHF iter   5:  -531.55031426805328   -6.71184e-04   3.03479e-05 DIIS
   @DF-RHF iter   6:  -531.55036027284461   -4.60048e-05   1.54277e-05 DIIS
   @DF-RHF iter   7:  -531.55037077085240   -1.04980e-05   5.89728e-06 DIIS
   @DF-RHF iter   8:  -531.55037283021625   -2.05936e-06   2.41396e-06 DIIS
   @DF-RHF iter   9:  -531.55037314231367   -3.12097e-07   8.91902e-07 DIIS
   @DF-RHF iter  10:  -531.55037317972051   -3.74068e-08   2.24861e-07 DIIS
   @DF-RHF iter  11:  -531.55037318268455   -2.96404e-09   8.86550e-08 DIIS
   @DF-RHF iter  12:  -531.55037318306347   -3.78918e-10   3.08503e-08 DIIS
   @DF-RHF iter  13:  -531.55037318311656   -5.30918e-11   1.16104e-08 DIIS
   @DF-RHF iter  14:  -531.55037318312611   -9.54969e-12   5.27703e-09 DIIS
   @DF-RHF iter  15:  -531.55037318312941   -3.29692e-12   2.34428e-09 DIIS
   @DF-RHF iter  16:  -531.55037318312998   -5.68434e-13   1.05915e-09 DIIS
   @DF-RHF iter  17:  -531.55037318313043   -4.54747e-13   3.79993e-10 DIIS
   @DF-RHF iter  18:  -531.55037318312998    4.54747e-13   1.20218e-10 DIIS
   @DF-RHF iter  19:  -531.55037318313020   -2.27374e-13   5.10084e-11 DIIS
  Energy and wave function converged.


  ==> Post-Iterations <==

    Orbital Energies [Eh]
    ---------------------

    Doubly Occupied:                                                      

       1A    -20.532927     2A    -15.611433     3A    -15.545156  
       4A    -11.359083     5A    -11.282800     6A    -11.280434  
       7A    -11.273227     8A    -11.235793     9A    -11.234228  
      10A    -11.230979    11A    -11.227104    12A    -11.223258  
      13A     -1.385734    14A     -1.264167    15A     -1.184748  
      16A     -1.138582    17A     -1.017883    18A     -1.012477  
      19A     -0.969508    20A     -0.937234    21A     -0.837686  
      22A     -0.819110    23A     -0.754806    24A     -0.697767  
      25A     -0.695050    26A     -0.683566    27A     -0.663240  
      28A     -0.644724    29A     -0.624027    30A     -0.608816  
      31A     -0.590325    32A     -0.580638    33A     -0.573739  
      34A     -0.561412    35A     -0.551637    36A     -0.525635  
      37A     -0.508986    38A     -0.495868    39A     -0.491871  
      40A     -0.429991    41A     -0.415140    42A     -0.394406  
      43A     -0.330254    44A     -0.303341  

    Virtual:                                                              

      45A      0.139332    46A      0.146637    47A      0.198479  
      48A      0.220172    49A      0.234491    50A      0.247483  
      51A      0.261464    52A      0.292502    53A      0.300645  
      54A      0.308039    55A      0.316649    56A      0.323121  
      57A      0.336306    58A      0.345105    59A      0.359492  
      60A      0.366437    61A      0.383293    62A      0.405474  
      63A      0.436707    64A      0.468735    65A      0.480549  
      66A      0.501586    67A      0.511222    68A      0.540127  
      69A      0.558593    70A      0.592804    71A      0.679966  
      72A      0.713462    73A      0.722881    74A      0.744100  
      75A      0.755739    76A      0.762403    77A      0.783693  
      78A      0.794761    79A      0.820717    80A      0.828180  
      81A      0.830041    82A      0.837668    83A      0.841308  
      84A      0.846477    85A      0.849538    86A      0.860887  
      87A      0.882468    88A      0.918010    89A      0.928367  
      90A      0.939246    91A      0.944941    92A      0.988339  
      93A      0.996725    94A      1.004801    95A      1.021576  
      96A      1.065418    97A      1.094116    98A      1.103070  
      99A      1.109815   100A      1.116808   101A      1.118089  
     102A      1.129520   103A      1.140414   104A      1.147126  
     105A      1.162302   106A      1.172416   107A      1.182423  
     108A      1.189938   109A      1.208506   110A      1.219186  
     111A      1.228111   112A      1.239502   113A      1.245138  
     114A      1.263938   115A      1.282667   116A      1.321497  
     117A      1.339730   118A      1.343373   119A      1.390496  
     120A      1.397411   121A      1.454017   122A      1.476206  
     123A      1.488681   124A      1.508592   125A      1.572289  
     126A      1.610779   127A      1.633340   128A      1.659047  
     129A      1.680839   130A      1.704745   131A      1.717888  
     132A      1.725365   133A      1.750859   134A      1.768830  
     135A      1.785805   136A      1.805857   137A      1.834199  
     138A      1.884663   139A      1.915422   140A      2.023756  
     141A      2.033866   142A      2.069761   143A      2.075493  
     144A      2.104543   145A      2.121783   146A      2.137847  
     147A      2.181142   148A      2.185450   149A      2.215351  
     150A      2.263099   151A      2.278255   152A      2.303091  
     153A      2.318468   154A      2.327827   155A      2.356665  
     156A      2.398839   157A      2.406644   158A      2.418618  
     159A      2.452895   160A      2.463579   161A      2.472188  
     162A      2.475854   163A      2.500766   164A      2.529889  
     165A      2.541148   166A      2.588195   167A      2.606632  
     168A      2.640289   169A      2.647423   170A      2.661332  
     171A      2.723803   172A      2.730011   173A      2.776825  
     174A      2.784910   175A      2.841961   176A      2.863695  
     177A      2.904697   178A      2.937898   179A      2.987793  
     180A      3.008334   181A      3.018553   182A      3.054578  
     183A      3.101353   184A      3.111268   185A      3.131223  
     186A      3.176714   187A      3.192411   188A      3.321037  
     189A      3.374868   190A      3.427927   191A      3.666013  
     192A      3.814447   193A      4.216399   194A      4.475145  
     195A      4.501399   196A      4.521326   197A      4.549055  
     198A      4.586268   199A      4.695610   200A      4.764353  
     201A      4.788086   202A      4.803572   203A      4.944114  
     204A      5.163814  

    Final Occupation by Irrep:
              A 
    DOCC [    44 ]

  @DF-RHF Final Energy:  -531.55037318313020

   => Energetics <=

    Nuclear Repulsion Energy =            682.4716570576288177
    One-Electron Energy =               -2076.5864786314159574
    Two-Electron Energy =                 862.5644483906569349
    Total Energy =                       -531.5503731831302048

Computation Completed


Properties will be evaluated at   0.000000,   0.000000,   0.000000 [a0]

Properties computed using the SCF density matrix


 Multipole Moments:

 ------------------------------------------------------------------------------------
     Multipole            Electronic (a.u.)      Nuclear  (a.u.)        Total (a.u.)
 ------------------------------------------------------------------------------------

 L = 1.  Multiply by 2.5417464519 to convert [e a0] to [Debye]
 Dipole X            :         -1.3939199            0.7711964           -0.6227234
 Dipole Y            :          1.3586096           -1.9010880           -0.5424785
 Dipole Z            :         -4.8598127            5.8350192            0.9752064
 Magnitude           :                                                    1.2779260

 ------------------------------------------------------------------------------------

*** tstop() called on node165.bme.utexas.edu at Sat Nov 18 08:04:30 2023
Module time:
	user time   =      16.49 seconds =       0.27 minutes
	system time =       1.39 seconds =       0.02 minutes
	total time  =          4 seconds =       0.07 minutes
Total time:
	user time   =     184.71 seconds =       3.08 minutes
	system time =      14.60 seconds =       0.24 minutes
	total time  =         44 seconds =       0.73 minutes

*** tstart() called on node165.bme.utexas.edu
*** at Sat Nov 18 08:04:30 2023


  //>>>>>>>>>>>>>>>>>>>>>>>>>>>>>>>>>>>//
  //               DFMP2               //
  //<<<<<<<<<<<<<<<<<<<<<<<<<<<<<<<<<<<//

   => Loading Basis Set <=

    Name: (ANONYMOUS065EE44E AUX)
    Role: RIFIT
    Keyword: DF_BASIS_MP2
    atoms 1, 3-5, 7-11 entry C          line   159 file /home/liuchw/anaconda3/envs/poltype2022/share/psi4/basis/cc-pvdz-ri.gbs 
    atoms 2, 15        entry N          line   197 file /home/liuchw/anaconda3/envs/poltype2022/share/psi4/basis/cc-pvdz-ri.gbs 
    atoms 6            entry O          line   235 file /home/liuchw/anaconda3/envs/poltype2022/share/psi4/basis/cc-pvdz-ri.gbs 
    atoms 12-14, 16-24 entry H          line    19 file /home/liuchw/anaconda3/envs/poltype2022/share/psi4/basis/cc-pvdz-ri.gbs 

	 --------------------------------------------------------
	                          DF-MP2                         
	      2nd-Order Density-Fitted Moller-Plesset Theory     
	              RMP2 Wavefunction,   5 Threads             
	                                                         
	        Rob Parrish, Justin Turney, Andy Simmonett,      
	           Ed Hohenstein, and C. David Sherrill          
	 --------------------------------------------------------

   => Auxiliary Basis Set <=

  Basis Set: (ANONYMOUS065EE44E AUX)
    Blend: CC-PVDZ-RI
    Number of shells: 288
    Number of basis functions: 840
    Number of Cartesian functions: 972
    Spherical Harmonics?: true
    Max angular momentum: 3

	 --------------------------------------------------------
	                 NBF =   204, NAUX =   840
	 --------------------------------------------------------
	   CLASS    FOCC     OCC    AOCC    AVIR     VIR    FVIR
	   PAIRS       0      44      44     160     160       0
	 --------------------------------------------------------

  DFHelper Memory: AOs need 0.369 GiB; user supplied 13.970 GiB. Using in-core AOs.


         ------------------------------------------------------------
                                     CPHF                           
                                  Rob Parrish                       
         ------------------------------------------------------------

  ==> Geometry <==

    Molecular point group: c1
    Full point group: C1

    Geometry (in Angstrom), charge = 0, multiplicity = 1:

       Center              X                  Y                   Z               Mass       
    ------------   -----------------  -----------------  -----------------  -----------------
         C           -0.832361761448    -0.187409042623    -0.041672326414    12.000000000000
         N            0.358860375621    -0.366328792871     0.719438634227    14.003074004430
         C            1.573580050491     0.107360397693     0.262573328752    12.000000000000
         C            2.798586056220    -0.044317278355     1.191702193376    12.000000000000
         C            0.239762638089    -0.972099192972     2.043186186453    12.000000000000
         O            1.706078413698     0.652115721087    -0.830921775514    15.994914619570
         C           -2.066351147355    -0.160608399479     0.628499220936    12.000000000000
         C           -3.219658146290     0.163825459555    -1.465840710165    12.000000000000
         C           -3.251751789783     0.005988152404    -0.084224999196    12.000000000000
         C           -1.999432785120     0.104429169150    -2.134189476119    12.000000000000
         C           -0.804221306810    -0.062987881830    -1.438543876719    12.000000000000
         H            1.178068472184    -1.444565219264     2.326590540021     1.007825032230
         H           -0.516946745653    -1.755050143771     2.006300718419     1.007825032230
         H           -0.026907778666    -0.237473329062     2.810696181406     1.007825032230
         N            3.968606075263     0.658207252577     0.703822813911    14.003074004430
         H            3.043822766314    -1.110987839738     1.252382664902     1.007825032230
         H            2.564727250264     0.319215082960     2.194325417177     1.007825032230
         H           -2.128742649750    -0.240175889633     1.707851855615     1.007825032230
         H           -4.194462462431     0.020409701676     0.456887794407     1.007825032230
         H           -1.963030338701     0.182041365953    -3.217622430225     1.007825032230
         H            0.122138831298    -0.128777700216    -1.989968764352     1.007825032230
         H            4.103804651775     0.413626797657    -0.272607362867     1.007825032230
         H           -4.138983627492     0.333836037999    -2.018003880182     1.007825032230
         H            3.794807886988     1.656725376460     0.746533256263     1.007825032230

  Nuclear repulsion =  682.471657057628818
  Reference energy  = -531.550373183130205

  ==> Basis Set <==

  Basis Set: ANONYMOUS065EE44E
    Blend: 6-31G*
    Number of shells: 96
    Number of basis functions: 204
    Number of Cartesian functions: 204
    Spherical Harmonics?: false
    Max angular momentum: 2

  ==> CGRSolver (by Rob Parrish) <==

   Number of roots    =         1
   Preconditioning    =    JACOBI
   Convergence cutoff =     1E-06
   Maximum iterations =       100

  ==> CPHFRHamiltonian (by Rob Parrish) <== 

  ==> MemDFJK: Density-Fitted J/K Matrices <==

    J tasked:                   Yes
    K tasked:                   Yes
    wK tasked:                   No
    OpenMP threads:               5
    Memory [MiB]:             14305
    Algorithm:                 Core
    Schwarz Cutoff:           1E-12
    Mask sparsity (%):      12.2165
    Fitting Condition:        1E-10

   => Auxiliary Basis Set <=

  Basis Set: (ANONYMOUS065EE44E AUX)
    Blend: CC-PVDZ-JKFIT
    Number of shells: 396
    Number of basis functions: 1272
    Number of Cartesian functions: 1272
    Spherical Harmonics?: false
    Max angular momentum: 3

  ==> CPHF Iterations <==

  => Iterations <=

             Iter  Converged  Remaining    Residual
  CGR           1          0          1   1.309E-01
  CGR           2          0          1   3.835E-02
  CGR           3          0          1   1.527E-02
  CGR           4          0          1   5.306E-03
  CGR           5          0          1   2.047E-03
  CGR           6          0          1   1.115E-03
  CGR           7          0          1   5.093E-04
  CGR           8          0          1   1.718E-04
  CGR           9          0          1   4.442E-05
  CGR          10          0          1   1.578E-05
  CGR          11          0          1   4.670E-06
  CGR          12          0          1   1.835E-06
  CGR          13          1          0   9.508E-07

    CGRSolver converged.

  ==> DFCorrGrad: Density-Fitted Correlated Gradients <==

    OpenMP threads:              5
    Integrals threads:           5
    Memory [GiB]:           13.970
    Schwarz Cutoff:          0E+00
    Fitting Condition:       1E-10

   => Auxiliary Basis Set <=

  Basis Set: (ANONYMOUS065EE44E AUX)
    Blend: CC-PVDZ-JKFIT
    Number of shells: 396
    Number of basis functions: 1272
    Number of Cartesian functions: 1272
    Spherical Harmonics?: false
    Max angular momentum: 3

	-----------------------------------------------------------
	 ==================> DF-MP2 Energies <==================== 
	-----------------------------------------------------------
	 Reference Energy          =    -531.5503731831302048 [Eh]
	 Singles Energy            =      -0.0000000000000000 [Eh]
	 Same-Spin Energy          =      -0.4524964161405745 [Eh]
	 Opposite-Spin Energy      =      -1.2531829882366718 [Eh]
	 Correlation Energy        =      -1.7056794043772463 [Eh]
	 Total Energy              =    -533.2560525875074973 [Eh]
	-----------------------------------------------------------
	 ================> DF-SCS-MP2 Energies <================== 
	-----------------------------------------------------------
	 SCS Same-Spin Scale       =       0.3333333333333333 [-]
	 SCS Opposite-Spin Scale   =       1.2000000000000000 [-]
	 SCS Same-Spin Energy      =      -0.1508321387135248 [Eh]
	 SCS Opposite-Spin Energy  =      -1.5038195858840062 [Eh]
	 SCS Correlation Energy    =      -1.6546517245975310 [Eh]
	 SCS Total Energy          =    -533.2050249077277613 [Eh]
	-----------------------------------------------------------


  -Total Gradient:
     Atom            X                  Y                   Z
    ------   -----------------  -----------------  -----------------
       1       -0.001115085887    -0.000158990010    -0.004340761122
       2       -0.000752632849     0.003410276876     0.002431338234
       3        0.000811862309    -0.002942651654    -0.008311633558
       4        0.002843793463     0.000084296807     0.008011916023
       5       -0.002526192982     0.000376757428     0.000799507803
       6       -0.006650256909    -0.003034695648     0.003307407697
       7        0.000868104338    -0.001100132823     0.001298224215
       8        0.003591635149    -0.000261518367     0.002122550488
       9       -0.002209949313    -0.000753848117    -0.000561596110
      10       -0.000726648862    -0.000440705591    -0.001557944771
      11        0.004321591361     0.004460670858     0.004200754242
      12       -0.000188042961    -0.000469679423     0.000422768313
      13        0.001301941673    -0.000402078947    -0.000154963517
      14        0.001114655153     0.000624208700    -0.000357793316
      15       -0.002937698006     0.005147810521    -0.007611161552
[...]
   @DF-RHF iter  14:  -531.55404427337555   -2.48974e-11   7.51435e-09 DIIS
   @DF-RHF iter  15:  -531.55404427338135   -5.79803e-12   3.01282e-09 DIIS
   @DF-RHF iter  16:  -531.55404427338226   -9.09495e-13   1.22266e-09 DIIS
   @DF-RHF iter  17:  -531.55404427338249   -2.27374e-13   3.86087e-10 DIIS
   @DF-RHF iter  18:  -531.55404427338340   -9.09495e-13   1.43353e-10 DIIS
   @DF-RHF iter  19:  -531.55404427338294    4.54747e-13   6.13598e-11 DIIS
  Energy and wave function converged.


  ==> Post-Iterations <==

    Orbital Energies [Eh]
    ---------------------

    Doubly Occupied:                                                      

       1A    -20.530705     2A    -15.605336     3A    -15.546185  
       4A    -11.356564     5A    -11.279866     6A    -11.278921  
       7A    -11.270944     8A    -11.238814     9A    -11.237568  
      10A    -11.235574    11A    -11.233091    12A    -11.231546  
      13A     -1.379929    14A     -1.261874    15A     -1.183193  
      16A     -1.141325    17A     -1.019087    18A     -1.015129  
      19A     -0.969522    20A     -0.936445    21A     -0.836118  
      22A     -0.824586    23A     -0.753831    24A     -0.695994  
      25A     -0.692124    26A     -0.681620    27A     -0.662952  
      28A     -0.645022    29A     -0.621731    30A     -0.609292  
      31A     -0.588135    32A     -0.584607    33A     -0.573227  
      34A     -0.558079    35A     -0.552386    36A     -0.517320  
      37A     -0.510689    38A     -0.495760    39A     -0.494428  
      40A     -0.433264    41A     -0.404098    42A     -0.399045  
      43A     -0.333422    44A     -0.313027  

    Virtual:                                                              

      45A      0.137746    46A      0.144089    47A      0.192928  
      48A      0.215606    49A      0.237088    50A      0.242567  
      51A      0.260836    52A      0.286137    53A      0.296008  
      54A      0.305068    55A      0.319224    56A      0.324824  
      57A      0.327831    58A      0.339488    59A      0.360556  
      60A      0.363098    61A      0.383905    62A      0.413517  
      63A      0.436605    64A      0.462333    65A      0.475932  
      66A      0.492335    67A      0.512423    68A      0.540902  
      69A      0.554682    70A      0.591125    71A      0.661155  
      72A      0.712496    73A      0.725926    74A      0.739392  
      75A      0.756186    76A      0.761390    77A      0.785691  
      78A      0.788502    79A      0.809755    80A      0.817749  
      81A      0.823321    82A      0.836554    83A      0.840042  
      84A      0.844458    85A      0.855018    86A      0.856153  
      87A      0.884471    88A      0.912521    89A      0.923986  
      90A      0.936071    91A      0.944454    92A      0.973833  
      93A      0.997252    94A      1.004345    95A      1.018904  
      96A      1.066668    97A      1.091694    98A      1.099608  
      99A      1.104293   100A      1.110638   101A      1.115578  
     102A      1.121400   103A      1.140769   104A      1.144233  
     105A      1.157579   106A      1.169411   107A      1.178432  
     108A      1.195818   109A      1.200179   110A      1.213800  
     111A      1.220430   112A      1.233233   113A      1.241524  
     114A      1.262219   115A      1.270316   116A      1.300229  
     117A      1.323197   118A      1.339110   119A      1.363027  
     120A      1.393210   121A      1.404130   122A      1.449121  
     123A      1.461362   124A      1.500108   125A      1.563187  
     126A      1.614070   127A      1.630297   128A      1.651816  
     129A      1.686069   130A      1.695834   131A      1.713861  
     132A      1.733221   133A      1.762084   134A      1.772163  
     135A      1.783248   136A      1.797849   137A      1.844450  
     138A      1.879849   139A      1.959798   140A      2.006634  
     141A      2.038715   142A      2.067026   143A      2.081037  
     144A      2.095519   145A      2.117486   146A      2.136936  
     147A      2.177294   148A      2.186690   149A      2.213941  
     150A      2.263586   151A      2.284853   152A      2.297364  
     153A      2.313856   154A      2.315182   155A      2.343116  
     156A      2.394660   157A      2.399377   158A      2.411104  
     159A      2.435628   160A      2.458027   161A      2.471957  
     162A      2.479927   163A      2.494291   164A      2.528336  
     165A      2.540627   166A      2.576832   167A      2.621023  
     168A      2.635030   169A      2.641455   170A      2.668208  
     171A      2.695110   172A      2.740865   173A      2.773243  
     174A      2.794522   175A      2.856598   176A      2.868869  
     177A      2.911880   178A      2.933821   179A      2.967840  
     180A      3.001132   181A      3.011637   182A      3.074378  
     183A      3.097906   184A      3.103579   185A      3.108346  
     186A      3.179465   187A      3.195433   188A      3.318804  
     189A      3.396441   190A      3.442640   191A      3.620789  
     192A      3.806950   193A      4.210832   194A      4.457111  
     195A      4.498339   196A      4.520148   197A      4.551595  
     198A      4.584631   199A      4.689841   200A      4.751718  
     201A      4.792887   202A      4.816233   203A      4.945874  
     204A      5.167971  

    Final Occupation by Irrep:
              A 
    DOCC [    44 ]

  @DF-RHF Final Energy:  -531.55404427338294

   => Energetics <=

    Nuclear Repulsion Energy =            682.2360258515255964
    One-Electron Energy =               -2076.1153932445022292
    Two-Electron Energy =                 862.3253231195938042
    Total Energy =                       -531.5540442733829423

Computation Completed


Properties will be evaluated at   0.000000,   0.000000,   0.000000 [a0]

Properties computed using the SCF density matrix


 Multipole Moments:

 ------------------------------------------------------------------------------------
     Multipole            Electronic (a.u.)      Nuclear  (a.u.)        Total (a.u.)
 ------------------------------------------------------------------------------------

 L = 1.  Multiply by 2.5417464519 to convert [e a0] to [Debye]
 Dipole X            :         -0.7028879           -0.0627577           -0.7656456
 Dipole Y            :         -3.2029587            2.4310117           -0.7719470
 Dipole Z            :         -7.3360514            8.1497705            0.8137191
 Magnitude           :                                                    1.3580332

 ------------------------------------------------------------------------------------

*** tstop() called on node165.bme.utexas.edu at Sat Nov 18 08:09:58 2023
Module time:
	user time   =      25.60 seconds =       0.43 minutes
	system time =       2.67 seconds =       0.04 minutes
	total time  =         10 seconds =       0.17 minutes
Total time:
	user time   =    1245.27 seconds =      20.75 minutes
	system time =     103.34 seconds =       1.72 minutes
	total time  =        372 seconds =       6.20 minutes

*** tstart() called on node165.bme.utexas.edu
*** at Sat Nov 18 08:09:58 2023


  //>>>>>>>>>>>>>>>>>>>>>>>>>>>>>>>>>>>//
  //               DFMP2               //
  //<<<<<<<<<<<<<<<<<<<<<<<<<<<<<<<<<<<//

   => Loading Basis Set <=

    Name: (ANONYMOUS065EE44E AUX)
    Role: RIFIT
    Keyword: DF_BASIS_MP2
    atoms 1, 3-5, 7-11 entry C          line   159 file /home/liuchw/anaconda3/envs/poltype2022/share/psi4/basis/cc-pvdz-ri.gbs 
    atoms 2, 15        entry N          line   197 file /home/liuchw/anaconda3/envs/poltype2022/share/psi4/basis/cc-pvdz-ri.gbs 
    atoms 6            entry O          line   235 file /home/liuchw/anaconda3/envs/poltype2022/share/psi4/basis/cc-pvdz-ri.gbs 
    atoms 12-14, 16-24 entry H          line    19 file /home/liuchw/anaconda3/envs/poltype2022/share/psi4/basis/cc-pvdz-ri.gbs 

	 --------------------------------------------------------
	                          DF-MP2                         
	      2nd-Order Density-Fitted Moller-Plesset Theory     
	              RMP2 Wavefunction,   5 Threads             
	                                                         
	        Rob Parrish, Justin Turney, Andy Simmonett,      
	           Ed Hohenstein, and C. David Sherrill          
	 --------------------------------------------------------

   => Auxiliary Basis Set <=

  Basis Set: (ANONYMOUS065EE44E AUX)
    Blend: CC-PVDZ-RI
    Number of shells: 288
    Number of basis functions: 840
    Number of Cartesian functions: 972
    Spherical Harmonics?: true
    Max angular momentum: 3

	 --------------------------------------------------------
	                 NBF =   204, NAUX =   840
	 --------------------------------------------------------
	   CLASS    FOCC     OCC    AOCC    AVIR     VIR    FVIR
	   PAIRS       0      44      44     160     160       0
	 --------------------------------------------------------

  DFHelper Memory: AOs need 0.370 GiB; user supplied 13.970 GiB. Using in-core AOs.


         ------------------------------------------------------------
                                     CPHF                           
                                  Rob Parrish                       
         ------------------------------------------------------------

  ==> Geometry <==

    Molecular point group: c1
    Full point group: C1

    Geometry (in Angstrom), charge = 0, multiplicity = 1:

       Center              X                  Y                   Z               Mass       
    ------------   -----------------  -----------------  -----------------  -----------------
         C           -0.819055689664    -0.213333199835    -0.055577211470    12.000000000000
         N            0.385470195729    -0.449872300041     0.668656155130    14.003074004430
         C            1.539263833596     0.219103421829     0.313535118328    12.000000000000
         C            2.766298215378     0.009549844494     1.208936809397    12.000000000000
         C            0.289526074485    -1.205837311119     1.914157369429    12.000000000000
         O            1.613468809092     0.941949673900    -0.681740428452    15.994914619570
         C           -1.994026225689     0.095043875242     0.637346676680    12.000000000000
         C           -3.209552711780     0.179333004463    -1.450426182868    12.000000000000
         C           -3.185958157823     0.283252207044    -0.060698543074    12.000000000000
         C           -2.032627911962    -0.119978048426    -2.138248151765    12.000000000000
         C           -0.840012650008    -0.325285453172    -1.449664651163    12.000000000000
         H            1.197123370741    -1.787582612736     2.075515364094     1.007825032230
         H           -0.545598925483    -1.900865028972     1.823805115802     1.007825032230
         H            0.122606463197    -0.565836389265     2.788522542340     1.007825032230
         N            3.913403402604     0.812630094461     0.819819588169    14.003074004430
         H            3.055397741859    -1.048217498709     1.183353732273     1.007825032230
         H            2.516920027608     0.234421565489     2.251585933410     1.007825032230
         H           -1.976557127159     0.204361346800     1.718400408782     1.007825032230
         H           -4.094893744299     0.522085348273     0.485570490718     1.007825032230
         H           -2.042845061660    -0.205300137277    -3.221805832739     1.007825032230
         H            0.073281592303    -0.562381306390    -1.982445296329     1.007825032230
         H            4.071152817302     0.663632136475    -0.176564822231     1.007825032230
         H           -4.137727820838     0.331797366601    -1.994470869511     1.007825032230
         H            3.644936416093     1.794329203264     0.879631891426     1.007825032230

  Nuclear repulsion =  682.236025851525596
  Reference energy  = -531.554044273382942

  ==> Basis Set <==

  Basis Set: ANONYMOUS065EE44E
    Blend: 6-31G*
    Number of shells: 96
    Number of basis functions: 204
    Number of Cartesian functions: 204
    Spherical Harmonics?: false
    Max angular momentum: 2

  ==> CGRSolver (by Rob Parrish) <==

   Number of roots    =         1
   Preconditioning    =    JACOBI
   Convergence cutoff =     1E-06
   Maximum iterations =       100

  ==> CPHFRHamiltonian (by Rob Parrish) <== 

  ==> MemDFJK: Density-Fitted J/K Matrices <==

    J tasked:                   Yes
    K tasked:                   Yes
    wK tasked:                   No
    OpenMP threads:               5
    Memory [MiB]:             14305
    Algorithm:                 Core
    Schwarz Cutoff:           1E-12
    Mask sparsity (%):      11.9137
    Fitting Condition:        1E-10

   => Auxiliary Basis Set <=

  Basis Set: (ANONYMOUS065EE44E AUX)
    Blend: CC-PVDZ-JKFIT
    Number of shells: 396
    Number of basis functions: 1272
    Number of Cartesian functions: 1272
    Spherical Harmonics?: false
    Max angular momentum: 3

  ==> CPHF Iterations <==

  => Iterations <=

             Iter  Converged  Remaining    Residual
  CGR           1          0          1   1.298E-01
  CGR           2          0          1   3.781E-02
  CGR           3          0          1   1.437E-02
  CGR           4          0          1   4.602E-03
  CGR           5          0          1   1.510E-03
  CGR           6          0          1   6.960E-04
  CGR           7          0          1   3.655E-04
  CGR           8          0          1   1.510E-04
  CGR           9          0          1   4.147E-05
  CGR          10          0          1   1.405E-05
  CGR          11          0          1   3.945E-06
  CGR          12          0          1   1.449E-06
  CGR          13          1          0   7.883E-07

    CGRSolver converged.

  ==> DFCorrGrad: Density-Fitted Correlated Gradients <==

    OpenMP threads:              5
    Integrals threads:           5
    Memory [GiB]:           13.970
    Schwarz Cutoff:          0E+00
    Fitting Condition:       1E-10

   => Auxiliary Basis Set <=

  Basis Set: (ANONYMOUS065EE44E AUX)
    Blend: CC-PVDZ-JKFIT
    Number of shells: 396
    Number of basis functions: 1272
    Number of Cartesian functions: 1272
    Spherical Harmonics?: false
    Max angular momentum: 3

	-----------------------------------------------------------
	 ==================> DF-MP2 Energies <==================== 
	-----------------------------------------------------------
	 Reference Energy          =    -531.5540442733829423 [Eh]
	 Singles Energy            =      -0.0000000000000000 [Eh]
	 Same-Spin Energy          =      -0.4519329647300782 [Eh]
	 Opposite-Spin Energy      =      -1.2533549395189998 [Eh]
	 Correlation Energy        =      -1.7052879042490781 [Eh]
	 Total Energy              =    -533.2593321776320181 [Eh]
	-----------------------------------------------------------
	 ================> DF-SCS-MP2 Energies <================== 
	-----------------------------------------------------------
	 SCS Same-Spin Scale       =       0.3333333333333333 [-]
	 SCS Opposite-Spin Scale   =       1.2000000000000000 [-]
	 SCS Same-Spin Energy      =      -0.1506443215766927 [Eh]
	 SCS Opposite-Spin Energy  =      -1.5040259274227996 [Eh]
	 SCS Correlation Energy    =      -1.6546702489994922 [Eh]
	 SCS Total Energy          =    -533.2087145223824791 [Eh]
	-----------------------------------------------------------


  -Total Gradient:
     Atom            X                  Y                   Z
    ------   -----------------  -----------------  -----------------
       1       -0.000049202516    -0.000100440874     0.000043784978
       2        0.000017669743     0.000026749306    -0.000137804766
       3       -0.000022409753     0.000036808704     0.000107608796
       4        0.000045731545     0.000047405163    -0.000014459884
       5       -0.000002812029     0.000030255688    -0.000037146305
       6       -0.000038414705    -0.000085368033     0.000012673842
       7       -0.000015698156     0.000090331335    -0.000064367002
       8        0.000078204007     0.000040410626     0.000038253649
       9       -0.000065231791    -0.000038179464     0.000063168074
      10       -0.000001842384    -0.000083560949    -0.000003337425
      11        0.000026669508     0.000086801994    -0.000005620762
      12        0.000009857529    -0.000004965830    -0.000014160182
      13       -0.000027769169     0.000006928723    -0.000004085013
      14        0.000002959767     0.000011745964    -0.000008344427
      15        0.000055728078    -0.000039002842    -0.000021015136
      16       -0.000000595406    -0.000036515479     0.000039571591
      17       -0.000037027787    -0.000018927213    -0.000002310728
      18       -0.000004644923    -0.000027220226     0.000015305292
      19       -0.000006813824     0.000008321222     0.000003312527
      20        0.000013106335     0.000022335989    -0.000003817754
      21        0.000008459653    -0.000037747534    -0.000010983618
      22       -0.000010852858     0.000043734751    -0.000030088301
      23        0.000002017939    -0.000010472423     0.000003407631
      24        0.000022911200     0.000030571403     0.000030454920


*** tstop() called on node165.bme.utexas.edu at Sat Nov 18 08:10:16 2023
Module time:
	user time   =      59.03 seconds =       0.98 minutes
	system time =       5.13 seconds =       0.09 minutes
	total time  =         18 seconds =       0.30 minutes
Total time:
	user time   =    1304.31 seconds =      21.74 minutes
	system time =     108.47 seconds =       1.81 minutes
	total time  =        390 seconds =       6.50 minutes

     15  -5.33259332e+02   -2.29e-06 *    1.41e-04 *    7.37e-05 *    6.58e-03 *    2.84e-03 *  ~

  Optimization converged!                                                                       ~

  Final Energy : -533.259332177632 

  Final Geometry : 
    Molecular point group: c1
    Full point group: C1

    Geometry (in Angstrom), charge = 0, multiplicity = 1:

    C           -0.819055689664    -0.213333199835    -0.055577211470
    N            0.385470195729    -0.449872300041     0.668656155130
    C            1.539263833596     0.219103421829     0.313535118328
    C            2.766298215378     0.009549844494     1.208936809397
    C            0.289526074485    -1.205837311119     1.914157369429
    O            1.613468809092     0.941949673900    -0.681740428452
    C           -1.994026225689     0.095043875242     0.637346676680
    C           -3.209552711780     0.179333004463    -1.450426182868
    C           -3.185958157823     0.283252207044    -0.060698543074
    C           -2.032627911962    -0.119978048426    -2.138248151765
    C           -0.840012650008    -0.325285453172    -1.449664651163
    H            1.197123370741    -1.787582612736     2.075515364094
    H           -0.545598925483    -1.900865028972     1.823805115802
    H            0.122606463197    -0.565836389265     2.788522542340
    N            3.913403402604     0.812630094461     0.819819588169
    H            3.055397741859    -1.048217498709     1.183353732273
    H            2.516920027608     0.234421565489     2.251585933410
    H           -1.976557127159     0.204361346800     1.718400408782
    H           -4.094893744299     0.522085348273     0.485570490718
    H           -2.042845061660    -0.205300137277    -3.221805832739
    H            0.073281592303    -0.562381306390    -1.982445296329
    H            4.071152817302     0.663632136475    -0.176564822231
    H           -4.137727820838     0.331797366601    -1.994470869511
    H            3.644936416093     1.794329203264     0.879631891426


    Psi4 stopped on: Saturday, 18 November 2023 08:10AM
    Psi4 wall time for execution: 0:06:30.28

*** Psi4 exiting successfully. Buy a developer a beer!
