Generated by Psi4
        SP                        DF-MP2                      6-311G**
Number of atoms                            I               24
Charge                                     I                0
Multiplicity                               I                1
Number of electrons                        I               88
Number of alpha electrons                  I               44
Number of beta electrons                   I               44
Number of basis functions                  I              288
Number of independent functions            I              288
Atomic numbers                             I   N=          24
           6           7           6           6           6           8
           6           6           6           6           6           1
           1           1           7           1           1           1
           1           1           1           1           1           1
Nuclear charges                            R   N=          24
  6.00000000e+00  7.00000000e+00  6.00000000e+00  6.00000000e+00  6.00000000e+00
  8.00000000e+00  6.00000000e+00  6.00000000e+00  6.00000000e+00  6.00000000e+00
  6.00000000e+00  1.00000000e+00  1.00000000e+00  1.00000000e+00  7.00000000e+00
  1.00000000e+00  1.00000000e+00  1.00000000e+00  1.00000000e+00  1.00000000e+00
  1.00000000e+00  1.00000000e+00  1.00000000e+00  1.00000000e+00
Current cartesian coordinates              R   N=          72
 -1.52555960e+00 -4.59231431e-01 -1.37822481e-01  7.50664437e-01 -9.06225548e-01
  1.23078023e+00  2.93101842e+00  3.57955351e-01  5.59698732e-01  5.24977735e+00
 -3.80435190e-02  2.25176270e+00  5.69356324e-01 -2.33479238e+00  3.58443642e+00
  3.07124550e+00  1.72393680e+00 -1.32109947e+00 -3.74593212e+00  1.23516784e-01
  1.17161389e+00 -6.04294427e+00  2.82800154e-01 -2.77370502e+00 -5.99835703e+00
  4.79178986e-01 -1.47500395e-01 -3.81887873e+00 -2.82815762e-01 -4.07350017e+00
 -1.56516251e+00 -6.70790529e-01 -2.77226594e+00  2.28446665e+00 -3.43413167e+00
  3.88935884e+00 -1.00880121e+00 -3.64820442e+00  3.41369540e+00  2.53923974e-01
 -1.12536592e+00  5.23674713e+00  7.41749199e+00  1.47955821e+00  1.51643772e+00
  5.79609627e+00 -2.03693410e+00  2.20341769e+00  4.77852087e+00  3.86902447e-01
  4.22208399e+00 -3.71292030e+00  3.30096866e-01  3.21450937e+00 -7.71599635e+00
  9.30508213e-01  8.84798470e-01 -3.83818635e+00 -4.44051143e-01 -6.12112743e+00
  1.60713477e-01 -1.11883676e+00 -3.77907544e+00  7.71559518e+00  1.19799288e+00
 -3.66455930e-01 -7.79694103e+00  5.70916042e-01 -3.80180048e+00  6.91016291e+00
  3.33470066e+00  1.62946659e+00
Integer atomic weights                     I   N=          24
          12          14          12          12          12          16
          12          12          12          12          12           1
           1           1          14           1           1           1
           1           1           1           1           1           1
Real atomic weights                        R   N=          24
  1.20000000e+01  1.40030740e+01  1.20000000e+01  1.20000000e+01  1.20000000e+01
  1.59949146e+01  1.20000000e+01  1.20000000e+01  1.20000000e+01  1.20000000e+01
  1.20000000e+01  1.00782503e+00  1.00782503e+00  1.00782503e+00  1.40030740e+01
  1.00782503e+00  1.00782503e+00  1.00782503e+00  1.00782503e+00  1.00782503e+00
  1.00782503e+00  1.00782503e+00  1.00782503e+00  1.00782503e+00
Number of primitive shells                 I              276
Number of contracted shells                I              144
Pure/Cartesian d shells                    I                0
Pure/Cartesian f shells                    I                0
Highest angular momentum                   I                2
Largest degree of contraction              I                6
Shell types                                I   N=         144
           0           0           1           0           1           0
           1          -2           0           0           1           0
           1           0           1          -2           0           0
           1           0           1           0           1          -2
           0           0           1           0           1           0
           1          -2           0           0           1           0
           1           0           1          -2           0           0
           1           0           1           0           1          -2
           0           0           1           0           1           0
           1          -2           0           0           1           0
           1           0           1          -2           0           0
           1           0           1           0           1          -2
           0           0           1           0           1           0
           1          -2           0           0           1           0
           1           0           1          -2           0           0
           0           1           0           0           0           1
           0           0           0           1           0           0
           1           0           1           0           1          -2
           0           0           0           1           0           0
           0           1           0           0           0           1
           0           0           0           1           0           0
           0           1           0           0           0           1
           0           0           0           1           0           0
           0           1           0           0           0           1
Number of primitives per shell             I   N=         144
           6           3           3           1           1           1
           1           1           6           3           3           1
           1           1           1           1           6           3
           3           1           1           1           1           1
           6           3           3           1           1           1
           1           1           6           3           3           1
           1           1           1           1           6           3
           3           1           1           1           1           1
           6           3           3           1           1           1
           1           1           6           3           3           1
           1           1           1           1           6           3
           3           1           1           1           1           1
           6           3           3           1           1           1
           1           1           6           3           3           1
           1           1           1           1           3           1
           1           1           3           1           1           1
           3           1           1           1           6           3
           3           1           1           1           1           1
           3           1           1           1           3           1
           1           1           3           1           1           1
           3           1           1           1           3           1
           1           1           3           1           1           1
           3           1           1           1           3           1
           1           1           3           1           1           1
Shell to atom map                          I   N=         144
           1           1           1           1           1           1
           1           1           2           2           2           2
           2           2           2           2           3           3
           3           3           3           3           3           3
           4           4           4           4           4           4
           4           4           5           5           5           5
           5           5           5           5           6           6
           6           6           6           6           6           6
           7           7           7           7           7           7
           7           7           8           8           8           8
           8           8           8           8           9           9
           9           9           9           9           9           9
          10          10          10          10          10          10
          10          10          11          11          11          11
          11          11          11          11          12          12
          12          12          13          13          13          13
          14          14          14          14          15          15
          15          15          15          15          15          15
          16          16          16          16          17          17
          17          17          18          18          18          18
          19          19          19          19          20          20
          20          20          21          21          21          21
          22          22          22          22          23          23
          23          23          24          24          24          24
Primitive exponents                        R   N=         276
  4.56324000e+03  6.82024000e+02  1.54973000e+02  4.44553000e+01  1.30290000e+01
  1.82773000e+00  2.09642000e+01  4.80331000e+00  1.45933000e+00  2.09642000e+01
  4.80331000e+00  1.45933000e+00  4.83456000e-01  4.83456000e-01  1.45585000e-01
  1.45585000e-01  6.26000000e-01  6.29348000e+03  9.49044000e+02  2.18776000e+02
  6.36916000e+01  1.88282000e+01  2.72023000e+00  3.06331000e+01  7.02614000e+00
  2.11205000e+00  3.06331000e+01  7.02614000e+00  2.11205000e+00  6.84009000e-01
  6.84009000e-01  2.00878000e-01  2.00878000e-01  9.13000000e-01  4.56324000e+03
  6.82024000e+02  1.54973000e+02  4.44553000e+01  1.30290000e+01  1.82773000e+00
  2.09642000e+01  4.80331000e+00  1.45933000e+00  2.09642000e+01  4.80331000e+00
  1.45933000e+00  4.83456000e-01  4.83456000e-01  1.45585000e-01  1.45585000e-01
  6.26000000e-01  4.56324000e+03  6.82024000e+02  1.54973000e+02  4.44553000e+01
  1.30290000e+01  1.82773000e+00  2.09642000e+01  4.80331000e+00  1.45933000e+00
  2.09642000e+01  4.80331000e+00  1.45933000e+00  4.83456000e-01  4.83456000e-01
  1.45585000e-01  1.45585000e-01  6.26000000e-01  4.56324000e+03  6.82024000e+02
  1.54973000e+02  4.44553000e+01  1.30290000e+01  1.82773000e+00  2.09642000e+01
  4.80331000e+00  1.45933000e+00  2.09642000e+01  4.80331000e+00  1.45933000e+00
  4.83456000e-01  4.83456000e-01  1.45585000e-01  1.45585000e-01  6.26000000e-01
  8.58850000e+03  1.29723000e+03  2.99296000e+02  8.73771000e+01  2.56789000e+01
  3.74004000e+00  4.21175000e+01  9.62837000e+00  2.85332000e+00  4.21175000e+01
  9.62837000e+00  2.85332000e+00  9.05661000e-01  9.05661000e-01  2.55611000e-01
  2.55611000e-01  1.29200000e+00  4.56324000e+03  6.82024000e+02  1.54973000e+02
  4.44553000e+01  1.30290000e+01  1.82773000e+00  2.09642000e+01  4.80331000e+00
  1.45933000e+00  2.09642000e+01  4.80331000e+00  1.45933000e+00  4.83456000e-01
  4.83456000e-01  1.45585000e-01  1.45585000e-01  6.26000000e-01  4.56324000e+03
  6.82024000e+02  1.54973000e+02  4.44553000e+01  1.30290000e+01  1.82773000e+00
  2.09642000e+01  4.80331000e+00  1.45933000e+00  2.09642000e+01  4.80331000e+00
  1.45933000e+00  4.83456000e-01  4.83456000e-01  1.45585000e-01  1.45585000e-01
  6.26000000e-01  4.56324000e+03  6.82024000e+02  1.54973000e+02  4.44553000e+01
  1.30290000e+01  1.82773000e+00  2.09642000e+01  4.80331000e+00  1.45933000e+00
  2.09642000e+01  4.80331000e+00  1.45933000e+00  4.83456000e-01  4.83456000e-01
  1.45585000e-01  1.45585000e-01  6.26000000e-01  4.56324000e+03  6.82024000e+02
  1.54973000e+02  4.44553000e+01  1.30290000e+01  1.82773000e+00  2.09642000e+01
  4.80331000e+00  1.45933000e+00  2.09642000e+01  4.80331000e+00  1.45933000e+00
  4.83456000e-01  4.83456000e-01  1.45585000e-01  1.45585000e-01  6.26000000e-01
  4.56324000e+03  6.82024000e+02  1.54973000e+02  4.44553000e+01  1.30290000e+01
  1.82773000e+00  2.09642000e+01  4.80331000e+00  1.45933000e+00  2.09642000e+01
  4.80331000e+00  1.45933000e+00  4.83456000e-01  4.83456000e-01  1.45585000e-01
  1.45585000e-01  6.26000000e-01  3.38650000e+01  5.09479000e+00  1.15879000e+00
  3.25840000e-01  1.02741000e-01  7.50000000e-01  3.38650000e+01  5.09479000e+00
  1.15879000e+00  3.25840000e-01  1.02741000e-01  7.50000000e-01  3.38650000e+01
  5.09479000e+00  1.15879000e+00  3.25840000e-01  1.02741000e-01  7.50000000e-01
  6.29348000e+03  9.49044000e+02  2.18776000e+02  6.36916000e+01  1.88282000e+01
  2.72023000e+00  3.06331000e+01  7.02614000e+00  2.11205000e+00  3.06331000e+01
  7.02614000e+00  2.11205000e+00  6.84009000e-01  6.84009000e-01  2.00878000e-01
  2.00878000e-01  9.13000000e-01  3.38650000e+01  5.09479000e+00  1.15879000e+00
  3.25840000e-01  1.02741000e-01  7.50000000e-01  3.38650000e+01  5.09479000e+00
  1.15879000e+00  3.25840000e-01  1.02741000e-01  7.50000000e-01  3.38650000e+01
  5.09479000e+00  1.15879000e+00  3.25840000e-01  1.02741000e-01  7.50000000e-01
  3.38650000e+01  5.09479000e+00  1.15879000e+00  3.25840000e-01  1.02741000e-01
  7.50000000e-01  3.38650000e+01  5.09479000e+00  1.15879000e+00  3.25840000e-01
  1.02741000e-01  7.50000000e-01  3.38650000e+01  5.09479000e+00  1.15879000e+00
  3.25840000e-01  1.02741000e-01  7.50000000e-01  3.38650000e+01  5.09479000e+00
  1.15879000e+00  3.25840000e-01  1.02741000e-01  7.50000000e-01  3.38650000e+01
  5.09479000e+00  1.15879000e+00  3.25840000e-01  1.02741000e-01  7.50000000e-01
  3.38650000e+01  5.09479000e+00  1.15879000e+00  3.25840000e-01  1.02741000e-01
  7.50000000e-01
Contraction coefficients                   R   N=         276
  1.96665025e-03  1.52306019e-02  7.61269097e-02  2.60801033e-01  6.16462078e-01
  2.21006028e-01  1.14660081e-01  9.19999648e-01 -3.03068213e-03  4.02486927e-02
  2.37593957e-01  8.15853851e-01  1.00000000e+00  1.00000000e+00  1.00000000e+00
  1.00000000e+00  1.00000000e+00  1.96978815e-03  1.49612859e-02  7.35005308e-02
  2.48936766e-01  6.02459433e-01  2.56201759e-01  1.11906080e-01  9.21666655e-01
 -2.56919183e-03  3.83119186e-02  2.37403116e-01  8.17592398e-01  1.00000000e+00
  1.00000000e+00  1.00000000e+00  1.00000000e+00  1.00000000e+00  1.96665025e-03
  1.52306019e-02  7.61269097e-02  2.60801033e-01  6.16462078e-01  2.21006028e-01
  1.14660081e-01  9.19999648e-01 -3.03068213e-03  4.02486927e-02  2.37593957e-01
  8.15853851e-01  1.00000000e+00  1.00000000e+00  1.00000000e+00  1.00000000e+00
  1.00000000e+00  1.96665025e-03  1.52306019e-02  7.61269097e-02  2.60801033e-01
  6.16462078e-01  2.21006028e-01  1.14660081e-01  9.19999648e-01 -3.03068213e-03
  4.02486927e-02  2.37593957e-01  8.15853851e-01  1.00000000e+00  1.00000000e+00
  1.00000000e+00  1.00000000e+00  1.00000000e+00  1.96665025e-03  1.52306019e-02
  7.61269097e-02  2.60801033e-01  6.16462078e-01  2.21006028e-01  1.14660081e-01
  9.19999648e-01 -3.03068213e-03  4.02486927e-02  2.37593957e-01  8.15853851e-01
  1.00000000e+00  1.00000000e+00  1.00000000e+00  1.00000000e+00  1.00000000e+00
  1.89515008e-03  1.43859006e-02  7.07320031e-02  2.40001011e-01  5.94797026e-01
  2.80802012e-01  1.13889012e-01  9.20811101e-01 -3.27447036e-03  3.65113974e-02
  2.37152983e-01  8.19701941e-01  1.00000000e+00  1.00000000e+00  1.00000000e+00
  1.00000000e+00  1.00000000e+00  1.96665025e-03  1.52306019e-02  7.61269097e-02
  2.60801033e-01  6.16462078e-01  2.21006028e-01  1.14660081e-01  9.19999648e-01
 -3.03068213e-03  4.02486927e-02  2.37593957e-01  8.15853851e-01  1.00000000e+00
  1.00000000e+00  1.00000000e+00  1.00000000e+00  1.00000000e+00  1.96665025e-03
  1.52306019e-02  7.61269097e-02  2.60801033e-01  6.16462078e-01  2.21006028e-01
  1.14660081e-01  9.19999648e-01 -3.03068213e-03  4.02486927e-02  2.37593957e-01
  8.15853851e-01  1.00000000e+00  1.00000000e+00  1.00000000e+00  1.00000000e+00
  1.00000000e+00  1.96665025e-03  1.52306019e-02  7.61269097e-02  2.60801033e-01
  6.16462078e-01  2.21006028e-01  1.14660081e-01  9.19999648e-01 -3.03068213e-03
  4.02486927e-02  2.37593957e-01  8.15853851e-01  1.00000000e+00  1.00000000e+00
  1.00000000e+00  1.00000000e+00  1.00000000e+00  1.96665025e-03  1.52306019e-02
  7.61269097e-02  2.60801033e-01  6.16462078e-01  2.21006028e-01  1.14660081e-01
  9.19999648e-01 -3.03068213e-03  4.02486927e-02  2.37593957e-01  8.15853851e-01
  1.00000000e+00  1.00000000e+00  1.00000000e+00  1.00000000e+00  1.00000000e+00
  1.96665025e-03  1.52306019e-02  7.61269097e-02  2.60801033e-01  6.16462078e-01
  2.21006028e-01  1.14660081e-01  9.19999648e-01 -3.03068213e-03  4.02486927e-02
  2.37593957e-01  8.15853851e-01  1.00000000e+00  1.00000000e+00  1.00000000e+00
  1.00000000e+00  1.00000000e+00  2.54938145e-02  1.90373109e-01  8.52161486e-01
  1.00000000e+00  1.00000000e+00  1.00000000e+00  2.54938145e-02  1.90373109e-01
  8.52161486e-01  1.00000000e+00  1.00000000e+00  1.00000000e+00  2.54938145e-02
  1.90373109e-01  8.52161486e-01  1.00000000e+00  1.00000000e+00  1.00000000e+00
  1.96978815e-03  1.49612859e-02  7.35005308e-02  2.48936766e-01  6.02459433e-01
  2.56201759e-01  1.11906080e-01  9.21666655e-01 -2.56919183e-03  3.83119186e-02
  2.37403116e-01  8.17592398e-01  1.00000000e+00  1.00000000e+00  1.00000000e+00
  1.00000000e+00  1.00000000e+00  2.54938145e-02  1.90373109e-01  8.52161486e-01
  1.00000000e+00  1.00000000e+00  1.00000000e+00  2.54938145e-02  1.90373109e-01
  8.52161486e-01  1.00000000e+00  1.00000000e+00  1.00000000e+00  2.54938145e-02
  1.90373109e-01  8.52161486e-01  1.00000000e+00  1.00000000e+00  1.00000000e+00
  2.54938145e-02  1.90373109e-01  8.52161486e-01  1.00000000e+00  1.00000000e+00
  1.00000000e+00  2.54938145e-02  1.90373109e-01  8.52161486e-01  1.00000000e+00
  1.00000000e+00  1.00000000e+00  2.54938145e-02  1.90373109e-01  8.52161486e-01
  1.00000000e+00  1.00000000e+00  1.00000000e+00  2.54938145e-02  1.90373109e-01
  8.52161486e-01  1.00000000e+00  1.00000000e+00  1.00000000e+00  2.54938145e-02
  1.90373109e-01  8.52161486e-01  1.00000000e+00  1.00000000e+00  1.00000000e+00
  2.54938145e-02  1.90373109e-01  8.52161486e-01  1.00000000e+00  1.00000000e+00
  1.00000000e+00
Coordinates of each shell                  R   N=         432
 -1.52555960e+00 -4.59231431e-01 -1.37822481e-01 -1.52555960e+00 -4.59231431e-01
 -1.37822481e-01 -1.52555960e+00 -4.59231431e-01 -1.37822481e-01 -1.52555960e+00
 -4.59231431e-01 -1.37822481e-01 -1.52555960e+00 -4.59231431e-01 -1.37822481e-01
 -1.52555960e+00 -4.59231431e-01 -1.37822481e-01 -1.52555960e+00 -4.59231431e-01
 -1.37822481e-01 -1.52555960e+00 -4.59231431e-01 -1.37822481e-01  7.50664437e-01
 -9.06225548e-01  1.23078023e+00  7.50664437e-01 -9.06225548e-01  1.23078023e+00
  7.50664437e-01 -9.06225548e-01  1.23078023e+00  7.50664437e-01 -9.06225548e-01
  1.23078023e+00  7.50664437e-01 -9.06225548e-01  1.23078023e+00  7.50664437e-01
 -9.06225548e-01  1.23078023e+00  7.50664437e-01 -9.06225548e-01  1.23078023e+00
  7.50664437e-01 -9.06225548e-01  1.23078023e+00  2.93101842e+00  3.57955351e-01
  5.59698732e-01  2.93101842e+00  3.57955351e-01  5.59698732e-01  2.93101842e+00
  3.57955351e-01  5.59698732e-01  2.93101842e+00  3.57955351e-01  5.59698732e-01
  2.93101842e+00  3.57955351e-01  5.59698732e-01  2.93101842e+00  3.57955351e-01
  5.59698732e-01  2.93101842e+00  3.57955351e-01  5.59698732e-01  2.93101842e+00
  3.57955351e-01  5.59698732e-01  5.24977735e+00 -3.80435190e-02  2.25176270e+00
  5.24977735e+00 -3.80435190e-02  2.25176270e+00  5.24977735e+00 -3.80435190e-02
  2.25176270e+00  5.24977735e+00 -3.80435190e-02  2.25176270e+00  5.24977735e+00
 -3.80435190e-02  2.25176270e+00  5.24977735e+00 -3.80435190e-02  2.25176270e+00
  5.24977735e+00 -3.80435190e-02  2.25176270e+00  5.24977735e+00 -3.80435190e-02
  2.25176270e+00  5.69356324e-01 -2.33479238e+00  3.58443642e+00  5.69356324e-01
 -2.33479238e+00  3.58443642e+00  5.69356324e-01 -2.33479238e+00  3.58443642e+00
  5.69356324e-01 -2.33479238e+00  3.58443642e+00  5.69356324e-01 -2.33479238e+00
  3.58443642e+00  5.69356324e-01 -2.33479238e+00  3.58443642e+00  5.69356324e-01
 -2.33479238e+00  3.58443642e+00  5.69356324e-01 -2.33479238e+00  3.58443642e+00
  3.07124550e+00  1.72393680e+00 -1.32109947e+00  3.07124550e+00  1.72393680e+00
 -1.32109947e+00  3.07124550e+00  1.72393680e+00 -1.32109947e+00  3.07124550e+00
  1.72393680e+00 -1.32109947e+00  3.07124550e+00  1.72393680e+00 -1.32109947e+00
  3.07124550e+00  1.72393680e+00 -1.32109947e+00  3.07124550e+00  1.72393680e+00
 -1.32109947e+00  3.07124550e+00  1.72393680e+00 -1.32109947e+00 -3.74593212e+00
  1.23516784e-01  1.17161389e+00 -3.74593212e+00  1.23516784e-01  1.17161389e+00
 -3.74593212e+00  1.23516784e-01  1.17161389e+00 -3.74593212e+00  1.23516784e-01
  1.17161389e+00 -3.74593212e+00  1.23516784e-01  1.17161389e+00 -3.74593212e+00
  1.23516784e-01  1.17161389e+00 -3.74593212e+00  1.23516784e-01  1.17161389e+00
 -3.74593212e+00  1.23516784e-01  1.17161389e+00 -6.04294427e+00  2.82800154e-01
 -2.77370502e+00 -6.04294427e+00  2.82800154e-01 -2.77370502e+00 -6.04294427e+00
  2.82800154e-01 -2.77370502e+00 -6.04294427e+00  2.82800154e-01 -2.77370502e+00
 -6.04294427e+00  2.82800154e-01 -2.77370502e+00 -6.04294427e+00  2.82800154e-01
 -2.77370502e+00 -6.04294427e+00  2.82800154e-01 -2.77370502e+00 -6.04294427e+00
  2.82800154e-01 -2.77370502e+00 -5.99835703e+00  4.79178986e-01 -1.47500395e-01
 -5.99835703e+00  4.79178986e-01 -1.47500395e-01 -5.99835703e+00  4.79178986e-01
 -1.47500395e-01 -5.99835703e+00  4.79178986e-01 -1.47500395e-01 -5.99835703e+00
  4.79178986e-01 -1.47500395e-01 -5.99835703e+00  4.79178986e-01 -1.47500395e-01
 -5.99835703e+00  4.79178986e-01 -1.47500395e-01 -5.99835703e+00  4.79178986e-01
 -1.47500395e-01 -3.81887873e+00 -2.82815762e-01 -4.07350017e+00 -3.81887873e+00
 -2.82815762e-01 -4.07350017e+00 -3.81887873e+00 -2.82815762e-01 -4.07350017e+00
 -3.81887873e+00 -2.82815762e-01 -4.07350017e+00 -3.81887873e+00 -2.82815762e-01
 -4.07350017e+00 -3.81887873e+00 -2.82815762e-01 -4.07350017e+00 -3.81887873e+00
 -2.82815762e-01 -4.07350017e+00 -3.81887873e+00 -2.82815762e-01 -4.07350017e+00
 -1.56516251e+00 -6.70790529e-01 -2.77226594e+00 -1.56516251e+00 -6.70790529e-01
 -2.77226594e+00 -1.56516251e+00 -6.70790529e-01 -2.77226594e+00 -1.56516251e+00
 -6.70790529e-01 -2.77226594e+00 -1.56516251e+00 -6.70790529e-01 -2.77226594e+00
 -1.56516251e+00 -6.70790529e-01 -2.77226594e+00 -1.56516251e+00 -6.70790529e-01
 -2.77226594e+00 -1.56516251e+00 -6.70790529e-01 -2.77226594e+00  2.28446665e+00
 -3.43413167e+00  3.88935884e+00  2.28446665e+00 -3.43413167e+00  3.88935884e+00
  2.28446665e+00 -3.43413167e+00  3.88935884e+00  2.28446665e+00 -3.43413167e+00
  3.88935884e+00 -1.00880121e+00 -3.64820442e+00  3.41369540e+00 -1.00880121e+00
 -3.64820442e+00  3.41369540e+00 -1.00880121e+00 -3.64820442e+00  3.41369540e+00
 -1.00880121e+00 -3.64820442e+00  3.41369540e+00  2.53923974e-01 -1.12536592e+00
  5.23674713e+00  2.53923974e-01 -1.12536592e+00  5.23674713e+00  2.53923974e-01
 -1.12536592e+00  5.23674713e+00  2.53923974e-01 -1.12536592e+00  5.23674713e+00
  7.41749199e+00  1.47955821e+00  1.51643772e+00  7.41749199e+00  1.47955821e+00
  1.51643772e+00  7.41749199e+00  1.47955821e+00  1.51643772e+00  7.41749199e+00
  1.47955821e+00  1.51643772e+00  7.41749199e+00  1.47955821e+00  1.51643772e+00
  7.41749199e+00  1.47955821e+00  1.51643772e+00  7.41749199e+00  1.47955821e+00
  1.51643772e+00  7.41749199e+00  1.47955821e+00  1.51643772e+00  5.79609627e+00
 -2.03693410e+00  2.20341769e+00  5.79609627e+00 -2.03693410e+00  2.20341769e+00
  5.79609627e+00 -2.03693410e+00  2.20341769e+00  5.79609627e+00 -2.03693410e+00
  2.20341769e+00  4.77852087e+00  3.86902447e-01  4.22208399e+00  4.77852087e+00
  3.86902447e-01  4.22208399e+00  4.77852087e+00  3.86902447e-01  4.22208399e+00
  4.77852087e+00  3.86902447e-01  4.22208399e+00 -3.71292030e+00  3.30096866e-01
  3.21450937e+00 -3.71292030e+00  3.30096866e-01  3.21450937e+00 -3.71292030e+00
  3.30096866e-01  3.21450937e+00 -3.71292030e+00  3.30096866e-01  3.21450937e+00
 -7.71599635e+00  9.30508213e-01  8.84798470e-01 -7.71599635e+00  9.30508213e-01
  8.84798470e-01 -7.71599635e+00  9.30508213e-01  8.84798470e-01 -7.71599635e+00
  9.30508213e-01  8.84798470e-01 -3.83818635e+00 -4.44051143e-01 -6.12112743e+00
 -3.83818635e+00 -4.44051143e-01 -6.12112743e+00 -3.83818635e+00 -4.44051143e-01
 -6.12112743e+00 -3.83818635e+00 -4.44051143e-01 -6.12112743e+00  1.60713477e-01
 -1.11883676e+00 -3.77907544e+00  1.60713477e-01 -1.11883676e+00 -3.77907544e+00
  1.60713477e-01 -1.11883676e+00 -3.77907544e+00  1.60713477e-01 -1.11883676e+00
 -3.77907544e+00  7.71559518e+00  1.19799288e+00 -3.66455930e-01  7.71559518e+00
  1.19799288e+00 -3.66455930e-01  7.71559518e+00  1.19799288e+00 -3.66455930e-01
  7.71559518e+00  1.19799288e+00 -3.66455930e-01 -7.79694103e+00  5.70916042e-01
 -3.80180048e+00 -7.79694103e+00  5.70916042e-01 -3.80180048e+00 -7.79694103e+00
  5.70916042e-01 -3.80180048e+00 -7.79694103e+00  5.70916042e-01 -3.80180048e+00
  6.91016291e+00  3.33470066e+00  1.62946659e+00  6.91016291e+00  3.33470066e+00
  1.62946659e+00  6.91016291e+00  3.33470066e+00  1.62946659e+00  6.91016291e+00
  3.33470066e+00  1.62946659e+00
Total Energy                               R     -5.334938464988825e+02
Alpha Orbital Energies                     R   N=         288
 -2.05181158e+01 -1.55987996e+01 -1.55376487e+01 -1.13544890e+01 -1.12803421e+01
 -1.12794318e+01 -1.12714959e+01 -1.12390396e+01 -1.12376606e+01 -1.12359445e+01
 -1.12330167e+01 -1.12318844e+01 -1.38183194e+00 -1.26379134e+00 -1.18335447e+00
 -1.14498792e+00 -1.02199209e+00 -1.01858549e+00 -9.70325950e-01 -9.37647363e-01
 -8.39082765e-01 -8.27764260e-01 -7.56437864e-01 -6.98787503e-01 -6.93911682e-01
 -6.82242130e-01 -6.65526658e-01 -6.47011622e-01 -6.23948865e-01 -6.12520128e-01
 -5.90334873e-01 -5.87808270e-01 -5.74590692e-01 -5.59121483e-01 -5.53259256e-01
 -5.19232849e-01 -5.13828199e-01 -4.98632033e-01 -4.97632035e-01 -4.35929103e-01
 -4.07318354e-01 -4.01668489e-01 -3.37409337e-01 -3.16861037e-01  1.25667018e-01
  1.31934552e-01  1.40096863e-01  1.61771994e-01  1.72286454e-01  1.80665881e-01
  1.82964372e-01  1.94424801e-01  2.04296291e-01  2.11283069e-01  2.24375575e-01
  2.38841285e-01  2.47484422e-01  2.53240776e-01  2.96031946e-01  3.08089091e-01
  3.45888799e-01  3.77598158e-01  3.92373702e-01  4.00509476e-01  4.26380101e-01
  4.37194281e-01  4.48713616e-01  4.56278146e-01  4.69792970e-01  4.93386838e-01
  5.00235601e-01  5.14934946e-01  5.39540893e-01  5.48415564e-01  5.71586386e-01
  5.76170672e-01  5.80465509e-01  5.88440733e-01  6.01319361e-01  6.05457180e-01
  6.14515826e-01  6.27089774e-01  6.34969757e-01  6.38734076e-01  6.51121423e-01
  6.77781640e-01  6.92694353e-01  6.99903194e-01  7.26066286e-01  7.33380993e-01
  7.56847934e-01  7.66646521e-01  7.69598147e-01  7.75632215e-01  7.90739544e-01
  7.96002190e-01  8.00403647e-01  8.08797970e-01  8.12433284e-01  8.21386002e-01
  8.30834252e-01  8.33985387e-01  8.39872888e-01  8.54188035e-01  8.67513561e-01
  8.83851584e-01  8.96891148e-01  9.10976258e-01  9.38587122e-01  9.45930951e-01
  9.56052933e-01  9.71775669e-01  9.80966513e-01  1.02060680e+00  1.03806583e+00
  1.04702966e+00  1.05902588e+00  1.07067585e+00  1.07217391e+00  1.07819411e+00
  1.12360913e+00  1.12934828e+00  1.15679151e+00  1.19061731e+00  1.20865203e+00
  1.23196482e+00  1.25608378e+00  1.29003423e+00  1.31222567e+00  1.32819129e+00
  1.34101930e+00  1.34896370e+00  1.37354289e+00  1.39450697e+00  1.41130751e+00
  1.43512074e+00  1.47743968e+00  1.48523205e+00  1.51745980e+00  1.56920707e+00
  1.58355184e+00  1.60513373e+00  1.63684945e+00  1.64736010e+00  1.68063269e+00
  1.70695044e+00  1.71308162e+00  1.72640311e+00  1.74394094e+00  1.75666073e+00
  1.76810053e+00  1.77180601e+00  1.78709719e+00  1.79741191e+00  1.82226791e+00
  1.83372015e+00  1.83841639e+00  1.85963976e+00  1.87274524e+00  1.88236885e+00
  1.89316538e+00  1.90546478e+00  1.92773646e+00  1.94316939e+00  1.95613320e+00
  1.97593364e+00  1.99854936e+00  2.01343035e+00  2.02152652e+00  2.03481309e+00
  2.05206150e+00  2.05831760e+00  2.08179691e+00  2.09716005e+00  2.11625184e+00
  2.12761199e+00  2.19421365e+00  2.20178039e+00  2.20993821e+00  2.21745277e+00
  2.22177691e+00  2.23547784e+00  2.23867924e+00  2.25185219e+00  2.26916355e+00
  2.28692354e+00  2.31424893e+00  2.33326406e+00  2.36577457e+00  2.37377025e+00
  2.38046111e+00  2.40002846e+00  2.45852593e+00  2.48878447e+00  2.52162318e+00
  2.53898419e+00  2.58237309e+00  2.61316463e+00  2.63867596e+00  2.65183979e+00
  2.66138532e+00  2.67374844e+00  2.69729876e+00  2.72890612e+00  2.74732704e+00
  2.75672200e+00  2.78706318e+00  2.81534970e+00  2.83724036e+00  2.85566491e+00
  2.87758208e+00  2.89957604e+00  2.91422284e+00  2.93499344e+00  2.93921125e+00
  2.94726097e+00  2.95663598e+00  2.96480598e+00  2.97199420e+00  2.98248095e+00
  2.99586297e+00  3.01360020e+00  3.02301005e+00  3.04694313e+00  3.06049912e+00
  3.07455559e+00  3.11225438e+00  3.13884682e+00  3.15080550e+00  3.17486368e+00
  3.18828755e+00  3.23309951e+00  3.25042680e+00  3.27179068e+00  3.28850951e+00
  3.29318195e+00  3.32559782e+00  3.33615411e+00  3.34568654e+00  3.38384927e+00
  3.40240014e+00  3.46599087e+00  3.49704465e+00  3.53808693e+00  3.58839321e+00
  3.73269449e+00  3.76080839e+00  3.77446582e+00  3.78071578e+00  3.83295137e+00
  3.88368930e+00  3.89060032e+00  3.90396181e+00  3.99448883e+00  4.02435841e+00
  4.07043292e+00  4.13783698e+00  4.18360469e+00  4.20288730e+00  4.22584423e+00
  4.31537849e+00  4.37170150e+00  4.42957966e+00  4.45504613e+00  4.48524167e+00
  4.53299843e+00  4.54390275e+00  4.58564379e+00  5.18811252e+00  5.26950623e+00
  5.28228478e+00  5.42870088e+00  5.50686145e+00  5.52404707e+00  5.68642589e+00