Generated by Psi4
        SP                           RHF                         MINIX
Number of atoms                            I               29
Charge                                     I                0
Multiplicity                               I                1
Number of electrons                        I              104
Number of alpha electrons                  I               52
Number of beta electrons                   I               52
Number of basis functions                  I               85
Number of independent functions            I               85
Atomic numbers                             I   N=          29
           6           7           6           6           6           8
           6           6           6           6           6           1
           1           1           7           1           1           1
           1           1           1           7           6           1
           1           1           1           1           1
Nuclear charges                            R   N=          29
  6.00000000e+00  7.00000000e+00  6.00000000e+00  6.00000000e+00  6.00000000e+00
  8.00000000e+00  6.00000000e+00  6.00000000e+00  6.00000000e+00  6.00000000e+00
  6.00000000e+00  1.00000000e+00  1.00000000e+00  1.00000000e+00  7.00000000e+00
  1.00000000e+00  1.00000000e+00  1.00000000e+00  1.00000000e+00  1.00000000e+00
  1.00000000e+00  7.00000000e+00  6.00000000e+00  1.00000000e+00  1.00000000e+00
  1.00000000e+00  1.00000000e+00  1.00000000e+00  1.00000000e+00
Current cartesian coordinates              R   N=          87
 -1.45895239e+00 -7.03750004e-01  1.77911029e-01  8.49348074e-01 -1.03464105e+00
  1.60616603e+00  3.19298641e+00 -1.36643193e-01  7.08924070e-01  5.47785427e+00
 -4.41456018e-01  2.52684060e+00  6.00660116e-01 -2.17754741e+00  4.11685616e+00
  3.51556266e+00  9.12721724e-01 -1.35125535e+00 -3.82073210e+00 -6.83718907e-01
  1.38941445e+00 -6.06327009e+00 -2.81729139e-02 -2.57995528e+00 -6.07971071e+00
 -3.73614850e-01  3.35359530e-02 -3.72756860e+00 -1.29084289e-01 -3.80695445e+00
 -1.46858999e+00 -4.42589853e-01 -2.45334363e+00  2.35016856e+00 -3.09047410e+00
  4.71797805e+00 -8.41767836e-01 -3.66060447e+00  4.10759651e+00  1.21803515e-01
 -6.99025688e-01  5.48104945e+00  7.73097473e+00  9.07808436e-01  1.57045021e+00
  5.89642861e+00 -2.46894318e+00  2.60866574e+00  4.99427336e+00  2.52262443e-01
  4.41581084e+00 -3.99213026e+00 -8.56439875e-01  3.42635024e+00 -7.84962820e+00
 -3.83819371e-01  1.07137354e+00 -3.63119257e+00  2.47394176e-02 -5.85371682e+00
  2.55974070e-01 -5.50493215e-01 -3.55807752e+00 -8.29163514e+00  1.39067848e-01
 -4.05224090e+00  7.50609732e+00  3.67134392e+00  1.69309344e+00 -7.93598868e+00
  1.09281262e+00 -5.68704297e+00  7.66218870e+00  4.30175656e+00  3.66464470e+00
  5.66852764e+00  4.34994457e+00  1.02526422e+00  8.01065420e+00  4.00039026e-01
 -2.67875364e-01 -9.94438961e+00 -5.63910270e-01 -3.56695923e+00  8.97989473e+00
  4.40474663e+00  5.19006595e-01
Integer atomic weights                     I   N=          29
          12          14          12          12          12          16
          12          12          12          12          12           1
           1           1          14           1           1           1
           1           1           1          14          12           1
           1           1           1           1           1
Real atomic weights                        R   N=          29
  1.20000000e+01  1.40030740e+01  1.20000000e+01  1.20000000e+01  1.20000000e+01
  1.59949146e+01  1.20000000e+01  1.20000000e+01  1.20000000e+01  1.20000000e+01
  1.20000000e+01  1.00782503e+00  1.00782503e+00  1.00782503e+00  1.40030740e+01
  1.00782503e+00  1.00782503e+00  1.00782503e+00  1.00782503e+00  1.00782503e+00
  1.00782503e+00  1.40030740e+01  1.20000000e+01  1.00782503e+00  1.00782503e+00
  1.00782503e+00  1.00782503e+00  1.00782503e+00  1.00782503e+00
Number of primitive shells                 I              171
Number of contracted shells                I               57
Pure/Cartesian d shells                    I                0
Pure/Cartesian f shells                    I                0
Highest angular momentum                   I                1
Largest degree of contraction              I                3
Shell types                                I   N=          57
           0           0           1           0           0           1
           0           0           1           0           0           1
           0           0           1           0           0           1
           0           0           1           0           0           1
           0           0           1           0           0           1
           0           0           1           0           0           0
           0           0           1           0           0           0
           0           0           0           0           0           1
           0           0           1           0           0           0
           0           0           0
Number of primitives per shell             I   N=          57
           3           3           3           3           3           3
           3           3           3           3           3           3
           3           3           3           3           3           3
           3           3           3           3           3           3
           3           3           3           3           3           3
           3           3           3           3           3           3
           3           3           3           3           3           3
           3           3           3           3           3           3
           3           3           3           3           3           3
           3           3           3
Shell to atom map                          I   N=          57
           1           1           1           2           2           2
           3           3           3           4           4           4
           5           5           5           6           6           6
           7           7           7           8           8           8
           9           9           9          10          10          10
          11          11          11          12          13          14
          15          15          15          16          17          18
          19          20          21          22          22          22
          23          23          23          24          25          26
          27          28          29
Primitive exponents                        R   N=         171
  1.53172260e+02  2.30730300e+01  4.92329000e+00  6.61661200e+00  5.25856000e-01
  1.69958000e-01  4.91292000e+00  9.97616000e-01  2.32685000e-01  2.18364490e+02
  3.25988900e+01  6.91739000e+00  8.91942600e+00  7.06141000e-01  2.25054000e-01
  6.55627200e+00  1.34907900e+00  3.12209000e-01  1.53172260e+02  2.30730300e+01
  4.92329000e+00  6.61661200e+00  5.25856000e-01  1.69958000e-01  4.91292000e+00
  9.97616000e-01  2.32685000e-01  1.53172260e+02  2.30730300e+01  4.92329000e+00
  6.61661200e+00  5.25856000e-01  1.69958000e-01  4.91292000e+00  9.97616000e-01
  2.32685000e-01  1.53172260e+02  2.30730300e+01  4.92329000e+00  6.61661200e+00
  5.25856000e-01  1.69958000e-01  4.91292000e+00  9.97616000e-01  2.32685000e-01
  2.81866580e+02  4.24160000e+01  9.09562000e+00  1.17893260e+01  9.12894000e-01
  2.86661000e-01  8.27414000e+00  1.71546300e+00  3.83013000e-01  1.53172260e+02
  2.30730300e+01  4.92329000e+00  6.61661200e+00  5.25856000e-01  1.69958000e-01
  4.91292000e+00  9.97616000e-01  2.32685000e-01  1.53172260e+02  2.30730300e+01
  4.92329000e+00  6.61661200e+00  5.25856000e-01  1.69958000e-01  4.91292000e+00
  9.97616000e-01  2.32685000e-01  1.53172260e+02  2.30730300e+01  4.92329000e+00
  6.61661200e+00  5.25856000e-01  1.69958000e-01  4.91292000e+00  9.97616000e-01
  2.32685000e-01  1.53172260e+02  2.30730300e+01  4.92329000e+00  6.61661200e+00
  5.25856000e-01  1.69958000e-01  4.91292000e+00  9.97616000e-01  2.32685000e-01
  1.53172260e+02  2.30730300e+01  4.92329000e+00  6.61661200e+00  5.25856000e-01
  1.69958000e-01  4.91292000e+00  9.97616000e-01  2.32685000e-01  7.03406300e+00
  1.06475600e+00  2.36559000e-01  7.03406300e+00  1.06475600e+00  2.36559000e-01
  7.03406300e+00  1.06475600e+00  2.36559000e-01  2.18364490e+02  3.25988900e+01
  6.91739000e+00  8.91942600e+00  7.06141000e-01  2.25054000e-01  6.55627200e+00
  1.34907900e+00  3.12209000e-01  7.03406300e+00  1.06475600e+00  2.36559000e-01
  7.03406300e+00  1.06475600e+00  2.36559000e-01  7.03406300e+00  1.06475600e+00
  2.36559000e-01  7.03406300e+00  1.06475600e+00  2.36559000e-01  7.03406300e+00
  1.06475600e+00  2.36559000e-01  7.03406300e+00  1.06475600e+00  2.36559000e-01
  2.18364490e+02  3.25988900e+01  6.91739000e+00  8.91942600e+00  7.06141000e-01
  2.25054000e-01  6.55627200e+00  1.34907900e+00  3.12209000e-01  1.53172260e+02
  2.30730300e+01  4.92329000e+00  6.61661200e+00  5.25856000e-01  1.69958000e-01
  4.91292000e+00  9.97616000e-01  2.32685000e-01  7.03406300e+00  1.06475600e+00
  2.36559000e-01  7.03406300e+00  1.06475600e+00  2.36559000e-01  7.03406300e+00
  1.06475600e+00  2.36559000e-01  7.03406300e+00  1.06475600e+00  2.36559000e-01
  7.03406300e+00  1.06475600e+00  2.36559000e-01  7.03406300e+00  1.06475600e+00
  2.36559000e-01
Contraction coefficients                   R   N=         171
  7.07400095e-02  3.95380053e-01  6.63311089e-01 -8.13799884e-02  5.74852918e-01
  5.02412928e-01  1.09930928e-01  4.62712695e-01  6.27513586e-01  6.78700100e-02
  3.90202057e-01  6.70083099e-01 -8.08899713e-02  5.67201799e-01  5.11091818e-01
  1.15918975e-01  4.69957900e-01  6.18447868e-01  7.07400095e-02  3.95380053e-01
  6.63311089e-01 -8.13799884e-02  5.74852918e-01  5.02412928e-01  1.09930928e-01
  4.62712695e-01  6.27513586e-01  7.07400095e-02  3.95380053e-01  6.63311089e-01
 -8.13799884e-02  5.74852918e-01  5.02412928e-01  1.09930928e-01  4.62712695e-01
  6.27513586e-01  7.07400095e-02  3.95380053e-01  6.63311089e-01 -8.13799884e-02
  5.74852918e-01  5.02412928e-01  1.09930928e-01  4.62712695e-01  6.27513586e-01
  6.90600291e-02  3.93159166e-01  6.65669281e-01 -8.08199297e-02  5.82089494e-01
  4.97159568e-01  1.24271003e-01  4.76594010e-01  6.13044013e-01  7.07400095e-02
  3.95380053e-01  6.63311089e-01 -8.13799884e-02  5.74852918e-01  5.02412928e-01
  1.09930928e-01  4.62712695e-01  6.27513586e-01  7.07400095e-02  3.95380053e-01
  6.63311089e-01 -8.13799884e-02  5.74852918e-01  5.02412928e-01  1.09930928e-01
  4.62712695e-01  6.27513586e-01  7.07400095e-02  3.95380053e-01  6.63311089e-01
 -8.13799884e-02  5.74852918e-01  5.02412928e-01  1.09930928e-01  4.62712695e-01
  6.27513586e-01  7.07400095e-02  3.95380053e-01  6.63311089e-01 -8.13799884e-02
  5.74852918e-01  5.02412928e-01  1.09930928e-01  4.62712695e-01  6.27513586e-01
  7.07400095e-02  3.95380053e-01  6.63311089e-01 -8.13799884e-02  5.74852918e-01
  5.02412928e-01  1.09930928e-01  4.62712695e-01  6.27513586e-01  7.04520124e-02
  4.07826072e-01  6.47752114e-01  7.04520124e-02  4.07826072e-01  6.47752114e-01
  7.04520124e-02  4.07826072e-01  6.47752114e-01  6.78700100e-02  3.90202057e-01
  6.70083099e-01 -8.08899713e-02  5.67201799e-01  5.11091818e-01  1.15918975e-01
  4.69957900e-01  6.18447868e-01  7.04520124e-02  4.07826072e-01  6.47752114e-01
  7.04520124e-02  4.07826072e-01  6.47752114e-01  7.04520124e-02  4.07826072e-01
  6.47752114e-01  7.04520124e-02  4.07826072e-01  6.47752114e-01  7.04520124e-02
  4.07826072e-01  6.47752114e-01  7.04520124e-02  4.07826072e-01  6.47752114e-01
  6.78700100e-02  3.90202057e-01  6.70083099e-01 -8.08899713e-02  5.67201799e-01
  5.11091818e-01  1.15918975e-01  4.69957900e-01  6.18447868e-01  7.07400095e-02
  3.95380053e-01  6.63311089e-01 -8.13799884e-02  5.74852918e-01  5.02412928e-01
  1.09930928e-01  4.62712695e-01  6.27513586e-01  7.04520124e-02  4.07826072e-01
  6.47752114e-01  7.04520124e-02  4.07826072e-01  6.47752114e-01  7.04520124e-02
  4.07826072e-01  6.47752114e-01  7.04520124e-02  4.07826072e-01  6.47752114e-01
  7.04520124e-02  4.07826072e-01  6.47752114e-01  7.04520124e-02  4.07826072e-01
  6.47752114e-01
Coordinates of each shell                  R   N=         171
 -1.45895239e+00 -7.03750004e-01  1.77911029e-01 -1.45895239e+00 -7.03750004e-01
  1.77911029e-01 -1.45895239e+00 -7.03750004e-01  1.77911029e-01  8.49348074e-01
 -1.03464105e+00  1.60616603e+00  8.49348074e-01 -1.03464105e+00  1.60616603e+00
  8.49348074e-01 -1.03464105e+00  1.60616603e+00  3.19298641e+00 -1.36643193e-01
  7.08924070e-01  3.19298641e+00 -1.36643193e-01  7.08924070e-01  3.19298641e+00
 -1.36643193e-01  7.08924070e-01  5.47785427e+00 -4.41456018e-01  2.52684060e+00
  5.47785427e+00 -4.41456018e-01  2.52684060e+00  5.47785427e+00 -4.41456018e-01
  2.52684060e+00  6.00660116e-01 -2.17754741e+00  4.11685616e+00  6.00660116e-01
 -2.17754741e+00  4.11685616e+00  6.00660116e-01 -2.17754741e+00  4.11685616e+00
  3.51556266e+00  9.12721724e-01 -1.35125535e+00  3.51556266e+00  9.12721724e-01
 -1.35125535e+00  3.51556266e+00  9.12721724e-01 -1.35125535e+00 -3.82073210e+00
 -6.83718907e-01  1.38941445e+00 -3.82073210e+00 -6.83718907e-01  1.38941445e+00
 -3.82073210e+00 -6.83718907e-01  1.38941445e+00 -6.06327009e+00 -2.81729139e-02
 -2.57995528e+00 -6.06327009e+00 -2.81729139e-02 -2.57995528e+00 -6.06327009e+00
 -2.81729139e-02 -2.57995528e+00 -6.07971071e+00 -3.73614850e-01  3.35359530e-02
 -6.07971071e+00 -3.73614850e-01  3.35359530e-02 -6.07971071e+00 -3.73614850e-01
  3.35359530e-02 -3.72756860e+00 -1.29084289e-01 -3.80695445e+00 -3.72756860e+00
 -1.29084289e-01 -3.80695445e+00 -3.72756860e+00 -1.29084289e-01 -3.80695445e+00
 -1.46858999e+00 -4.42589853e-01 -2.45334363e+00 -1.46858999e+00 -4.42589853e-01
 -2.45334363e+00 -1.46858999e+00 -4.42589853e-01 -2.45334363e+00  2.35016856e+00
 -3.09047410e+00  4.71797805e+00 -8.41767836e-01 -3.66060447e+00  4.10759651e+00
  1.21803515e-01 -6.99025688e-01  5.48104945e+00  7.73097473e+00  9.07808436e-01
  1.57045021e+00  7.73097473e+00  9.07808436e-01  1.57045021e+00  7.73097473e+00
  9.07808436e-01  1.57045021e+00  5.89642861e+00 -2.46894318e+00  2.60866574e+00
  4.99427336e+00  2.52262443e-01  4.41581084e+00 -3.99213026e+00 -8.56439875e-01
  3.42635024e+00 -7.84962820e+00 -3.83819371e-01  1.07137354e+00 -3.63119257e+00
  2.47394176e-02 -5.85371682e+00  2.55974070e-01 -5.50493215e-01 -3.55807752e+00
 -8.29163514e+00  1.39067848e-01 -4.05224090e+00 -8.29163514e+00  1.39067848e-01
 -4.05224090e+00 -8.29163514e+00  1.39067848e-01 -4.05224090e+00  7.50609732e+00
  3.67134392e+00  1.69309344e+00  7.50609732e+00  3.67134392e+00  1.69309344e+00
  7.50609732e+00  3.67134392e+00  1.69309344e+00 -7.93598868e+00  1.09281262e+00
 -5.68704297e+00  7.66218870e+00  4.30175656e+00  3.66464470e+00  5.66852764e+00
  4.34994457e+00  1.02526422e+00  8.01065420e+00  4.00039026e-01 -2.67875364e-01
 -9.94438961e+00 -5.63910270e-01 -3.56695923e+00  8.97989473e+00  4.40474663e+00
  5.19006595e-01
Total Energy                               R     -6.213105382125989e+02
Alpha Orbital Energies                     R   N=          85
 -2.02913885e+01 -1.54465904e+01 -1.53776000e+01 -1.53698532e+01 -1.13131570e+01
 -1.12228284e+01 -1.12175964e+01 -1.12138011e+01 -1.12065079e+01 -1.11703589e+01
 -1.11683414e+01 -1.11647896e+01 -1.11589883e+01 -1.11561726e+01 -1.37408595e+00
 -1.23902313e+00 -1.19262364e+00 -1.18635554e+00 -1.11289565e+00 -1.01033502e+00
 -9.99859778e-01 -9.73954070e-01 -9.40880042e-01 -8.70153628e-01 -8.29861466e-01
 -8.06890439e-01 -7.44886765e-01 -6.98837010e-01 -6.84641636e-01 -6.70617641e-01
 -6.59436820e-01 -6.50891437e-01 -6.33131856e-01 -6.13491544e-01 -5.98613453e-01
 -5.90642420e-01 -5.81038413e-01 -5.69770125e-01 -5.54411835e-01 -5.45039489e-01
 -5.33607939e-01 -5.21500043e-01 -5.12583192e-01 -5.02443817e-01 -4.99696334e-01
 -4.82083026e-01 -4.41179107e-01 -4.04408773e-01 -3.73709418e-01 -3.45219359e-01
 -3.40251963e-01 -2.73352680e-01  1.88213289e-01  1.94013020e-01  2.48896693e-01
  4.35052370e-01  4.58192084e-01  5.21506212e-01  5.33332041e-01  5.38536388e-01
  5.58606569e-01  6.14715673e-01  6.27926602e-01  6.37276617e-01  6.39928686e-01
  6.62989316e-01  6.66736728e-01  6.84779398e-01  6.88341263e-01  6.90165024e-01
  6.92822573e-01  7.01670697e-01  7.35502613e-01  7.53226546e-01  7.67216079e-01
  7.78459342e-01  7.96979020e-01  8.05076610e-01  8.51561646e-01  8.79538717e-01
  8.87588232e-01  9.16613616e-01  9.52268969e-01  1.06771475e+00  1.11147782e+00
Alpha MO coefficients                      R   N=        7225
  4.67097014e-06  3.61036057e-05  7.84350414e-05 -6.73258017e-05  1.59814832e-04
  2.37952854e-05  3.05451294e-04  6.43147998e-04 -4.18703442e-04  1.14267446e-03
 -8.01878388e-04  1.48202195e-02  1.99212808e-03  6.55808276e-03 -1.28772224e-02
  9.87505803e-06  2.20572583e-04 -8.14752932e-04 -5.49187705e-04  6.67316633e-04
 -2.18763667e-05 -1.34613625e-04  3.42319059e-04  1.04738745e-04  2.22183021e-05
 -9.90367618e-01 -4.92106769e-02  1.57676490e-03  4.94730537e-03 -9.62762284e-03
  1.36592159e-06 -2.00981589e-05 -1.67160071e-05 -2.03040341e-06 -1.26040298e-05
  7.62317481e-07 -1.39765144e-05 -9.76043777e-06  8.83805860e-06  3.56526051e-07
 -2.41287638e-07 -7.42778177e-07  2.95513754e-06 -1.48688213e-06 -3.43160772e-06
 -3.39450716e-06  1.26587593e-04  3.95894507e-05 -6.75331656e-05  3.95897250e-05
  2.09077914e-06 -3.12145903e-04  4.36398713e-05  2.15452310e-04  3.75186899e-04
  1.01894427e-05  1.42159520e-04 -3.73666387e-07  2.87200480e-06 -1.09198078e-05
 -1.55265749e-04 -5.49180296e-05  1.96049990e-04 -1.47412833e-04 -1.25368075e-04
  1.54014211e-05  1.47045068e-06 -3.17436440e-06  1.07075016e-03 -7.05038564e-09
 -1.42896017e-06  9.62519573e-07 -4.13120862e-07 -5.35669879e-07  8.65316778e-07
 -1.04606253e-04  1.17394906e-04 -1.08909393e-04 -1.44282213e-04  1.23088950e-06
  7.18514942e-05  3.63958836e-04  4.53862423e-04  5.86266880e-07 -7.13876266e-05
 -5.47462159e-04  9.28809429e-03  8.04085630e-03 -1.07680092e-03  4.88269623e-03
 -9.89018749e-01 -5.85717242e-02 -2.92159904e-04 -7.33222180e-04  2.31200122e-04
 -5.80151294e-04  1.04990714e-02 -8.74783546e-03 -3.26004708e-03  3.20601888e-03
 -9.25086298e-07  2.04954817e-04  2.64640060e-04  2.37771710e-04 -4.84808501e-04
 -5.71063880e-04  9.32788909e-03  9.04455813e-04  3.46040375e-03 -7.74366902e-03
  5.26871743e-06  1.97682260e-04  9.95676349e-04  1.57942646e-04  6.38860270e-05
  8.53133923e-06  3.50150919e-04 -2.37667548e-04  2.00867498e-04 -7.98213166e-04
 -4.65923426e-06 -6.85761662e-05  5.57818736e-05 -5.06536937e-06  3.67542386e-05
 -1.01140392e-05 -1.66678725e-04  1.03499607e-04 -1.07533412e-05 -1.53598988e-04
 -1.07713364e-05 -1.44460870e-04 -7.77594091e-05  8.34371969e-06  1.79650291e-04
  7.89668587e-06  3.46677013e-04 -8.13726276e-04 -4.08745181e-05  1.87173239e-04
 -1.12925933e-04 -8.11827248e-05  1.49014146e-04  3.45378922e-04 -3.34982357e-05
 -1.25702069e-04  4.46112027e-05 -1.08244900e-04 -9.83173242e-05 -5.83026426e-05
  4.29683490e-05  1.01388321e-04  1.03250525e-04  1.23543657e-04  1.09342796e-04
  4.30178013e-05  2.59989482e-05 -1.48221289e-06  1.73504550e-05 -1.61570502e-06
 -1.72935887e-05 -1.36427483e-05 -1.68912521e-05 -1.32712184e-05  3.91509930e-06
  7.45005924e-06  2.29367064e-05  7.08116875e-05  3.42275322e-06  1.27751061e-06
 -5.02709819e-06 -7.62106427e-05 -5.21462625e-05  1.04941060e-05 -3.37329443e-05
 -1.15663012e-04  2.84322949e-05 -2.78227839e-05  2.55341674e-06 -1.75559744e-05
 -3.56584403e-07  5.51809129e-06 -5.85136293e-06 -1.91765060e-06  1.56557875e-07
 -4.09629450e-08  8.07184736e-07 -6.16578679e-07  8.98390995e-08 -4.06719133e-07
 -4.09155605e-07  4.85696961e-06 -2.37966757e-06  3.94565583e-06 -5.64331232e-06
  7.89584724e-08 -6.15111205e-07 -1.46035225e-07  7.92507602e-07  1.02687383e-06
 -1.27394409e-05 -1.16547809e-04  7.23013216e-05  1.00245897e-05 -2.15708524e-04
 -5.75681991e-04  1.03497991e-02 -8.70291112e-03  5.13389944e-04 -5.43074116e-03
  5.77887094e-06  3.57769368e-04  7.92739701e-04  1.25680272e-04 -2.00947143e-04
  2.19926541e-06  3.79471503e-04  1.62908373e-04 -1.65376638e-04  7.54130500e-04
 -1.23598805e-05 -1.20714979e-04 -1.46065638e-04  4.11589525e-05  1.58887105e-04
  1.65397257e-06  1.88441488e-06 -1.01537358e-06  4.86062981e-06  3.46829974e-07
 -1.53319880e-07 -2.94252127e-08 -2.31169937e-08 -1.65120502e-07 -9.17249341e-08
  1.13347143e-04  1.53187255e-04  1.36908544e-05  1.11875627e-04 -9.88996148e-01
 -5.90306584e-02 -1.14954204e-03 -8.36614569e-05 -5.21713191e-04  8.45202779e-10
 -4.49812615e-08 -1.30376265e-08  2.40241483e-08 -1.36029303e-08  1.24411776e-02
  6.77178732e-09  5.21083841e-09  2.05058186e-08  1.31579521e-02  8.39628192e-10
 -2.02473868e-06  5.24147143e-05  3.74117135e-05 -5.78866216e-06  2.85463689e-05
 -3.74173435e-04 -2.21668839e-05  1.67579723e-04 -7.70870081e-06  2.98257694e-05
 -8.26102595e-06 -5.44880276e-05  4.59128289e-06 -1.50062012e-04  2.95715984e-04
 -5.67497010e-04  9.48992653e-03  7.07668264e-03  4.33791809e-03 -3.09339239e-03
 -9.28894539e-06 -2.16046989e-05  1.53738140e-04  1.62513939e-04 -8.80846253e-05
 -2.20701196e-06  2.37981562e-05 -4.41656164e-05  2.24753622e-05  8.85960432e-05
  1.31781242e-07 -3.07193293e-06  5.42142345e-07 -3.01209369e-07 -2.14650579e-06
 -1.94009396e-08 -4.07730573e-07  3.75559751e-08 -2.46231840e-08  9.28794629e-08
 -1.20816761e-07  1.09414792e-06  1.70265376e-06  3.00984083e-08 -1.47206509e-07
 -1.03014085e-07  1.76522298e-06  7.06756638e-07 -8.02976573e-07  1.66061380e-06
 -8.61120345e-08  1.40489132e-07  3.38266430e-07  2.14348357e-06  5.47860624e-06
  2.81227542e-04  8.81346466e-05 -1.59163933e-05 -9.89164180e-01 -5.70228273e-02
  5.58013760e-03 -1.92076767e-03  4.34051454e-03 -5.45248130e-05 -1.64549513e-04
  4.48912219e-06  4.15314745e-07  4.24199943e-07  8.98704941e-06 -4.85326331e-06
 -1.41931155e-07  1.26985392e-07  1.36920322e-08  9.98510919e-08 -5.78428859e-04
  9.85281717e-03  6.57592728e-04 -8.75640928e-03 -6.19182220e-04  1.11934901e-07
 -2.09736683e-05 -6.70036063e-05  1.27380531e-02  9.57998017e-08 -2.94472299e-04
  2.18550001e-03  8.17867860e-04  1.16159300e-03  1.97565846e-04  1.30012633e-04
 -9.65082369e-04  8.84345384e-03  5.81953454e-03  2.32606254e-03 -2.47377856e-03
 -9.89215459e-01 -5.42856455e-02  6.87952731e-05 -2.66128953e-04  4.83644830e-05
  9.84676388e-03  9.72134081e-03 -5.95231330e-03  1.04075421e-03 -5.06788395e-03
  1.77082929e-03  8.99323826e-04  3.97302927e-04  4.26243432e-04 -7.08173231e-04
 -6.62166431e-04  1.04359775e-02 -7.50523610e-04 -1.86124191e-03  3.62432581e-03
  1.57018058e-04  2.37104628e-04  1.05604144e-04 -6.94334997e-05 -1.09723694e-04
  2.82143422e-06 -2.19453264e-05 -9.46408129e-07  3.11541068e-07  5.47063605e-06
  1.68780766e-05 -1.37607698e-06  1.97903505e-05  7.94205507e-06 -7.58933922e-06
  1.02624005e-04  2.32045521e-04  8.72371330e-05 -5.06298470e-05  1.08625453e-04
  4.78015547e-04 -1.02315805e-05  4.63725541e-04  4.91249732e-05  3.54124890e-04
  2.64876942e-05  9.55369660e-05  3.90294435e-07 -2.78781552e-05 -1.57399673e-04
 -7.18152189e-05 -2.48958534e-05  1.43529843e-04  5.90225532e-04  4.24572047e-04
 -3.55582521e-06  1.06232487e-05  9.77039456e-06  5.03884877e-04 -7.88307964e-07
  4.21592576e-06  5.56503593e-06  3.17487294e-07  1.84928765e-06  2.04093291e-04
 -1.55197979e-04 -8.45927930e-05 -3.26352545e-04 -9.33232033e-06  2.02027926e-06
  1.17703043e-05  8.36630523e-04  5.04284975e-04  1.47329068e-06  5.09150349e-05
  9.25165098e-03  6.67924362e-04 -2.21023095e-04  3.46299034e-05 -1.36248164e-04
  1.26052903e-06 -5.09572893e-06  1.17603341e-06 -1.69543665e-06  2.89572595e-06
  2.21855698e-05 -5.79171793e-06  4.21469023e-06 -3.24771807e-06  5.58887281e-06
 -8.08854338e-06 -1.94305561e-06  8.76861953e-07  2.59754123e-07  5.55950770e-07
 -1.37304192e-04 -9.00451435e-06  5.92164400e-06 -3.73376411e-06  4.98240099e-06
  9.12580549e-07 -2.23290374e-06  6.22040505e-06  3.00824925e-07  7.51612937e-06
  1.89838071e-03  3.50855937e-04 -4.96827460e-04  4.41064620e-05  1.25691947e-05
 -9.88457949e-01 -6.11606519e-02 -2.33785292e-03  1.18003734e-03 -1.00913331e-03
  1.22148183e-02  1.31048370e-02 -1.70840985e-04  1.12783126e-03 -9.14195503e-03
  1.18259160e-02  1.32251957e-02 -8.26934784e-03  2.60813583e-04  4.15600773e-03
  1.69683670e-03  3.03661997e-04 -1.87963589e-04  8.01226466e-05 -4.48104150e-04
 -1.03392038e-06 -8.51023339e-06 -1.49153037e-06  4.47056280e-09  5.34638336e-08
  4.22136551e-08 -3.85295031e-08 -1.78572405e-08  1.71370668e-07  1.53061752e-07
  8.87093220e-05  3.00980679e-04  2.74003872e-04  8.54110335e-05 -9.80623214e-04
  8.71834687e-03  5.41422790e-03 -5.87745187e-04  3.76488563e-03 -4.22987965e-08
  1.00339349e-08 -3.12887274e-09  1.50299076e-08  4.41510848e-08  1.24477136e-03
 -1.83753521e-08 -6.70074149e-09 -9.73820695e-08  9.76001887e-04  1.57355452e-08
  9.86945612e-01  6.06238626e-02 -2.50176899e-03  1.26967587e-04 -1.40338026e-03
  9.11328483e-04 -7.61938659e-03  5.42495353e-03 -8.81535975e-04  3.75311351e-03
  2.29746314e-03 -7.78783056e-04  9.99807982e-04 -1.54266139e-05  1.69893332e-04
 -2.23355172e-03 -3.28684047e-04  1.01703633e-04  1.67524115e-05  1.02479653e-04
 -5.26129181e-02 -3.99198222e-03  3.46097646e-04 -3.48746760e-04  9.11578655e-04
  1.12392212e-06  8.84623516e-05  3.08882366e-05 -7.50959429e-05  8.38192479e-05
 -1.62737000e-02 -1.32499479e-02 -8.17592795e-03  7.50722124e-05  4.08375187e-03
  9.18400409e-03  4.53977936e-04 -1.82937359e-04  1.24632553e-05 -1.18987100e-04
 -1.83383948e-03 -4.78458127e-04 -1.11778664e-04  4.31649123e-05 -2.83591961e-04
 -1.82791523e-03 -5.31243428e-04 -3.24359916e-04  1.60213095e-05 -4.76464813e-06
 -1.50078654e-02 -1.32065078e-02 -1.98872058e-04  9.57697113e-04 -9.11869733e-03
  4.87780182e-04  3.43123763e-04  6.34564459e-04  9.08341514e-07  1.19009771e-05
  5.36952089e-06 -8.58312212e-06  3.51450674e-06  4.50403933e-05  5.70369827e-05
 -1.80160318e-04 -6.05475170e-05 -6.59372824e-05 -2.53560967e-04  1.65768222e-05
 -1.55129914e-04 -9.66866437e-05  6.69233685e-06 -6.54109435e-05 -1.89802783e-06
  2.29653195e-06  1.59900180e-07 -1.68600592e-06  2.54639289e-06 -1.33790285e-05
 -1.31028831e-06  3.01466838e-06 -9.11581104e-06 -1.39602174e-05  7.91093963e-07
  5.27743497e-02  2.60543481e-03 -7.99835817e-04  3.07561120e-04 -1.00614396e-03
  1.09810374e-03 -9.08997388e-03  8.44263406e-04  3.01402498e-03 -6.23992306e-03
  1.97921936e-03 -5.77547873e-04  9.08646493e-04  3.86412026e-04 -5.61259973e-04
 -1.15229277e-02 -9.07155214e-04  5.83008698e-04  2.64201615e-04 -1.74563870e-05
  9.86875972e-01  6.20048820e-02  1.15115376e-04 -2.28602554e-04  4.26475890e-04
  2.37970514e-05 -2.21143677e-04 -3.55572106e-05  5.43201284e-05 -1.06747818e-04
 -2.47288936e-03 -7.91807472e-04 -1.11238919e-03  1.24378767e-04 -3.64930356e-05
  3.41595022e-04  3.88344837e-05 -1.16366151e-05 -9.59278366e-07 -2.11014680e-06
 -4.99613128e-04 -3.17471206e-04 -1.78142909e-04  7.29129717e-06 -6.58629960e-05
 -1.65868094e-04 -3.46136380e-05 -2.42220880e-05  9.45726179e-06 -2.05955517e-05
 -1.43900503e-03 -1.00361274e-03  1.01224787e-05  2.32149463e-05 -6.81592954e-04
 -1.26848313e-02 -1.26069117e-02 -1.27019448e-02  8.59204040e-06 -7.22038619e-05
  4.30918594e-05  4.58672477e-05 -1.25811473e-05  3.68121752e-04 -3.21941076e-04
 -5.98009869e-04 -1.04614215e-05 -1.31707474e-05 -1.16501348e-05  1.59378129e-06
 -1.10858971e-05 -7.34771131e-06  1.20832789e-06 -7.59888407e-06  2.66894712e-05
  7.68442376e-07 -1.43877984e-05 -9.38159622e-07  1.39259250e-05 -1.86977389e-06
  2.47270213e-06 -5.30925326e-06 -1.08159325e-05 -1.44647528e-06  8.02725124e-06
  2.85109156e-03  1.42488683e-04 -2.43806484e-04 -6.58361638e-05  6.58123180e-05
  6.48265167e-05 -3.70855804e-04 -1.20378244e-04 -1.20548103e-04  3.06525618e-04
  1.15581243e-02 -9.62832516e-03 -6.64678808e-03  6.74579045e-04 -4.99315552e-03
  9.88207586e-01  6.14900895e-02 -7.02549567e-04 -6.37439388e-04  2.94401928e-05
  1.14717162e-02  5.85261606e-04 -4.91466053e-04 -4.41140418e-04  3.04629186e-04
  3.28797384e-05 -2.44397078e-04  3.59386575e-04  2.06959535e-05  2.07885630e-04
 -2.54240640e-04 -1.34081204e-04 -8.00694221e-05  2.14725121e-05  4.79453842e-05
  1.46203005e-05  4.37132184e-06 -3.24012919e-07 -4.03333850e-07 -8.25093810e-07
 -1.48419340e-05 -1.52990593e-06 -2.04789679e-06 -2.28615880e-06 -1.00340621e-06
 -8.72733614e-05 -5.38125947e-05 -2.26980066e-05  1.11672667e-05 -2.21851894e-05
 -3.65929430e-04 -3.11794366e-05 -1.02859965e-04 -4.42115878e-06 -8.18633971e-05
 -8.57816131e-04 -3.64668419e-04 -4.78162844e-05  1.01739625e-03 -8.18332116e-03
  5.06802113e-03  3.63100501e-03 -2.66658037e-03 -1.25254664e-02 -1.24287061e-02
 -2.19530630e-05 -1.78005523e-06 -1.55403284e-06 -3.85630698e-05  1.56280881e-07
 -9.15863338e-07 -1.24985954e-06  6.82205034e-08 -3.38384150e-07 -6.33887267e-03
 -1.27081362e-03  6.35812665e-04  1.11807063e-03 -3.98402539e-04 -4.34979054e-07
  1.21018198e-04 -1.34162834e-04 -1.26358811e-03 -3.40693600e-07 -2.86785673e-04
  1.64096640e-05 -1.78778804e-06 -8.21439994e-06 -1.98910264e-06 -4.10403242e-06
  5.39743260e-06 -4.14388544e-05 -4.27282141e-05  1.19057969e-05  1.56028799e-05
  3.21210435e-04 -1.07870819e-04 -1.42503082e-04 -9.49480093e-05 -4.50043426e-06
  6.61605720e-03 -4.24010325e-04 -4.82416435e-04 -1.31174361e-03  2.29103193e-04
  4.81989239e-05  3.72308797e-06 -1.12419944e-05 -8.60745648e-06  1.41336462e-05
  6.09622992e-06 -1.44573380e-06 -1.09331454e-04 -4.00931359e-05  2.45196432e-05
 -8.62453236e-05 -6.54980642e-06 -1.24232592e-06  4.30232696e-07  1.05832786e-06
 -3.07261153e-07  2.23749989e-07  7.17584841e-08  3.12789005e-09 -5.83663939e-08
  2.84815574e-06  1.01470163e-06  4.16226220e-07 -8.59447532e-08  3.34567406e-07
 -7.03267946e-06 -1.44557035e-06 -3.06098522e-07  4.13870469e-07 -5.48031053e-07
 -7.34554262e-05 -3.96442420e-06 -2.94669628e-06 -5.26230982e-07 -3.76106213e-06