      -----------------------------------------------------------      
     |                   =====================                   |     
     |                           x T B                           |     
     |                   =====================                   |     
     |                         S. Grimme                         |     
     |          Mulliken Center for Theoretical Chemistry        |     
     |                    University of Bonn                     |     
      -----------------------------------------------------------      

   * xtb version 6.5.0 (97a52f5) compiled by 'conda@d2599ee0d4f4' on 2022-05-15

   xtb is free software: you can redistribute it and/or modify it under
   the terms of the GNU Lesser General Public License as published by
   the Free Software Foundation, either version 3 of the License, or
   (at your option) any later version.
   
   xtb is distributed in the hope that it will be useful,
   but WITHOUT ANY WARRANTY; without even the implied warranty of
   MERCHANTABILITY or FITNESS FOR A PARTICULAR PURPOSE.  See the
   GNU Lesser General Public License for more details.
   
   Cite this work as:
   * C. Bannwarth, E. Caldeweyher, S. Ehlert, A. Hansen, P. Pracht,
     J. Seibert, S. Spicher, S. Grimme, WIREs Comput. Mol. Sci., 2020, 11,
     e01493. DOI: 10.1002/wcms.1493
   
   for GFN2-xTB:
   * C. Bannwarth, S. Ehlert and S. Grimme., J. Chem. Theory Comput., 2019,
     15, 1652-1671. DOI: 10.1021/acs.jctc.8b01176
   for GFN1-xTB:
   * S. Grimme, C. Bannwarth, P. Shushkov, J. Chem. Theory Comput., 2017,
     13, 1989-2009. DOI: 10.1021/acs.jctc.7b00118
   for GFN0-xTB:
   * P. Pracht, E. Caldeweyher, S. Ehlert, S. Grimme, ChemRxiv, 2019, preprint.
     DOI: 10.26434/chemrxiv.8326202.v1
   for GFN-FF:
   * S. Spicher and S. Grimme, Angew. Chem. Int. Ed., 2020, 59, 15665-15673.
     DOI: 10.1002/anie.202004239
   
   for ALPB and GBSA implicit solvation:
   * S. Ehlert, M. Stahn, S. Spicher, S. Grimme, J. Chem. Theory Comput.,
     2021, 17, 4250-4261. DOI: 10.1021/acs.jctc.1c00471
   
   for DFT-D4:
   * E. Caldeweyher, C. Bannwarth and S. Grimme, J. Chem. Phys., 2017,
     147, 034112. DOI: 10.1063/1.4993215
   * E. Caldeweyher, S. Ehlert, A. Hansen, H. Neugebauer, S. Spicher,
     C. Bannwarth and S. Grimme, J. Chem. Phys., 2019, 150, 154122.
     DOI: 10.1063/1.5090222
   * E. Caldeweyher, J.-M. Mewes, S. Ehlert and S. Grimme, Phys. Chem. Chem. Phys.
     2020, 22, 8499-8512. DOI: 10.1039/D0CP00502A
   
   for sTDA-xTB:
   * S. Grimme and C. Bannwarth, J. Chem. Phys., 2016, 145, 054103.
     DOI: 10.1063/1.4959605
   
   in the mass-spec context:
   * V. Asgeirsson, C. Bauer and S. Grimme, Chem. Sci., 2017, 8, 4879.
     DOI: 10.1039/c7sc00601b
   * J. Koopman and S. Grimme, ACS Omega 2019, 4, 12, 15120-15133.
     DOI: 10.1021/acsomega.9b02011
   
   for metadynamics refer to:
   * S. Grimme, J. Chem. Theory Comput., 2019, 155, 2847-2862
     DOI: 10.1021/acs.jctc.9b00143
   
   for SPH calculations refer to:
   * S. Spicher and S. Grimme, J. Chem. Theory Comput., 2021, 17, 1701-1714
     DOI: 10.1021/acs.jctc.0c01306
   
   with help from (in alphabetical order)
   P. Atkinson, C. Bannwarth, F. Bohle, G. Brandenburg, E. Caldeweyher
   M. Checinski, S. Dohm, S. Ehlert, S. Ehrlich, I. Gerasimov, C. Hölzer
   A. Katbashev, J. Koopman, C. Lavigne, S. Lehtola, F. März, M. Müller,
   F. Musil, H. Neugebauer, J. Pisarek, C. Plett, P. Pracht, F. Pultar,
   J. Seibert, P. Shushkov, S. Spicher, M. Stahn, M. Steiner, T. Strunk,
   J. Stückrath, T. Rose, and J. Unsleber
   
 * started run on 2023/11/18 at 08:11:35.183     

           -------------------------------------------------
          |                Calculation Setup                |
           -------------------------------------------------

          program call               : /home/liuchw/anaconda3/envs/xtbenv/bin/xtb --gfn 2 --chrg 0 --uhf 0 4_27_Index_0-opt-2-3-249_preQMOPTprefit_xyzformat.xyz --opt --input xtb-opt-2-3-249_constr.txt
          hostname                   : node165.bme.utexas.edu
          coordinate file            : 4_27_Index_0-opt-2-3-249_preQMOPTprefit_xyzformat.xyz
          omp threads                :                    64

   ID    Z sym.   atoms
    1    6 C      1, 3-5
    2    7 N      2
    3    1 H      6, 7, 9-15
    4    8 O      8
constraining angle 5 2 3 4 to  249.0545891°, actual value: -110.9454109°
constraining angle 2 3 4 8 to  359.0181612°, actual value:   -0.9818388°
constraining angle 10 5 2 1 to  175.9823278°, actual value:  175.9823278°
constraining angle 13 1 2 5 to  301.0244046°, actual value:  -58.9755954°

           -------------------------------------------------
          |                 G F N 2 - x T B                 |
           -------------------------------------------------

        Reference                      10.1021/acs.jctc.8b01176
      * Hamiltonian:
        H0-scaling (s, p, d)           1.850000    2.230000    2.230000
        zeta-weighting                 0.500000
      * Dispersion:
        s8                             2.700000
        a1                             0.520000
        a2                             5.000000
        s9                             5.000000
      * Repulsion:
        kExp                           1.500000    1.000000
        rExp                           1.000000
      * Coulomb:
        alpha                          2.000000
        third order                    shell-resolved
        anisotropic                    true
        a3                             3.000000
        a5                             4.000000
        cn-shift                       1.200000
        cn-exp                         4.000000
        max-rad                        5.000000

q/qsh data taken from xtbrestart
CAMM data taken from xtbrestart

          ...................................................
          :                      SETUP                      :
          :.................................................:
          :  # basis functions                  33          :
          :  # atomic orbitals                  33          :
          :  # shells                           21          :
          :  # electrons                        36          :
          :  max. iterations                   250          :
          :  Hamiltonian                  GFN2-xTB          :
          :  restarted?                       true          :
          :  GBSA solvation                  false          :
          :  PC potential                    false          :
          :  electronic temp.          300.0000000     K    :
          :  accuracy                    1.0000000          :
          :  -> integral cutoff          0.2500000E+02      :
          :  -> integral neglect         0.1000000E-07      :
          :  -> SCF convergence          0.1000000E-05 Eh   :
          :  -> wf. convergence          0.1000000E-03 e    :
          :  Broyden damping             0.4000000          :
          ...................................................

 iter      E             dE          RMSdq      gap      omega  full diag
   1    -20.3003305 -0.203003E+02  0.137E+00    2.07       0.0  T
   2    -20.3006079 -0.277342E-03  0.806E-01    2.10       1.0  T
   3    -20.3005576  0.502394E-04  0.112E-01    2.06       1.0  T
   4    -20.3006755 -0.117846E-03  0.362E-02    2.10       1.0  T
   5    -20.3006800 -0.446956E-05  0.190E-02    2.09       1.4  T
   6    -20.3006806 -0.642526E-06  0.591E-03    2.09       4.4  T
   7    -20.3006807 -0.647549E-07  0.245E-03    2.09      10.5  T
   8    -20.3006807 -0.125539E-07  0.859E-04    2.09      30.0  T
   9    -20.3006807 -0.118717E-08  0.215E-04    2.09     119.9  T

   *** convergence criteria satisfied after 9 iterations ***

         #    Occupation            Energy/Eh            Energy/eV
      -------------------------------------------------------------
         1        2.0000           -0.7166314             -19.5005
       ...           ...                  ...                  ...
        12        2.0000           -0.4946459             -13.4600
        13        2.0000           -0.4779057             -13.0045
        14        2.0000           -0.4659343             -12.6787
        15        2.0000           -0.4611248             -12.5478
        16        2.0000           -0.4543501             -12.3635
        17        2.0000           -0.4152714             -11.3001
        18        2.0000           -0.3510228              -9.5518 (HOMO)
        19                         -0.2740796              -7.4581 (LUMO)
        20                         -0.0149096              -0.4057
        21                          0.0229987               0.6258
        22                          0.0554310               1.5084
        23                          0.1002867               2.7289
       ...                                ...                  ...
        33                          0.5352552              14.5650
      -------------------------------------------------------------
                  HL-Gap            0.0769433 Eh            2.0937 eV
             Fermi-level           -0.3125512 Eh           -8.5050 eV

 SCC (total)                   0 d,  0 h,  0 min,  1.441 sec
 SCC setup                      ...        0 min,  0.024 sec (  1.643%)
 Dispersion                     ...        0 min,  0.048 sec (  3.298%)
 classical contributions        ...        0 min,  0.040 sec (  2.785%)
 integral evaluation            ...        0 min,  0.087 sec (  6.067%)
 iterations                     ...        0 min,  1.032 sec ( 71.622%)
 molecular gradient             ...        0 min,  0.210 sec ( 14.541%)
 printout                       ...        0 min,  0.000 sec (  0.016%)

         :::::::::::::::::::::::::::::::::::::::::::::::::::::
         ::                     SUMMARY                     ::
         :::::::::::::::::::::::::::::::::::::::::::::::::::::
         :: total energy             -20.093999010660 Eh    ::
         :: gradient norm              0.064272198193 Eh/a0 ::
         :: HOMO-LUMO gap              2.093733299611 eV    ::
         ::.................................................::
         :: SCC energy               -20.300680678219 Eh    ::
         :: -> isotropic ES            0.027555529324 Eh    ::
         :: -> anisotropic ES          0.005114932669 Eh    ::
         :: -> anisotropic XC          0.013264637651 Eh    ::
         :: -> dispersion             -0.008552638925 Eh    ::
         :: repulsion energy           0.206662733194 Eh    ::
         :: add. restraining           0.000000000000 Eh    ::
         :: total charge               0.000000000000 e     ::
         :::::::::::::::::::::::::::::::::::::::::::::::::::::

      ----------------------------------------------------------- 
     |                   =====================                   |
     |                        A N C O P T                        |
     |                   =====================                   |
     |               Approximate Normal Coordinate               |
     |                Rational Function Optimizer                |
      ----------------------------------------------------------- 

          ...................................................
          :                      SETUP                      :
          :.................................................:
          :   optimization level            normal          :
          :   max. optcycles                   200          :
          :   ANC micro-cycles                  20          :
          :   degrees of freedom                39          :
          :.................................................:
          :   RF solver                   davidson          :
          :   write xtbopt.log                true          :
          :   linear?                        false          :
          :   energy convergence         0.5000000E-05 Eh   :
          :   grad. convergence          0.1000000E-02 Eh/α :
          :   maximium RF displ.         1.0000000          :
          :   Hlow (freq-cutoff)         0.1000000E-01      :
          :   Hmax (freq-cutoff)         5.0000000          :
          :   S6 in model hess.         20.0000000          :
          ...................................................

generating ANC from model Hessian ...
Using Lindh-Hessian (1995)
 Shifting diagonal of input Hessian by    4.3791754693284788E-003
 Lowest  eigenvalues of input Hessian
    0.000000    0.000000    0.000000    0.000000    0.000000    0.000000
    0.010000    0.011590    0.015648    0.020424    0.026506    0.033154
    0.035390    0.047136    0.058565    0.061652    0.065968    0.068222
 Highest eigenvalues
    1.405500    2.049696    2.472739    4.315300    7.823223   15.886411


........................................................................
.............................. CYCLE    1 ..............................
........................................................................
   1    -20.3006807 -0.203007E+02  0.687E-05    2.09       0.0  T
   2    -20.3006807 -0.628120E-11  0.366E-05    2.09     705.1  T
   3    -20.3006807 -0.266454E-12  0.157E-05    2.09    1645.3  T
     SCC iter.                  ...        0 min,  0.332 sec
     gradient                   ...        0 min,  0.190 sec
 * total energy  :   -20.0939990 Eh     change       -0.5945822E-10 Eh
   gradient norm :     0.0642706 Eh/α   predicted     0.0000000E+00 (-100.00%)
   displ. norm   :     0.2918854 α      lambda       -0.9350973E-02
   maximum displ.:     0.1381489 α      in ANC's #9, #15, #1, ...

........................................................................
.............................. CYCLE    2 ..............................
........................................................................
   1    -20.3283801 -0.203284E+02  0.299E-01    2.32       0.0  T
   2    -20.3284446 -0.644439E-04  0.178E-01    2.30       1.0  T
   3    -20.3284324  0.121502E-04  0.563E-02    2.31       1.0  T
   4    -20.3284542 -0.217500E-04  0.108E-02    2.30       2.4  T
   5    -20.3284547 -0.499524E-06  0.488E-03    2.30       5.3  T
   6    -20.3284547 -0.447226E-07  0.172E-03    2.30      15.0  T
   7    -20.3284547 -0.347097E-08  0.611E-04    2.30      42.2  T
   8    -20.3284547 -0.571330E-09  0.202E-04    2.30     127.8  T
     SCC iter.                  ...        0 min,  0.900 sec
     gradient                   ...        0 min,  0.197 sec
 * total energy  :   -20.0999137 Eh     change       -0.5914724E-02 Eh
   gradient norm :     0.0202725 Eh/α   predicted    -0.5073826E-02 ( -14.22%)
   displ. norm   :     0.2349066 α      lambda       -0.1636118E-02
   maximum displ.:     0.1430096 α      in ANC's #1, #2, #5, ...

........................................................................
.............................. CYCLE    3 ..............................
........................................................................
   1    -20.3365363 -0.203365E+02  0.168E-01    2.30       0.0  T
   2    -20.3365449 -0.859601E-05  0.994E-02    2.31       1.0  T
   3    -20.3365441  0.820913E-06  0.173E-02    2.32       1.5  T
   4    -20.3365464 -0.231561E-05  0.554E-03    2.31       4.7  T
   5    -20.3365465 -0.104191E-06  0.226E-03    2.31      11.4  T
   6    -20.3365465 -0.629753E-08  0.586E-04    2.31      44.1  T
   7    -20.3365465 -0.851994E-09  0.257E-04    2.31     100.3  T
     SCC iter.                  ...        0 min,  0.859 sec
     gradient                   ...        0 min,  0.235 sec
 * total energy  :   -20.1009165 Eh     change       -0.1002762E-02 Eh
   gradient norm :     0.0202013 Eh/α   predicted    -0.8631949E-03 ( -13.92%)
   displ. norm   :     0.1811883 α      lambda       -0.4939795E-03
   maximum displ.:     0.0921087 α      in ANC's #4, #1, #2, ...

........................................................................
.............................. CYCLE    4 ..............................
........................................................................
   1    -20.3368770 -0.203369E+02  0.113E-01    2.25       0.0  T
   2    -20.3368803 -0.334466E-05  0.662E-02    2.26       1.0  T
   3    -20.3368807 -0.399192E-06  0.675E-03    2.26       3.8  T
   4    -20.3368808 -0.103276E-06  0.277E-03    2.26       9.3  T
   5    -20.3368809 -0.102616E-07  0.122E-03    2.26      21.2  T
   6    -20.3368809 -0.442089E-08  0.387E-04    2.26      66.8  T
   7    -20.3368809 -0.410786E-09  0.186E-04    2.26     139.1  T
     SCC iter.                  ...        0 min,  0.813 sec
     gradient                   ...        0 min,  0.215 sec
 * total energy  :   -20.1011500 Eh     change       -0.2335028E-03 Eh
   gradient norm :     0.0446013 Eh/α   predicted    -0.2550980E-03 (   9.25%)
   displ. norm   :     0.2191074 α      lambda       -0.4822029E-03
   maximum displ.:     0.1401311 α      in ANC's #4, #2, #3, ...

........................................................................
.............................. CYCLE    5 ..............................
........................................................................
   1    -20.3349143 -0.203349E+02  0.132E-01    2.17       0.0  T
   2    -20.3349204 -0.604559E-05  0.767E-02    2.18       1.0  T
   3    -20.3349206 -0.249920E-06  0.118E-02    2.18       2.2  T
   4    -20.3349211 -0.494250E-06  0.369E-03    2.18       7.0  T
   5    -20.3349212 -0.457857E-07  0.185E-03    2.18      14.0  T
   6    -20.3349212 -0.759269E-08  0.451E-04    2.18      57.2  T
   7    -20.3349212 -0.524221E-09  0.215E-04    2.18     120.1  T
     SCC iter.                  ...        0 min,  0.748 sec
     gradient                   ...        0 min,  0.200 sec
 * total energy  :   -20.1012628 Eh     change       -0.1128317E-03 Eh
   gradient norm :     0.0377752 Eh/α   predicted    -0.2526765E-03 ( 123.94%)
   displ. norm   :     0.0429397 α      lambda       -0.2234320E-03
   maximum displ.:     0.0228221 α      in ANC's #4, #5, #8, ...

........................................................................
.............................. CYCLE    6 ..............................
........................................................................
   1    -20.3363027 -0.203363E+02  0.409E-02    2.20       0.0  T
   2    -20.3363034 -0.689160E-06  0.238E-02    2.21       1.1  T
   3    -20.3363034  0.320036E-07  0.485E-03    2.21       5.3  T
   4    -20.3363035 -0.133116E-06  0.164E-03    2.21      15.7  T
   5    -20.3363035 -0.960879E-08  0.697E-04    2.21      37.0  T
   6    -20.3363035 -0.408260E-09  0.162E-04    2.21     159.5  T
     SCC iter.                  ...        0 min,  0.705 sec
     gradient                   ...        0 min,  0.218 sec
 * total energy  :   -20.1013815 Eh     change       -0.1186643E-03 Eh
   gradient norm :     0.0076678 Eh/α   predicted    -0.1119201E-03 (  -5.68%)
   displ. norm   :     0.0399989 α      lambda       -0.4566567E-04
   maximum displ.:     0.0251873 α      in ANC's #4, #3, #2, ...

........................................................................
.............................. CYCLE    7 ..............................
........................................................................
   1    -20.3368202 -0.203368E+02  0.271E-02    2.19       0.0  T
   2    -20.3368205 -0.258410E-06  0.157E-02    2.20       1.6  T
   3    -20.3368205  0.354579E-07  0.337E-03    2.20       7.7  T
   4    -20.3368205 -0.767587E-07  0.782E-04    2.20      33.0  T
   5    -20.3368205 -0.222121E-08  0.367E-04    2.20      70.3  T
     SCC iter.                  ...        0 min,  0.578 sec
     gradient                   ...        0 min,  0.237 sec
 * total energy  :   -20.1014086 Eh     change       -0.2714782E-04 Eh
   gradient norm :     0.0054052 Eh/α   predicted    -0.2287117E-04 ( -15.75%)
   displ. norm   :     0.0540544 α      lambda       -0.2179737E-04
   maximum displ.:     0.0299194 α      in ANC's #2, #4, #3, ...

........................................................................
.............................. CYCLE    8 ..............................
........................................................................
   1    -20.3369307 -0.203369E+02  0.403E-02    2.18       0.0  T
   2    -20.3369311 -0.414952E-06  0.236E-02    2.19       1.1  T
   3    -20.3369311  0.835306E-07  0.442E-03    2.19       5.8  T
   4    -20.3369312 -0.165751E-06  0.105E-03    2.19      24.6  T
   5    -20.3369312 -0.285437E-08  0.541E-04    2.19      47.7  T
   6    -20.3369312 -0.445777E-09  0.167E-04    2.19     154.8  T
     SCC iter.                  ...        0 min,  0.676 sec
     gradient                   ...        0 min,  0.206 sec
 * total energy  :   -20.1014202 Eh     change       -0.1156269E-04 Eh
   gradient norm :     0.0021690 Eh/α   predicted    -0.1093190E-04 (  -5.46%)
   displ. norm   :     0.0165708 α      lambda       -0.3189781E-05
   maximum displ.:     0.0106654 α      in ANC's #1, #4, #3, ...

........................................................................
.............................. CYCLE    9 ..............................
........................................................................
   1    -20.3371674 -0.203372E+02  0.101E-02    2.18       0.0  T
   2    -20.3371674 -0.192119E-07  0.591E-03    2.18       4.4  T
   3    -20.3371674 -0.366751E-08  0.536E-04    2.18      48.2  T
   4    -20.3371674 -0.291909E-09  0.224E-04    2.18     115.1  T
     SCC iter.                  ...        0 min,  0.484 sec
     gradient                   ...        0 min,  0.217 sec
 * total energy  :   -20.1014215 Eh     change       -0.1313530E-05 Eh
   gradient norm :     0.0005627 Eh/α   predicted    -0.1597404E-05 (  21.61%)
   displ. norm   :     0.0076413 α      lambda       -0.5743194E-06
   maximum displ.:     0.0069804 α      in ANC's #2, #4, #1, ...

   *** GEOMETRY OPTIMIZATION CONVERGED AFTER 9 ITERATIONS ***

------------------------------------------------------------------------
 total energy gain   :        -0.0074225 Eh       -4.6577 kcal/mol
 total RMSD          :         0.2218931 a0        0.1174 Å
 total power (kW/mol):        -2.1653105 (step)   -2.0361 (real)
------------------------------------------------------------------------

 ANCopt (total)                0 d,  0 h,  0 min,  9.571 sec
 optimizer setup                ...        0 min,  0.000 sec (  0.003%)
 model hessian                  ...        0 min,  0.007 sec (  0.070%)
 ANC generation                 ...        0 min,  0.001 sec (  0.008%)
 coordinate transformation      ...        0 min,  0.000 sec (  0.003%)
 single point calculation       ...        0 min,  9.376 sec ( 97.958%)
 optimization log               ...        0 min,  0.012 sec (  0.122%)
 hessian update                 ...        0 min,  0.173 sec (  1.804%)
 rational function              ...        0 min,  0.002 sec (  0.019%)

================
 final structure:
================
15
 xtb: 6.5.0 (97a52f5)
C            1.59848688588562       -0.33175140329289       -0.33935034132506
N            0.58486674076605        0.59663370160068        0.10652429609725
C           -0.77581996947550        0.11155843232423        0.16422757289187
C           -1.06717731599242       -1.35416529896466        0.37133181648383
C            0.99917938989391        1.40848976569043        1.22566488133457
H           -1.33494206626099        0.66594350487948        0.92253232861986
H           -1.26401610686155        0.33624635724168       -0.80185000371990
O           -0.29947821338256       -2.26565715320093        0.49266664360610
H            1.21962312434507        0.82143546445073        2.13236299942471
H            0.21999356969714        2.13090834220717        1.46362376194817
H            1.23477305905676       -0.86739741458051       -1.21348631724843
H            1.89109859391618       -1.06185428707907        0.42473358217668
H            2.48123014066161        0.24302246122834       -0.62480920006087
H           -2.16460945725578       -1.53746141097783        0.35016153523099
H            1.90190862500650        1.95081693847311        0.94500042454020

 Bond Distances (Angstroems)
 ---------------------------
C1-N2=1.4450         C1-H11=1.0878        C1-H12=1.0966        C1-H13=1.0914        N2-C1=1.4450         N2-C3=1.4457         
N2-C5=1.4433         C3-N2=1.4457         C3-C4=1.5087         C3-H6=1.0932         C3-H7=1.1055         C4-C3=1.5087         
C4-O8=1.1979         C4-H14=1.1128        C5-N2=1.4433         C5-H9=1.1024         C5-H10=1.0889        C5-H15=1.0899        
H6-C3=1.0932         H7-C3=1.1055         O8-C4=1.1979         H9-C5=1.1024         H10-C5=1.0889        H11-C1=1.0878        
H12-C1=1.0966        H13-C1=1.0914        H14-C4=1.1128        H15-C5=1.0899        
 C  H  Rav=1.0965 sigma=0.0082  Rmin=1.0878  Rmax=1.1128     9
 C  C  Rav=1.5087 sigma=0.0000  Rmin=1.5087  Rmax=1.5087     1
 N  C  Rav=1.4447 sigma=0.0010  Rmin=1.4433  Rmax=1.4457     3
 O  C  Rav=1.1979 sigma=0.0000  Rmin=1.1979  Rmax=1.1979     1

 selected bond angles (degree)
 --------------------
H11-C1-N2=109.25               H12-C1-N2=113.57               H12-C1-H11=108.74              H13-C1-N2=108.04               
H13-C1-H11=108.64              H13-C1-H12=108.49              C3-N2-C1=117.19                C5-N2-C1=113.53                
C5-N2-C3=115.34                C4-C3-N2=120.88                H6-C3-N2=109.81                H6-C3-C4=107.38                
H7-C3-N2=108.21                H7-C3-C4=103.42                H7-C3-H6=106.10                O8-C4-C3=129.01                
H14-C4-C3=110.36               H14-C4-O8=120.57               H9-C5-N2=113.30                H10-C5-N2=109.71               
H10-C5-H9=108.46               H15-C5-N2=108.54               H15-C5-H9=108.13               H15-C5-H10=108.59              

 selected dihedral angles (degree)
 ---------------------------------
C3-N2-C1-H11= 44.54           C3-N2-C1-H12=282.96           C3-N2-C1-H13=162.56           C5-N2-C1-H11=183.00           
C5-N2-C1-H12= 61.42           C5-N2-C1-H13=301.02           C4-C3-N2-C1= 26.89            C4-C3-N2-C5=249.17            
H6-C3-N2-C1=152.72            H6-C3-N2-C5= 15.00            H7-C3-N2-C1=268.11            H7-C3-N2-C5=130.39            
O8-C4-C3-N2=359.05            O8-C4-C3-H6=232.11            O8-C4-C3-H7=120.19            H14-C4-C3-N2=182.06           
H14-C4-C3-H6= 55.13           H14-C4-C3-H7=303.20           H9-C5-N2-C1=297.33            H9-C5-N2-C3= 76.58            
H10-C5-N2-C1=175.96           H10-C5-N2-C3=315.22           H15-C5-N2-C1= 57.45           H15-C5-N2-C3=196.70           
           -------------------------------------------------
          |                Final Singlepoint                |
           -------------------------------------------------

          ...................................................
          :                      SETUP                      :
          :.................................................:
          :  # basis functions                  33          :
          :  # atomic orbitals                  33          :
          :  # shells                           21          :
          :  # electrons                        36          :
          :  max. iterations                   250          :
          :  Hamiltonian                  GFN2-xTB          :
          :  restarted?                      false          :
          :  GBSA solvation                  false          :
          :  PC potential                    false          :
          :  electronic temp.          300.0000000     K    :
          :  accuracy                    1.0000000          :
          :  -> integral cutoff          0.2500000E+02      :
          :  -> integral neglect         0.1000000E-07      :
          :  -> SCF convergence          0.1000000E-05 Eh   :
          :  -> wf. convergence          0.1000000E-03 e    :
          :  Broyden damping             0.4000000          :
          ...................................................

 iter      E             dE          RMSdq      gap      omega  full diag
   1    -20.3371674 -0.203372E+02  0.540E-05    2.18       0.0  T
   2    -20.3371674 -0.309086E-11  0.297E-05    2.18     868.9  T
   3    -20.3371674 -0.852651E-13  0.101E-05    2.18    2565.3  T

   *** convergence criteria satisfied after 3 iterations ***

         #    Occupation            Energy/Eh            Energy/eV
      -------------------------------------------------------------
         1        2.0000           -0.7212641             -19.6266
       ...           ...                  ...                  ...
        12        2.0000           -0.4946367             -13.4597
        13        2.0000           -0.4790676             -13.0361
        14        2.0000           -0.4667704             -12.7015
        15        2.0000           -0.4619122             -12.5693
        16        2.0000           -0.4555391             -12.3958
        17        2.0000           -0.4134985             -11.2519
        18        2.0000           -0.3423149              -9.3149 (HOMO)
        19                         -0.2620521              -7.1308 (LUMO)
        20                          0.0125881               0.3425
        21                          0.0634881               1.7276
        22                          0.0972799               2.6471
        23                          0.1257755               3.4225
       ...                                ...                  ...
        33                          0.6293528              17.1256
      -------------------------------------------------------------
                  HL-Gap            0.0802628 Eh            2.1841 eV
             Fermi-level           -0.3021835 Eh           -8.2228 eV

 SCC (total)                   0 d,  0 h,  0 min,  0.763 sec
 SCC setup                      ...        0 min,  0.019 sec (  2.489%)
 Dispersion                     ...        0 min,  0.048 sec (  6.340%)
 classical contributions        ...        0 min,  0.030 sec (  3.921%)
 integral evaluation            ...        0 min,  0.056 sec (  7.406%)
 iterations                     ...        0 min,  0.360 sec ( 47.212%)
 molecular gradient             ...        0 min,  0.249 sec ( 32.576%)
 printout                       ...        0 min,  0.000 sec (  0.017%)

         :::::::::::::::::::::::::::::::::::::::::::::::::::::
         ::                     SUMMARY                     ::
         :::::::::::::::::::::::::::::::::::::::::::::::::::::
         :: total energy             -20.101421519543 Eh    ::
         :: gradient norm              0.000561575271 Eh/a0 ::
         :: HOMO-LUMO gap              2.184062506408 eV    ::
         ::.................................................::
         :: SCC energy               -20.337167413005 Eh    ::
         :: -> isotropic ES            0.026610216049 Eh    ::
         :: -> anisotropic ES          0.004979242242 Eh    ::
         :: -> anisotropic XC          0.011502774166 Eh    ::
         :: -> dispersion             -0.008639663379 Eh    ::
         :: repulsion energy           0.235716100776 Eh    ::
         :: add. restraining           0.000011332282 Eh    ::
         :: total charge              -0.000000000000 e     ::
         :::::::::::::::::::::::::::::::::::::::::::::::::::::

           -------------------------------------------------
          |                Property Printout                |
           -------------------------------------------------

    * Orbital Energies and Occupations

         #    Occupation            Energy/Eh            Energy/eV
      -------------------------------------------------------------
         1        2.0000           -0.7212641             -19.6266
       ...           ...                  ...                  ...
         6        2.0000           -0.5694503             -15.4955
         7        2.0000           -0.5624909             -15.3062
         8        2.0000           -0.5520099             -15.0210
         9        2.0000           -0.5332449             -14.5103
        10        2.0000           -0.5179947             -14.0954
        11        2.0000           -0.5162965             -14.0491
        12        2.0000           -0.4946367             -13.4597
        13        2.0000           -0.4790676             -13.0361
        14        2.0000           -0.4667704             -12.7015
        15        2.0000           -0.4619122             -12.5693
        16        2.0000           -0.4555391             -12.3958
        17        2.0000           -0.4134985             -11.2519
        18        2.0000           -0.3423149              -9.3149 (HOMO)
        19                         -0.2620521              -7.1308 (LUMO)
        20                          0.0125881               0.3425
        21                          0.0634881               1.7276
        22                          0.0972799               2.6471
        23                          0.1257755               3.4225
        24                          0.1349468               3.6721
        25                          0.1604514               4.3661
        26                          0.1803856               4.9085
        27                          0.1869861               5.0882
        28                          0.2121456               5.7728
        29                          0.2231440               6.0721
       ...                                ...                  ...
        33                          0.6293528              17.1256
      -------------------------------------------------------------
                  HL-Gap            0.0802628 Eh            2.1841 eV
             Fermi-level           -0.3021835 Eh           -8.2228 eV

     #   Z          covCN         q      C6AA      α(0)
     1   6 C        3.700    -0.035    21.369     6.611
     2   7 N        2.723    -0.158    24.418     7.339
     3   6 C        3.747    -0.020    20.999     6.536
     4   6 C        2.753     0.207    23.609     7.957
     5   6 C        3.703    -0.035    21.364     6.609
     6   1 H        0.924     0.066     2.125     2.280
     7   1 H        0.922     0.066     2.129     2.282
     8   8 O        0.856    -0.320    20.144     6.017
     9   1 H        0.923     0.019     2.754     2.595
    10   1 H        0.925     0.036     2.499     2.472
    11   1 H        0.925     0.045     2.388     2.417
    12   1 H        0.924     0.037     2.496     2.471
    13   1 H        0.924     0.038     2.480     2.463
    14   1 H        0.921     0.010     2.889     2.658
    15   1 H        0.925     0.045     2.377     2.411

 Mol. C6AA /au·bohr⁶  :       1773.916431
 Mol. C8AA /au·bohr⁸  :      37045.925092
 Mol. α(0) /au        :         63.116508


Wiberg/Mayer (AO) data.
largest (>0.10) Wiberg bond orders for each atom

 ---------------------------------------------------------------------------
     #   Z sym  total        # sym  WBO       # sym  WBO       # sym  WBO
 ---------------------------------------------------------------------------
     1   6 C    3.982 --     2 N    1.011    11 H    0.983    13 H    0.981
                            12 H    0.974
     2   7 N    3.152 --     3 C    1.018     5 C    1.017     1 C    1.011
     3   6 C    3.992 --     2 N    1.018     4 C    1.000     6 H    0.943
                             7 H    0.926
     4   6 C    3.920 --     8 O    1.916     3 C    1.000    14 H    0.927
     5   6 C    3.986 --     2 N    1.017    10 H    0.982    15 H    0.981
                             9 H    0.974
     6   1 H    0.996 --     3 C    0.943
     7   1 H    0.996 --     3 C    0.926
     8   8 O    2.103 --     4 C    1.916
     9   1 H    1.000 --     5 C    0.974
    10   1 H    0.999 --     5 C    0.982
    11   1 H    0.998 --     1 C    0.983
    12   1 H    0.999 --     1 C    0.974
    13   1 H    0.999 --     1 C    0.981
    14   1 H    0.999 --     4 C    0.927
    15   1 H    0.998 --     5 C    0.981
 ---------------------------------------------------------------------------

Topologies differ in total number of bonds
Writing topology from bond orders to xtbtopo.mol

molecular dipole:
                 x           y           z       tot (Debye)
 q only:       -0.290       0.896      -0.088
   full:       -0.483       0.873       0.074       2.542
molecular quadrupole (traceless):
                xx          xy          yy          xz          yz          zz
 q only:        4.366       0.267      -5.361      -0.229       2.408       0.995
  q+dip:        5.632       0.809      -7.359       0.022       2.619       1.727
   full:        5.383       0.816      -7.734      -0.067       3.208       2.350

           -------------------------------------------------
          |                Geometry Summary                 |
           -------------------------------------------------

      molecular mass/u    :       87.1205185
   center of mass at/Å    :        0.1914934      -0.3119994       0.3452576
  moments of inertia/u·Å² :        0.8324967E+02   0.1961538E+03   0.2358628E+03
rotational constants/cm⁻¹ :        0.2024949E+00   0.8594089E-01   0.7147220E-01

 * 12 selected distances

     #   Z          #   Z                                           value/Å
     1   6 C        2   7 N                                       1.4450361
     2   7 N        3   6 C                                       1.4457166 (max)
     2   7 N        5   6 C                                       1.4433438
     3   6 C        6   1 H                                       1.0931545
     3   6 C        7   1 H                                       1.1054982
     4   6 C        8   8 O                                       1.1978738
     5   6 C        9   1 H                                       1.1024200
     5   6 C       10   1 H                                       1.0888727
     1   6 C       11   1 H                                       1.0878044 (min)
     1   6 C       12   1 H                                       1.0965839
     1   6 C       13   1 H                                       1.0913696
     5   6 C       15   1 H                                       1.0898677

 * 3 distinct bonds (by element types)

   Z      Z             #   av. dist./Å        max./Å        min./Å
   1 H    6 C           8     1.0944464     1.1054982     1.0878044
   6 C    7 N           3     1.4446988     1.4457166     1.4433438
   6 C    8 O           1     1.1978738     1.1978738     1.1978738


optimized geometry written to: xtbopt.xyz


           -------------------------------------------------
          | TOTAL ENERGY              -20.101421519543 Eh   |
          | GRADIENT NORM               0.000561575271 Eh/α |
          | HOMO-LUMO GAP               2.184062506408 eV   |
           -------------------------------------------------
########################################################################
[WARNING] Runtime exception occurred
-1- restart_readRestart: Number of electron missmatch in restart file.
########################################################################

------------------------------------------------------------------------
 * finished run on 2023/11/18 at 08:11:47.226     
------------------------------------------------------------------------
 total:
 * wall-time:     0 d,  0 h,  0 min, 12.043 sec
 *  cpu-time:     0 d,  0 h,  5 min, 51.379 sec
 * ratio c/w:    29.176 speedup
 SCF:
 * wall-time:     0 d,  0 h,  0 min,  1.442 sec
 *  cpu-time:     0 d,  0 h,  0 min, 42.477 sec
 * ratio c/w:    29.467 speedup
 ANC optimizer:
 * wall-time:     0 d,  0 h,  0 min, 10.365 sec
 *  cpu-time:     0 d,  0 h,  5 min,  3.054 sec
 * ratio c/w:    29.237 speedup

