      -----------------------------------------------------------      
     |                   =====================                   |     
     |                           x T B                           |     
     |                   =====================                   |     
     |                         S. Grimme                         |     
     |          Mulliken Center for Theoretical Chemistry        |     
     |                    University of Bonn                     |     
      -----------------------------------------------------------      

   * xtb version 6.5.0 (97a52f5) compiled by 'conda@d2599ee0d4f4' on 2022-05-15

   xtb is free software: you can redistribute it and/or modify it under
   the terms of the GNU Lesser General Public License as published by
   the Free Software Foundation, either version 3 of the License, or
   (at your option) any later version.
   
   xtb is distributed in the hope that it will be useful,
   but WITHOUT ANY WARRANTY; without even the implied warranty of
   MERCHANTABILITY or FITNESS FOR A PARTICULAR PURPOSE.  See the
   GNU Lesser General Public License for more details.
   
   Cite this work as:
   * C. Bannwarth, E. Caldeweyher, S. Ehlert, A. Hansen, P. Pracht,
     J. Seibert, S. Spicher, S. Grimme, WIREs Comput. Mol. Sci., 2020, 11,
     e01493. DOI: 10.1002/wcms.1493
   
   for GFN2-xTB:
   * C. Bannwarth, S. Ehlert and S. Grimme., J. Chem. Theory Comput., 2019,
     15, 1652-1671. DOI: 10.1021/acs.jctc.8b01176
   for GFN1-xTB:
   * S. Grimme, C. Bannwarth, P. Shushkov, J. Chem. Theory Comput., 2017,
     13, 1989-2009. DOI: 10.1021/acs.jctc.7b00118
   for GFN0-xTB:
   * P. Pracht, E. Caldeweyher, S. Ehlert, S. Grimme, ChemRxiv, 2019, preprint.
     DOI: 10.26434/chemrxiv.8326202.v1
   for GFN-FF:
   * S. Spicher and S. Grimme, Angew. Chem. Int. Ed., 2020, 59, 15665-15673.
     DOI: 10.1002/anie.202004239
   
   for ALPB and GBSA implicit solvation:
   * S. Ehlert, M. Stahn, S. Spicher, S. Grimme, J. Chem. Theory Comput.,
     2021, 17, 4250-4261. DOI: 10.1021/acs.jctc.1c00471
   
   for DFT-D4:
   * E. Caldeweyher, C. Bannwarth and S. Grimme, J. Chem. Phys., 2017,
     147, 034112. DOI: 10.1063/1.4993215
   * E. Caldeweyher, S. Ehlert, A. Hansen, H. Neugebauer, S. Spicher,
     C. Bannwarth and S. Grimme, J. Chem. Phys., 2019, 150, 154122.
     DOI: 10.1063/1.5090222
   * E. Caldeweyher, J.-M. Mewes, S. Ehlert and S. Grimme, Phys. Chem. Chem. Phys.
     2020, 22, 8499-8512. DOI: 10.1039/D0CP00502A
   
   for sTDA-xTB:
   * S. Grimme and C. Bannwarth, J. Chem. Phys., 2016, 145, 054103.
     DOI: 10.1063/1.4959605
   
   in the mass-spec context:
   * V. Asgeirsson, C. Bauer and S. Grimme, Chem. Sci., 2017, 8, 4879.
     DOI: 10.1039/c7sc00601b
   * J. Koopman and S. Grimme, ACS Omega 2019, 4, 12, 15120-15133.
     DOI: 10.1021/acsomega.9b02011
   
   for metadynamics refer to:
   * S. Grimme, J. Chem. Theory Comput., 2019, 155, 2847-2862
     DOI: 10.1021/acs.jctc.9b00143
   
   for SPH calculations refer to:
   * S. Spicher and S. Grimme, J. Chem. Theory Comput., 2021, 17, 1701-1714
     DOI: 10.1021/acs.jctc.0c01306
   
   with help from (in alphabetical order)
   P. Atkinson, C. Bannwarth, F. Bohle, G. Brandenburg, E. Caldeweyher
   M. Checinski, S. Dohm, S. Ehlert, S. Ehrlich, I. Gerasimov, C. Hölzer
   A. Katbashev, J. Koopman, C. Lavigne, S. Lehtola, F. März, M. Müller,
   F. Musil, H. Neugebauer, J. Pisarek, C. Plett, P. Pracht, F. Pultar,
   J. Seibert, P. Shushkov, S. Spicher, M. Stahn, M. Steiner, T. Strunk,
   J. Stückrath, T. Rose, and J. Unsleber
   
 * started run on 2023/11/18 at 08:11:48.861     

           -------------------------------------------------
          |                Calculation Setup                |
           -------------------------------------------------

          program call               : /home/liuchw/anaconda3/envs/xtbenv/bin/xtb --gfn 2 --chrg 0 --uhf 0 4_27_Index_0-opt-2-3-039_preQMOPTprefit_xyzformat.xyz --opt --input xtb-opt-2-3-039_constr.txt
          hostname                   : node165.bme.utexas.edu
          coordinate file            : 4_27_Index_0-opt-2-3-039_preQMOPTprefit_xyzformat.xyz
          omp threads                :                    64

   ID    Z sym.   atoms
    1    6 C      1, 3-5
    2    7 N      2
    3    1 H      6, 7, 9-15
    4    8 O      8
constraining angle 5 2 3 4 to   39.0546032°, actual value:   39.0546032°
constraining angle 2 3 4 8 to  359.0102116°, actual value:   -0.9897884°
constraining angle 10 5 2 1 to  176.0047523°, actual value:  176.0047523°
constraining angle 13 1 2 5 to  300.9956753°, actual value:  -59.0043247°

           -------------------------------------------------
          |                 G F N 2 - x T B                 |
           -------------------------------------------------

        Reference                      10.1021/acs.jctc.8b01176
      * Hamiltonian:
        H0-scaling (s, p, d)           1.850000    2.230000    2.230000
        zeta-weighting                 0.500000
      * Dispersion:
        s8                             2.700000
        a1                             0.520000
        a2                             5.000000
        s9                             5.000000
      * Repulsion:
        kExp                           1.500000    1.000000
        rExp                           1.000000
      * Coulomb:
        alpha                          2.000000
        third order                    shell-resolved
        anisotropic                    true
        a3                             3.000000
        a5                             4.000000
        cn-shift                       1.200000
        cn-exp                         4.000000
        max-rad                        5.000000

q/qsh data taken from xtbrestart
CAMM data taken from xtbrestart

          ...................................................
          :                      SETUP                      :
          :.................................................:
          :  # basis functions                  33          :
          :  # atomic orbitals                  33          :
          :  # shells                           21          :
          :  # electrons                        36          :
          :  max. iterations                   250          :
          :  Hamiltonian                  GFN2-xTB          :
          :  restarted?                       true          :
          :  GBSA solvation                  false          :
          :  PC potential                    false          :
          :  electronic temp.          300.0000000     K    :
          :  accuracy                    1.0000000          :
          :  -> integral cutoff          0.2500000E+02      :
          :  -> integral neglect         0.1000000E-07      :
          :  -> SCF convergence          0.1000000E-05 Eh   :
          :  -> wf. convergence          0.1000000E-03 e    :
          :  Broyden damping             0.4000000          :
          ...................................................

 iter      E             dE          RMSdq      gap      omega  full diag
   1    -20.2994261 -0.202994E+02  0.322E+00    2.66       0.0  T
   2    -20.3019367 -0.251060E-02  0.188E+00    2.41       1.0  T
   3    -20.3020587 -0.122048E-03  0.307E-01    2.28       1.0  T
   4    -20.3027443 -0.685552E-03  0.118E-01    2.23       1.0  T
   5    -20.3027567 -0.124188E-04  0.659E-02    2.25       1.0  T
   6    -20.3027692 -0.125520E-04  0.146E-02    2.24       1.8  T
   7    -20.3027696 -0.397719E-06  0.698E-03    2.24       3.7  T
   8    -20.3027697 -0.639883E-07  0.191E-03    2.23      13.6  T
   9    -20.3027697 -0.639482E-08  0.670E-04    2.23      38.5  T
  10    -20.3027697 -0.418666E-09  0.789E-05    2.23     327.2  T

   *** convergence criteria satisfied after 10 iterations ***

         #    Occupation            Energy/Eh            Energy/eV
      -------------------------------------------------------------
         1        2.0000           -0.7175268             -19.5249
       ...           ...                  ...                  ...
        12        2.0000           -0.4911255             -13.3642
        13        2.0000           -0.4823973             -13.1267
        14        2.0000           -0.4737322             -12.8909
        15        2.0000           -0.4594734             -12.5029
        16        2.0000           -0.4549220             -12.3791
        17        2.0000           -0.4062419             -11.0544
        18        2.0000           -0.3586758              -9.7601 (HOMO)
        19                         -0.2765651              -7.5257 (LUMO)
        20                         -0.0214912              -0.5848
        21                          0.0285659               0.7773
        22                          0.0703418               1.9141
        23                          0.0976329               2.6567
       ...                                ...                  ...
        33                          0.5302207              14.4280
      -------------------------------------------------------------
                  HL-Gap            0.0821106 Eh            2.2343 eV
             Fermi-level           -0.3176205 Eh           -8.6429 eV

 SCC (total)                   0 d,  0 h,  0 min,  1.476 sec
 SCC setup                      ...        0 min,  0.011 sec (  0.765%)
 Dispersion                     ...        0 min,  0.046 sec (  3.124%)
 classical contributions        ...        0 min,  0.035 sec (  2.382%)
 integral evaluation            ...        0 min,  0.068 sec (  4.638%)
 iterations                     ...        0 min,  1.098 sec ( 74.384%)
 molecular gradient             ...        0 min,  0.217 sec ( 14.676%)
 printout                       ...        0 min,  0.000 sec (  0.012%)

         :::::::::::::::::::::::::::::::::::::::::::::::::::::
         ::                     SUMMARY                     ::
         :::::::::::::::::::::::::::::::::::::::::::::::::::::
         :: total energy             -20.096321206867 Eh    ::
         :: gradient norm              0.067848561540 Eh/a0 ::
         :: HOMO-LUMO gap              2.234344278014 eV    ::
         ::.................................................::
         :: SCC energy               -20.302769717702 Eh    ::
         :: -> isotropic ES            0.026922492989 Eh    ::
         :: -> anisotropic ES          0.005031681787 Eh    ::
         :: -> anisotropic XC          0.013256336338 Eh    ::
         :: -> dispersion             -0.008449282962 Eh    ::
         :: repulsion energy           0.206432246895 Eh    ::
         :: add. restraining           0.000000000000 Eh    ::
         :: total charge               0.000000000000 e     ::
         :::::::::::::::::::::::::::::::::::::::::::::::::::::

      ----------------------------------------------------------- 
     |                   =====================                   |
     |                        A N C O P T                        |
     |                   =====================                   |
     |               Approximate Normal Coordinate               |
     |                Rational Function Optimizer                |
      ----------------------------------------------------------- 

          ...................................................
          :                      SETUP                      :
          :.................................................:
          :   optimization level            normal          :
          :   max. optcycles                   200          :
          :   ANC micro-cycles                  20          :
          :   degrees of freedom                39          :
          :.................................................:
          :   RF solver                   davidson          :
          :   write xtbopt.log                true          :
          :   linear?                        false          :
          :   energy convergence         0.5000000E-05 Eh   :
          :   grad. convergence          0.1000000E-02 Eh/α :
          :   maximium RF displ.         1.0000000          :
          :   Hlow (freq-cutoff)         0.1000000E-01      :
          :   Hmax (freq-cutoff)         5.0000000          :
          :   S6 in model hess.         20.0000000          :
          ...................................................

generating ANC from model Hessian ...
Using Lindh-Hessian (1995)
 Shifting diagonal of input Hessian by    4.1363394997967883E-003
 Lowest  eigenvalues of input Hessian
    0.000000    0.000000    0.000000    0.000000    0.000000    0.000000
    0.010000    0.011048    0.016161    0.018407    0.026063    0.033072
    0.034326    0.044630    0.059778    0.063123    0.065701    0.067579
 Highest eigenvalues
    1.406338    2.052777    2.506574    4.219128    7.130995   17.714109


........................................................................
.............................. CYCLE    1 ..............................
........................................................................
   1    -20.3027697 -0.203028E+02  0.271E-05    2.23       0.0  T
   2    -20.3027697 -0.603961E-12  0.151E-05    2.23    1706.4  T
   3    -20.3027697 -0.127898E-12  0.355E-06    2.23    7266.2  T
     SCC iter.                  ...        0 min,  0.314 sec
     gradient                   ...        0 min,  0.215 sec
 * total energy  :   -20.0963212 Eh     change       -0.9674039E-11 Eh
   gradient norm :     0.0678480 Eh/α   predicted     0.0000000E+00 (-100.00%)
   displ. norm   :     0.2860161 α      lambda       -0.9704444E-02
   maximum displ.:     0.1505404 α      in ANC's #13, #9, #7, ...

........................................................................
.............................. CYCLE    2 ..............................
........................................................................
   1    -20.3308982 -0.203309E+02  0.276E-01    2.49       0.0  T
   2    -20.3309753 -0.771775E-04  0.166E-01    2.47       1.0  T
   3    -20.3309671  0.826758E-05  0.563E-02    2.48       1.0  T
   4    -20.3309842 -0.171614E-04  0.117E-02    2.47       2.2  T
   5    -20.3309851 -0.888105E-06  0.462E-03    2.47       5.6  T
   6    -20.3309852 -0.478441E-07  0.192E-03    2.47      13.5  T
   7    -20.3309852 -0.318634E-08  0.640E-04    2.47      40.4  T
   8    -20.3309852 -0.721244E-09  0.184E-04    2.47     140.5  T
     SCC iter.                  ...        0 min,  0.945 sec
     gradient                   ...        0 min,  0.219 sec
 * total energy  :   -20.1023677 Eh     change       -0.6046507E-02 Eh
   gradient norm :     0.0242403 Eh/α   predicted    -0.5249163E-02 ( -13.19%)
   displ. norm   :     0.1900939 α      lambda       -0.1426995E-02
   maximum displ.:     0.1053136 α      in ANC's #1, #7, #2, ...

........................................................................
.............................. CYCLE    3 ..............................
........................................................................
   1    -20.3394006 -0.203394E+02  0.132E-01    2.49       0.0  T
   2    -20.3394126 -0.119747E-04  0.793E-02    2.51       1.0  T
   3    -20.3394118  0.847642E-06  0.188E-02    2.52       1.4  T
   4    -20.3394136 -0.183403E-05  0.516E-03    2.51       5.0  T
   5    -20.3394138 -0.193562E-06  0.188E-03    2.51      13.8  T
   6    -20.3394138 -0.521001E-08  0.651E-04    2.51      39.7  T
   7    -20.3394138 -0.716962E-09  0.190E-04    2.51     135.8  T
     SCC iter.                  ...        0 min,  0.729 sec
     gradient                   ...        0 min,  0.204 sec
 * total energy  :   -20.1030454 Eh     change       -0.6776836E-03 Eh
   gradient norm :     0.0568072 Eh/α   predicted    -0.7392831E-03 (   9.09%)
   displ. norm   :     0.1324954 α      lambda       -0.6844820E-03
   maximum displ.:     0.0924110 α      in ANC's #2, #7, #1, ...

........................................................................
.............................. CYCLE    4 ..............................
........................................................................
   1    -20.3412881 -0.203413E+02  0.941E-02    2.46       0.0  T
   2    -20.3412911 -0.303531E-05  0.559E-02    2.48       1.0  T
   3    -20.3412913 -0.212409E-06  0.593E-03    2.48       4.4  T
   4    -20.3412914 -0.631622E-07  0.225E-03    2.48      11.5  T
   5    -20.3412914 -0.227021E-07  0.103E-03    2.48      25.1  T
   6    -20.3412914 -0.300036E-08  0.265E-04    2.48      97.3  T
   7    -20.3412914 -0.923386E-10  0.117E-04    2.48     220.6  T
     SCC iter.                  ...        0 min,  0.785 sec
     gradient                   ...        0 min,  0.226 sec
 * total energy  :   -20.1028423 Eh     change        0.2030795E-03 Eh
   gradient norm :     0.1092530 Eh/α   predicted    -0.3482457E-03 (-271.48%)
   displ. norm   :     0.0581177 α      lambda       -0.7754390E-03
   maximum displ.:     0.0419429 α      in ANC's #1, #7, #9, ...

........................................................................
.............................. CYCLE    5 ..............................
........................................................................
   1    -20.3383800 -0.203384E+02  0.492E-02    2.47       0.0  T
   2    -20.3383817 -0.165141E-05  0.299E-02    2.46       1.0  T
   3    -20.3383816  0.936942E-07  0.685E-03    2.46       3.8  T
   4    -20.3383818 -0.211119E-06  0.190E-03    2.46      13.6  T
   5    -20.3383818 -0.283048E-07  0.754E-04    2.46      34.3  T
   6    -20.3383818 -0.862784E-09  0.287E-04    2.46      89.9  T
     SCC iter.                  ...        0 min,  0.785 sec
     gradient                   ...        0 min,  0.263 sec
 * total energy  :   -20.1032428 Eh     change       -0.4004520E-03 Eh
   gradient norm :     0.0036732 Eh/α   predicted    -0.3890276E-03 (  -2.85%)
   displ. norm   :     0.0387199 α      lambda       -0.2010679E-04
   maximum displ.:     0.0354554 α      in ANC's #2, #4, #1, ...

........................................................................
.............................. CYCLE    6 ..............................
........................................................................
   1    -20.3381110 -0.203381E+02  0.250E-02    2.45       0.0  T
   2    -20.3381111 -0.802760E-07  0.147E-02    2.45       1.8  T
   3    -20.3381111 -0.446082E-09  0.142E-03    2.45      18.2  T
   4    -20.3381111 -0.147422E-07  0.577E-04    2.45      44.7  T
   5    -20.3381111 -0.114944E-08  0.225E-04    2.45     114.6  T
     SCC iter.                  ...        0 min,  0.561 sec
     gradient                   ...        0 min,  0.195 sec
 * total energy  :   -20.1032567 Eh     change       -0.1393115E-04 Eh
   gradient norm :     0.0013207 Eh/α   predicted    -0.1006967E-04 ( -27.72%)
   displ. norm   :     0.0722372 α      lambda       -0.1452248E-04
   maximum displ.:     0.0505363 α      in ANC's #2, #4, #1, ...

........................................................................
.............................. CYCLE    7 ..............................
........................................................................
   1    -20.3378855 -0.203379E+02  0.346E-02    2.42       0.0  T
   2    -20.3378858 -0.324850E-06  0.200E-02    2.43       1.3  T
   3    -20.3378858 -0.880066E-08  0.302E-03    2.43       8.5  T
   4    -20.3378858 -0.471707E-07  0.107E-03    2.43      24.1  T
   5    -20.3378858 -0.358184E-08  0.454E-04    2.43      56.8  T
   6    -20.3378858 -0.570946E-09  0.139E-04    2.43     185.7  T
     SCC iter.                  ...        0 min,  0.662 sec
     gradient                   ...        0 min,  0.213 sec
 * total energy  :   -20.1032593 Eh     change       -0.2607418E-05 Eh
   gradient norm :     0.0018352 Eh/α   predicted    -0.7280048E-05 ( 179.21%)
   displ. norm   :     0.0201533 α      lambda       -0.7251742E-05
   maximum displ.:     0.0181163 α      in ANC's #4, #3, #1, ...

........................................................................
.............................. CYCLE    8 ..............................
........................................................................
   1    -20.3382560 -0.203383E+02  0.240E-02    2.43       0.0  T
   2    -20.3382561 -0.590635E-07  0.142E-02    2.43       1.8  T
   3    -20.3382561 -0.572415E-08  0.102E-03    2.43      25.2  T
   4    -20.3382561 -0.504987E-08  0.489E-04    2.43      52.8  T
   5    -20.3382561 -0.691724E-09  0.269E-04    2.43      96.0  T
     SCC iter.                  ...        0 min,  0.595 sec
     gradient                   ...        0 min,  0.237 sec
 * total energy  :   -20.1032635 Eh     change       -0.4189163E-05 Eh
   gradient norm :     0.0011055 Eh/α   predicted    -0.3627048E-05 ( -13.42%)
   displ. norm   :     0.0168868 α      lambda       -0.1612653E-05
   maximum displ.:     0.0147144 α      in ANC's #2, #1, #7, ...

........................................................................
.............................. CYCLE    9 ..............................
........................................................................
   1    -20.3383235 -0.203383E+02  0.125E-02    2.44       0.0  T
   2    -20.3383235 -0.145500E-07  0.741E-03    2.44       3.5  T
   3    -20.3383235 -0.335682E-09  0.643E-04    2.44      40.2  T
   4    -20.3383235 -0.332140E-08  0.287E-04    2.44      90.0  T
     SCC iter.                  ...        0 min,  0.461 sec
     gradient                   ...        0 min,  0.253 sec
 * total energy  :   -20.1032639 Eh     change       -0.4392337E-06 Eh
   gradient norm :     0.0012740 Eh/α   predicted    -0.8056109E-06 (  83.41%)
   displ. norm   :     0.0075366 α      lambda       -0.5419731E-06
   maximum displ.:     0.0055181 α      in ANC's #2, #1, #4, ...

........................................................................
.............................. CYCLE   10 ..............................
........................................................................
   1    -20.3382509 -0.203383E+02  0.358E-03    2.44       0.0  T
   2    -20.3382509 -0.326724E-08  0.207E-03    2.44      12.5  T
   3    -20.3382509 -0.731220E-10  0.288E-04    2.44      89.5  T
   4    -20.3382509 -0.628379E-09  0.117E-04    2.44     220.7  T
     SCC iter.                  ...        0 min,  0.474 sec
     gradient                   ...        0 min,  0.263 sec
 * total energy  :   -20.1032643 Eh     change       -0.3576084E-06 Eh
   gradient norm :     0.0004147 Eh/α   predicted    -0.2712194E-06 ( -24.16%)
   displ. norm   :     0.0024450 α      lambda       -0.4932086E-07
   maximum displ.:     0.0023487 α      in ANC's #2, #4, #8, ...

   *** GEOMETRY OPTIMIZATION CONVERGED AFTER 10 ITERATIONS ***

------------------------------------------------------------------------
 total energy gain   :        -0.0069431 Eh       -4.3569 kcal/mol
 total RMSD          :         0.1372549 a0        0.0726 Å
 total power (kW/mol):        -1.8229074 (step)   -1.7667 (real)
------------------------------------------------------------------------

 ANCopt (total)                0 d,  0 h,  0 min, 10.318 sec
 optimizer setup                ...        0 min,  0.000 sec (  0.002%)
 model hessian                  ...        0 min,  0.005 sec (  0.052%)
 ANC generation                 ...        0 min,  0.001 sec (  0.005%)
 coordinate transformation      ...        0 min,  0.000 sec (  0.002%)
 single point calculation       ...        0 min, 10.127 sec ( 98.152%)
 optimization log               ...        0 min,  0.008 sec (  0.073%)
 hessian update                 ...        0 min,  0.173 sec (  1.681%)
 rational function              ...        0 min,  0.002 sec (  0.019%)

================
 final structure:
================
15
 xtb: 6.5.0 (97a52f5)
C            1.96830895839056       -0.38155569779913        0.91282694078152
N            0.86135158109015        0.01130938192312        0.07018068360132
C           -0.31897472155767       -0.76507126873990        0.38612822686419
C           -1.65735787730751       -0.35401718774680       -0.15666056690560
C            0.67677122703234        1.44768716949173        0.05131654570107
H           -0.14980376677565       -1.79551733076639        0.04843353707777
H           -0.48557977905389       -0.82452927527891        1.48431939695957
O           -1.95319888512093        0.57957406163558       -0.84528571075818
H            0.42622775409202        1.85587384181347        1.04403957876222
H           -0.11421966064554        1.70690186172820       -0.64394869143417
H            2.10144561591303       -1.46171754192872        0.85782936247067
H            1.82372145157771       -0.09908362115022        1.96852326735395
H            2.87605502823526        0.09360859554619        0.54492926136098
H           -2.43541790638526       -1.07250759232091        0.18126341094456
H            1.60579200051540        1.90581259359274       -0.28455526277972

 Bond Distances (Angstroems)
 ---------------------------
C1-N2=1.4456         C1-H11=1.0897        C1-H12=1.1024        C1-H13=1.0886        N2-C1=1.4456         N2-C3=1.4477         
N2-C5=1.4483         C3-N2=1.4477         C3-C4=1.5016         C3-H6=1.0975         C3-H7=1.1123         C4-C3=1.5016         
C4-O8=1.1972         C4-H14=1.1117        C5-N2=1.4483         C5-H9=1.1022         C5-H10=1.0846        C5-H15=1.0889        
H6-C3=1.0975         H7-C3=1.1123         O8-C4=1.1972         H9-C5=1.1022         H10-C5=1.0846        H11-C1=1.0897        
H12-C1=1.1024        H13-C1=1.0886        H14-C4=1.1117        H15-C5=1.0889        
 C  H  Rav=1.0975 sigma=0.0097  Rmin=1.0846  Rmax=1.1123     9
 C  C  Rav=1.5016 sigma=0.0000  Rmin=1.5016  Rmax=1.5016     1
 N  C  Rav=1.4472 sigma=0.0012  Rmin=1.4456  Rmax=1.4483     3
 O  C  Rav=1.1972 sigma=0.0000  Rmin=1.1972  Rmax=1.1972     1

 selected bond angles (degree)
 --------------------
H11-C1-N2=109.48               H12-C1-N2=112.84               H12-C1-H11=108.56              H13-C1-N2=108.84               
H13-C1-H11=108.28              H13-C1-H12=108.73              C3-N2-C1=110.57                C5-N2-C1=112.01                
C5-N2-C3=115.52                C4-C3-N2=120.07                H6-C3-N2=108.10                H6-C3-C4=106.45                
H7-C3-N2=111.48                H7-C3-C4=103.77                H7-C3-H6=106.06                O8-C4-C3=129.91                
H14-C4-C3=109.70               H14-C4-O8=120.39               H9-C5-N2=112.61                H10-C5-N2=109.78               
H10-C5-H9=108.85               H15-C5-N2=108.21               H15-C5-H9=108.42               H15-C5-H10=108.90              

 selected dihedral angles (degree)
 ---------------------------------
C3-N2-C1-H11= 52.43           C3-N2-C1-H12=291.41           C3-N2-C1-H13=170.62           C5-N2-C1-H11=182.82           
C5-N2-C1-H12= 61.80           C5-N2-C1-H13=301.01           C4-C3-N2-C1=167.67            C4-C3-N2-C5= 39.16            
H6-C3-N2-C1=289.91            H6-C3-N2-C5=161.40            H7-C3-N2-C1= 46.11            H7-C3-N2-C5=277.60            
O8-C4-C3-N2=359.02            O8-C4-C3-H6=235.98            O8-C4-C3-H7=124.30            H14-C4-C3-N2=179.35           
H14-C4-C3-H6= 56.31           H14-C4-C3-H7=304.63           H9-C5-N2-C1=297.44            H9-C5-N2-C3= 65.24            
H10-C5-N2-C1=175.99           H10-C5-N2-C3=303.79           H15-C5-N2-C1= 57.26           H15-C5-N2-C3=185.06           
           -------------------------------------------------
          |                Final Singlepoint                |
           -------------------------------------------------

          ...................................................
          :                      SETUP                      :
          :.................................................:
          :  # basis functions                  33          :
          :  # atomic orbitals                  33          :
          :  # shells                           21          :
          :  # electrons                        36          :
          :  max. iterations                   250          :
          :  Hamiltonian                  GFN2-xTB          :
          :  restarted?                      false          :
          :  GBSA solvation                  false          :
          :  PC potential                    false          :
          :  electronic temp.          300.0000000     K    :
          :  accuracy                    1.0000000          :
          :  -> integral cutoff          0.2500000E+02      :
          :  -> integral neglect         0.1000000E-07      :
          :  -> SCF convergence          0.1000000E-05 Eh   :
          :  -> wf. convergence          0.1000000E-03 e    :
          :  Broyden damping             0.4000000          :
          ...................................................

 iter      E             dE          RMSdq      gap      omega  full diag
   1    -20.3382509 -0.203383E+02  0.388E-05    2.44       0.0  T
   2    -20.3382509 -0.472511E-11  0.210E-05    2.44    1232.1  T
   3    -20.3382509 -0.881073E-12  0.116E-05    2.44    2227.1  T

   *** convergence criteria satisfied after 3 iterations ***

         #    Occupation            Energy/Eh            Energy/eV
      -------------------------------------------------------------
         1        2.0000           -0.7240660             -19.7028
       ...           ...                  ...                  ...
        12        2.0000           -0.4921928             -13.3932
        13        2.0000           -0.4847080             -13.1896
        14        2.0000           -0.4735248             -12.8853
        15        2.0000           -0.4617338             -12.5644
        16        2.0000           -0.4557701             -12.4021
        17        2.0000           -0.4043474             -11.0029
        18        2.0000           -0.3547514              -9.6533 (HOMO)
        19                         -0.2652599              -7.2181 (LUMO)
        20                          0.0126144               0.3433
        21                          0.0692384               1.8841
        22                          0.0951458               2.5890
        23                          0.1226313               3.3370
       ...                                ...                  ...
        33                          0.6322385              17.2041
      -------------------------------------------------------------
                  HL-Gap            0.0894915 Eh            2.4352 eV
             Fermi-level           -0.3100057 Eh           -8.4357 eV

 SCC (total)                   0 d,  0 h,  0 min,  0.704 sec
 SCC setup                      ...        0 min,  0.018 sec (  2.545%)
 Dispersion                     ...        0 min,  0.036 sec (  5.137%)
 classical contributions        ...        0 min,  0.022 sec (  3.099%)
 integral evaluation            ...        0 min,  0.079 sec ( 11.207%)
 iterations                     ...        0 min,  0.309 sec ( 43.840%)
 molecular gradient             ...        0 min,  0.240 sec ( 34.106%)
 printout                       ...        0 min,  0.000 sec (  0.017%)

         :::::::::::::::::::::::::::::::::::::::::::::::::::::
         ::                     SUMMARY                     ::
         :::::::::::::::::::::::::::::::::::::::::::::::::::::
         :: total energy             -20.103264294356 Eh    ::
         :: gradient norm              0.000415324860 Eh/a0 ::
         :: HOMO-LUMO gap              2.435187189207 eV    ::
         ::.................................................::
         :: SCC energy               -20.338250910079 Eh    ::
         :: -> isotropic ES            0.025955626763 Eh    ::
         :: -> anisotropic ES          0.004478853718 Eh    ::
         :: -> anisotropic XC          0.011963676017 Eh    ::
         :: -> dispersion             -0.008555867047 Eh    ::
         :: repulsion energy           0.234962587000 Eh    ::
         :: add. restraining           0.000008161978 Eh    ::
         :: total charge               0.000000000000 e     ::
         :::::::::::::::::::::::::::::::::::::::::::::::::::::

           -------------------------------------------------
          |                Property Printout                |
           -------------------------------------------------

    * Orbital Energies and Occupations

         #    Occupation            Energy/Eh            Energy/eV
      -------------------------------------------------------------
         1        2.0000           -0.7240660             -19.7028
       ...           ...                  ...                  ...
         6        2.0000           -0.5715510             -15.5527
         7        2.0000           -0.5648451             -15.3702
         8        2.0000           -0.5557321             -15.1222
         9        2.0000           -0.5331685             -14.5083
        10        2.0000           -0.5219213             -14.2022
        11        2.0000           -0.5172566             -14.0753
        12        2.0000           -0.4921928             -13.3932
        13        2.0000           -0.4847080             -13.1896
        14        2.0000           -0.4735248             -12.8853
        15        2.0000           -0.4617338             -12.5644
        16        2.0000           -0.4557701             -12.4021
        17        2.0000           -0.4043474             -11.0029
        18        2.0000           -0.3547514              -9.6533 (HOMO)
        19                         -0.2652599              -7.2181 (LUMO)
        20                          0.0126144               0.3433
        21                          0.0692384               1.8841
        22                          0.0951458               2.5890
        23                          0.1226313               3.3370
        24                          0.1477537               4.0206
        25                          0.1597100               4.3459
        26                          0.1761000               4.7919
        27                          0.1842395               5.0134
        28                          0.2003303               5.4513
        29                          0.2126287               5.7859
       ...                                ...                  ...
        33                          0.6322385              17.2041
      -------------------------------------------------------------
                  HL-Gap            0.0894915 Eh            2.4352 eV
             Fermi-level           -0.3100057 Eh           -8.4357 eV

     #   Z          covCN         q      C6AA      α(0)
     1   6 C        3.719    -0.035    21.328     6.597
     2   7 N        2.723    -0.159    24.439     7.342
     3   6 C        3.760    -0.013    20.856     6.511
     4   6 C        2.754     0.213    23.498     7.938
     5   6 C        3.705    -0.042    21.480     6.625
     6   1 H        0.924     0.069     2.095     2.264
     7   1 H        0.921     0.046     2.371     2.408
     8   8 O        0.856    -0.314    20.045     6.003
     9   1 H        0.923     0.010     2.895     2.661
    10   1 H        0.925     0.072     2.063     2.246
    11   1 H        0.925     0.037     2.490     2.467
    12   1 H        0.923     0.013     2.836     2.634
    13   1 H        0.925     0.047     2.353     2.399
    14   1 H        0.921     0.016     2.793     2.613
    15   1 H        0.925     0.041     2.437     2.441

 Mol. C6AA /au·bohr⁶  :       1776.190246
 Mol. C8AA /au·bohr⁸  :      37064.756788
 Mol. α(0) /au        :         63.149516


Wiberg/Mayer (AO) data.
largest (>0.10) Wiberg bond orders for each atom

 ---------------------------------------------------------------------------
     #   Z sym  total        # sym  WBO       # sym  WBO       # sym  WBO
 ---------------------------------------------------------------------------
     1   6 C    3.986 --     2 N    1.015    11 H    0.983    13 H    0.982
                            12 H    0.972
     2   7 N    3.137 --     3 C    1.015     1 C    1.015     5 C    1.011
     3   6 C    3.992 --     2 N    1.015     4 C    1.012     6 H    0.936
                             7 H    0.924
     4   6 C    3.924 --     8 O    1.914     3 C    1.012    14 H    0.928
     5   6 C    3.980 --     2 N    1.011    15 H    0.982     9 H    0.975
                            10 H    0.974
     6   1 H    0.995 --     3 C    0.936
     7   1 H    0.998 --     3 C    0.924
     8   8 O    2.112 --     4 C    1.914
     9   1 H    1.000 --     5 C    0.975
    10   1 H    0.995 --     5 C    0.974
    11   1 H    0.999 --     1 C    0.983
    12   1 H    1.000 --     1 C    0.972
    13   1 H    0.997 --     1 C    0.982
    14   1 H    0.999 --     4 C    0.928
    15   1 H    0.998 --     5 C    0.982
 ---------------------------------------------------------------------------

Topologies differ in total number of bonds
Writing topology from bond orders to xtbtopo.mol

molecular dipole:
                 x           y           z       tot (Debye)
 q only:        0.488      -0.583       0.552
   full:        0.432      -0.729       0.984       3.301
molecular quadrupole (traceless):
                xx          xy          yy          xz          yz          zz
 q only:       -1.254       2.979       2.172      -2.132      -0.084      -0.917
  q+dip:       -1.748       4.523       2.095      -2.742       0.583      -0.347
   full:       -1.903       4.361       2.292      -2.587       0.940      -0.390

           -------------------------------------------------
          |                Geometry Summary                 |
           -------------------------------------------------

      molecular mass/u    :       87.1205185
   center of mass at/Å    :       -0.0626730       0.1045275       0.0807756
  moments of inertia/u·Å² :        0.6952738E+02   0.2093374E+03   0.2643034E+03
rotational constants/cm⁻¹ :        0.2424604E+00   0.8052853E-01   0.6378136E-01

 * 12 selected distances

     #   Z          #   Z                                           value/Å
     1   6 C        2   7 N                                       1.4455970
     2   7 N        3   6 C                                       1.4476741
     2   7 N        5   6 C                                       1.4483119 (max)
     3   6 C        6   1 H                                       1.0974861
     3   6 C        7   1 H                                       1.1123473
     4   6 C        8   8 O                                       1.1972132
     5   6 C        9   1 H                                       1.1022194
     5   6 C       10   1 H                                       1.0845519 (min)
     1   6 C       11   1 H                                       1.0897247
     1   6 C       12   1 H                                       1.1023570
     1   6 C       13   1 H                                       1.0886381
     5   6 C       15   1 H                                       1.0889300

 * 3 distinct bonds (by element types)

   Z      Z             #   av. dist./Å        max./Å        min./Å
   1 H    6 C           8     1.0957818     1.1123473     1.0845519
   6 C    7 N           3     1.4471943     1.4483119     1.4455970
   6 C    8 O           1     1.1972132     1.1972132     1.1972132


optimized geometry written to: xtbopt.xyz


           -------------------------------------------------
          | TOTAL ENERGY              -20.103264294356 Eh   |
          | GRADIENT NORM               0.000415324860 Eh/α |
          | HOMO-LUMO GAP               2.435187189207 eV   |
           -------------------------------------------------
########################################################################
[WARNING] Runtime exception occurred
-1- restart_readRestart: Number of electron missmatch in restart file.
########################################################################

------------------------------------------------------------------------
 * finished run on 2023/11/18 at 08:12:01.601     
------------------------------------------------------------------------
 total:
 * wall-time:     0 d,  0 h,  0 min, 12.740 sec
 *  cpu-time:     0 d,  0 h,  6 min,  3.300 sec
 * ratio c/w:    28.517 speedup
 SCF:
 * wall-time:     0 d,  0 h,  0 min,  1.477 sec
 *  cpu-time:     0 d,  0 h,  0 min, 44.450 sec
 * ratio c/w:    30.105 speedup
 ANC optimizer:
 * wall-time:     0 d,  0 h,  0 min, 11.041 sec
 *  cpu-time:     0 d,  0 h,  5 min, 13.377 sec
 * ratio c/w:    28.384 speedup

