MonoMethylPhosphate0H Gaussian OPT Calculation on node37.bme.utexas.edu 
FOpt      RwB97XD                                                     6-31G(d)            
Number of atoms                            I                9
Info1-9                                    I   N=           9
          20          20           0           0           0         110
           2          18        -802
Charge                                     I               -2
Multiplicity                               I                1
Number of electrons                        I               58
Number of alpha electrons                  I               29
Number of beta electrons                   I               29
Number of basis functions                  I              100
Number of independent functions            I              100
Number of point charges in /Mol/           I                0
Number of translation vectors              I                0
Atomic numbers                             I   N=           9
          15           8           8           8           8           6
           1           1           1
Nuclear charges                            R   N=           9
  1.50000000E+01  8.00000000E+00  8.00000000E+00  8.00000000E+00  8.00000000E+00
  6.00000000E+00  1.00000000E+00  1.00000000E+00  1.00000000E+00
Current cartesian coordinates              R   N=          27
 -9.85170791E-01 -1.06074178E-01 -7.02819445E-04  1.79474725E+00  1.51896884E+00
  4.90793776E-03 -2.86691187E+00  2.09000841E+00 -3.97345284E-02 -9.38032714E-01
 -1.64685199E+00  2.45538081E+00 -8.97857635E-01 -1.70205967E+00 -2.42038806E+00
  4.01947204E+00  7.44011676E-02  1.60607310E-03  4.12916535E+00 -1.17130854E+00
  1.66304260E+00  5.64761467E+00  1.36027444E+00  2.88984528E-02  4.14838939E+00
 -1.12478490E+00 -1.69236446E+00
Force Field                                I                0
Int Atom Types                             I   N=           9
           0           0           0           0           0           0
           0           0           0
MM charges                                 R   N=           9
  0.00000000E+00  0.00000000E+00  0.00000000E+00  0.00000000E+00  0.00000000E+00
  0.00000000E+00  0.00000000E+00  0.00000000E+00  0.00000000E+00
Integer atomic weights                     I   N=           9
          31          16          16          16          16          12
           1           1           1
Real atomic weights                        R   N=           9
  3.09737634E+01  1.59949146E+01  1.59949146E+01  1.59949146E+01  1.59949146E+01
  1.20000000E+01  1.00782504E+00  1.00782504E+00  1.00782504E+00
Atom fragment info                         I   N=           9
           0           0           0           0           0           0
           0           0           0
Atom residue num                           I   N=           9
           0           0           0           0           0           0
           0           0           0
Nuclear spins                              I   N=           9
           1           0           0           0           0           0
           1           1           1
Nuclear ZEff                               R   N=           9
 -1.29400000E+01 -5.60000000E+00 -5.60000000E+00 -5.60000000E+00 -5.60000000E+00
 -3.60000000E+00 -1.00000000E+00 -1.00000000E+00 -1.00000000E+00
Nuclear QMom                               R   N=           9
  0.00000000E+00  0.00000000E+00  0.00000000E+00  0.00000000E+00  0.00000000E+00
  0.00000000E+00  0.00000000E+00  0.00000000E+00  0.00000000E+00
Nuclear GFac                               R   N=           9
  1.13160000E+00  0.00000000E+00  0.00000000E+00  0.00000000E+00  0.00000000E+00
  0.00000000E+00  2.79284600E+00  2.79284600E+00  2.79284600E+00
MicOpt                                     I   N=           9
          -1          -1          -1          -1          -1          -1
          -1          -1          -1
Number of contracted shells                I               31
Number of primitive shells                 I               84
Pure/Cartesian d shells                    I                1
Pure/Cartesian f shells                    I                0
Highest angular momentum                   I                2
Largest degree of contraction              I                6
Shell types                                I   N=          31
           0          -1          -1          -1           2           0
          -1          -1           2           0          -1          -1
           2           0          -1          -1           2           0
          -1          -1           2           0          -1          -1
           2           0           0           0           0           0
           0
Number of primitives per shell             I   N=          31
           6           6           3           1           1           6
           3           1           1           6           3           1
           1           6           3           1           1           6
           3           1           1           6           3           1
           1           3           1           3           1           3
           1
Shell to atom map                          I   N=          31
           1           1           1           1           1           2
           2           2           2           3           3           3
           3           4           4           4           4           5
           5           5           5           6           6           6
           6           7           7           8           8           9
           9
Primitive exponents                        R   N=          84
  1.94133000E+04  2.90942000E+03  6.61364000E+02  1.85759000E+02  5.91943000E+01
  2.00310000E+01  3.39478000E+02  8.10101000E+01  2.58780000E+01  9.45221000E+00
  3.66566000E+00  1.46746000E+00  2.15623000E+00  7.48997000E-01  2.83145000E-01
  9.98317000E-02  5.50000000E-01  5.48467166E+03  8.25234946E+02  1.88046958E+02
  5.29645000E+01  1.68975704E+01  5.79963534E+00  1.55396162E+01  3.59993359E+00
  1.01376175E+00  2.70005823E-01  8.00000000E-01  5.48467166E+03  8.25234946E+02
  1.88046958E+02  5.29645000E+01  1.68975704E+01  5.79963534E+00  1.55396162E+01
  3.59993359E+00  1.01376175E+00  2.70005823E-01  8.00000000E-01  5.48467166E+03
  8.25234946E+02  1.88046958E+02  5.29645000E+01  1.68975704E+01  5.79963534E+00
  1.55396162E+01  3.59993359E+00  1.01376175E+00  2.70005823E-01  8.00000000E-01
  5.48467166E+03  8.25234946E+02  1.88046958E+02  5.29645000E+01  1.68975704E+01
  5.79963534E+00  1.55396162E+01  3.59993359E+00  1.01376175E+00  2.70005823E-01
  8.00000000E-01  3.04752488E+03  4.57369518E+02  1.03948685E+02  2.92101553E+01
  9.28666296E+00  3.16392696E+00  7.86827235E+00  1.88128854E+00  5.44249258E-01
  1.68714478E-01  8.00000000E-01  1.87311370E+01  2.82539436E+00  6.40121692E-01
  1.61277759E-01  1.87311370E+01  2.82539436E+00  6.40121692E-01  1.61277759E-01
  1.87311370E+01  2.82539436E+00  6.40121692E-01  1.61277759E-01
Contraction coefficients                   R   N=          84
  1.85159892E-03  1.42061917E-02  6.99994593E-02  2.40078860E-01  4.84761718E-01
  3.35199805E-01 -2.78217010E-03 -3.60499014E-02 -1.16631004E-01  9.68328036E-02
  6.14418023E-01  4.03798015E-01 -2.52924114E-01  3.28518447E-02  1.08125476E+00
  1.00000000E+00  1.00000000E+00  1.83107443E-03  1.39501722E-02  6.84450781E-02
  2.32714336E-01  4.70192898E-01  3.58520853E-01 -1.10777550E-01 -1.48026263E-01
  1.13076702E+00  1.00000000E+00  1.00000000E+00  1.83107443E-03  1.39501722E-02
  6.84450781E-02  2.32714336E-01  4.70192898E-01  3.58520853E-01 -1.10777550E-01
 -1.48026263E-01  1.13076702E+00  1.00000000E+00  1.00000000E+00  1.83107443E-03
  1.39501722E-02  6.84450781E-02  2.32714336E-01  4.70192898E-01  3.58520853E-01
 -1.10777550E-01 -1.48026263E-01  1.13076702E+00  1.00000000E+00  1.00000000E+00
  1.83107443E-03  1.39501722E-02  6.84450781E-02  2.32714336E-01  4.70192898E-01
  3.58520853E-01 -1.10777550E-01 -1.48026263E-01  1.13076702E+00  1.00000000E+00
  1.00000000E+00  1.83473713E-03  1.40373228E-02  6.88426223E-02  2.32184443E-01
  4.67941348E-01  3.62311985E-01 -1.19332420E-01 -1.60854152E-01  1.14345644E+00
  1.00000000E+00  1.00000000E+00  3.34946043E-02  2.34726953E-01  8.13757326E-01
  1.00000000E+00  3.34946043E-02  2.34726953E-01  8.13757326E-01  1.00000000E+00
  3.34946043E-02  2.34726953E-01  8.13757326E-01  1.00000000E+00
P(S=P) Contraction coefficients            R   N=          84
  0.00000000E+00  0.00000000E+00  0.00000000E+00  0.00000000E+00  0.00000000E+00
  0.00000000E+00  4.56461619E-03  3.36935719E-02  1.39754883E-01  3.39361717E-01
  4.50920624E-01  2.38585801E-01 -1.77653127E-02  2.74058196E-01  7.85421563E-01
  1.00000000E+00  0.00000000E+00  0.00000000E+00  0.00000000E+00  0.00000000E+00
  0.00000000E+00  0.00000000E+00  0.00000000E+00  7.08742682E-02  3.39752839E-01
  7.27158577E-01  1.00000000E+00  0.00000000E+00  0.00000000E+00  0.00000000E+00
  0.00000000E+00  0.00000000E+00  0.00000000E+00  0.00000000E+00  7.08742682E-02
  3.39752839E-01  7.27158577E-01  1.00000000E+00  0.00000000E+00  0.00000000E+00
  0.00000000E+00  0.00000000E+00  0.00000000E+00  0.00000000E+00  0.00000000E+00
  7.08742682E-02  3.39752839E-01  7.27158577E-01  1.00000000E+00  0.00000000E+00
  0.00000000E+00  0.00000000E+00  0.00000000E+00  0.00000000E+00  0.00000000E+00
  0.00000000E+00  7.08742682E-02  3.39752839E-01  7.27158577E-01  1.00000000E+00
  0.00000000E+00  0.00000000E+00  0.00000000E+00  0.00000000E+00  0.00000000E+00
  0.00000000E+00  0.00000000E+00  6.89990666E-02  3.16423961E-01  7.44308291E-01
  1.00000000E+00  0.00000000E+00  0.00000000E+00  0.00000000E+00  0.00000000E+00
  0.00000000E+00  0.00000000E+00  0.00000000E+00  0.00000000E+00  0.00000000E+00
  0.00000000E+00  0.00000000E+00  0.00000000E+00  0.00000000E+00
Coordinates of each shell                  R   N=          93
 -9.85170791E-01 -1.06074178E-01 -7.02819445E-04 -9.85170791E-01 -1.06074178E-01
 -7.02819445E-04 -9.85170791E-01 -1.06074178E-01 -7.02819445E-04 -9.85170791E-01
 -1.06074178E-01 -7.02819445E-04 -9.85170791E-01 -1.06074178E-01 -7.02819445E-04
  1.79474725E+00  1.51896884E+00  4.90793776E-03  1.79474725E+00  1.51896884E+00
  4.90793776E-03  1.79474725E+00  1.51896884E+00  4.90793776E-03  1.79474725E+00
  1.51896884E+00  4.90793776E-03 -2.86691187E+00  2.09000841E+00 -3.97345284E-02
 -2.86691187E+00  2.09000841E+00 -3.97345284E-02 -2.86691187E+00  2.09000841E+00
 -3.97345284E-02 -2.86691187E+00  2.09000841E+00 -3.97345284E-02 -9.38032714E-01
 -1.64685199E+00  2.45538081E+00 -9.38032714E-01 -1.64685199E+00  2.45538081E+00
 -9.38032714E-01 -1.64685199E+00  2.45538081E+00 -9.38032714E-01 -1.64685199E+00
  2.45538081E+00 -8.97857635E-01 -1.70205967E+00 -2.42038806E+00 -8.97857635E-01
 -1.70205967E+00 -2.42038806E+00 -8.97857635E-01 -1.70205967E+00 -2.42038806E+00
 -8.97857635E-01 -1.70205967E+00 -2.42038806E+00  4.01947204E+00  7.44011676E-02
  1.60607310E-03  4.01947204E+00  7.44011676E-02  1.60607310E-03  4.01947204E+00
  7.44011676E-02  1.60607310E-03  4.01947204E+00  7.44011676E-02  1.60607310E-03
  4.12916535E+00 -1.17130854E+00  1.66304260E+00  4.12916535E+00 -1.17130854E+00
  1.66304260E+00  5.64761467E+00  1.36027444E+00  2.88984528E-02  5.64761467E+00
  1.36027444E+00  2.88984528E-02  4.14838939E+00 -1.12478490E+00 -1.69236446E+00
  4.14838939E+00 -1.12478490E+00 -1.69236446E+00
Constraint Structure                       R   N=          27
  9.43847780E-01  1.03723728E-03 -1.01978492E-01 -1.66848094E+00 -2.01742682E-02
  1.57538762E+00  3.02005079E+00 -2.52291934E-02  1.88551357E+00  7.56546132E-01
  2.44053889E+00 -1.62065679E+00  7.55055514E-01 -2.39683717E+00 -1.68247276E+00
 -3.91231967E+00 -1.74377706E-03  1.47134840E-01 -4.03711295E+00  1.70564631E+00
 -1.00964187E+00 -5.51578297E+00 -1.85036571E-02  1.44765440E+00 -4.03627478E+00
 -1.67862455E+00 -1.05331738E+00
Num ILSW                                   I              100
ILSW                                       I   N=         100
           0           1           0           0           2           0
           0           0           0           0        4639 20132659200
           0           0           0           0           0           0
           0           0           0           0           1           0
           0           0           1           0           0           0
           0           0      100000           0          -1           0
           0           0           0           0           0           0
           0           0           0           1           0           0
           0           0           1           0           0           0
           0           0           2          40           0           0
           0           0          58           0           0           0
           0           0           0           0           0           0
           0           0           0           0           0           0
           0           0           0           0           0           0
           0           0           0           0           0           0
           0           0           0           0           0           0
           0           0           0           0
Num RLSW                                   I               40
RLSW                                       R   N=          40
  1.00000000E+00  1.00000000E+00  1.00000000E+00  1.00000000E+00  1.00000000E+00
  0.00000000E+00  2.00000000E-01  2.22036000E-01  0.00000000E+00  7.77964000E-01
  0.00000000E+00  2.00000000E-01  0.00000000E+00  0.00000000E+00  1.00000000E+00
  0.00000000E+00  0.00000000E+00  1.00000000E+00  0.00000000E+00  0.00000000E+00
  0.00000000E+00  0.00000000E+00  1.00000000E+00  0.00000000E+00  0.00000000E+00
  0.00000000E+00  0.00000000E+00  1.00000000E+00  0.00000000E+00  0.00000000E+00
  0.00000000E+00  0.00000000E+00  0.00000000E+00  0.00000000E+00  0.00000000E+00
  0.00000000E+00  0.00000000E+00  0.00000000E+00  1.00000000E+00  1.00000000E+00
MxBond                                     I                4
NBond                                      I   N=           9
           4           2           1           1           1           4
           1           1           1
IBond                                      I   N=          36
           2           3           4           5           1           6
           0           0           1           0           0           0
           1           0           0           0           1           0
           0           0           2           7           8           9
           6           0           0           0           6           0
           0           0           6           0           0           0
RBond                                      R   N=          36
  1.00000000E+00  2.00000000E+00  2.00000000E+00  2.00000000E+00  1.00000000E+00
  1.00000000E+00  0.00000000E+00  0.00000000E+00  2.00000000E+00  0.00000000E+00
  0.00000000E+00  0.00000000E+00  2.00000000E+00  0.00000000E+00  0.00000000E+00
  0.00000000E+00  2.00000000E+00  0.00000000E+00  0.00000000E+00  0.00000000E+00
  1.00000000E+00  1.00000000E+00  1.00000000E+00  1.00000000E+00  1.00000000E+00
  0.00000000E+00  0.00000000E+00  0.00000000E+00  1.00000000E+00  0.00000000E+00
  0.00000000E+00  0.00000000E+00  1.00000000E+00  0.00000000E+00  0.00000000E+00
  0.00000000E+00
Virial Ratio                               R      2.006174126048509E+00
SCF Energy                                 R     -6.823654951009805E+02
Total Energy                               R     -6.823654951009805E+02
RMS Force                                  R      1.883636490015313E-03
RMS Density                                R      8.746533050843967E-09
External E-field                           R   N=          35
  0.00000000E+00  0.00000000E+00  0.00000000E+00  0.00000000E+00  0.00000000E+00
  0.00000000E+00  0.00000000E+00  0.00000000E+00  0.00000000E+00  0.00000000E+00
  0.00000000E+00  0.00000000E+00  0.00000000E+00  0.00000000E+00  0.00000000E+00
  0.00000000E+00  0.00000000E+00  0.00000000E+00  0.00000000E+00  0.00000000E+00
  0.00000000E+00  0.00000000E+00  0.00000000E+00  0.00000000E+00  0.00000000E+00
  0.00000000E+00  0.00000000E+00  0.00000000E+00  0.00000000E+00  0.00000000E+00
  0.00000000E+00  0.00000000E+00  0.00000000E+00  0.00000000E+00  0.00000000E+00
IOpCl                                      I                0
IROHF                                      I                0
Alpha Orbital Energies                     R   N=         100
 -7.72530305E+01 -1.92086602E+01 -1.91273658E+01 -1.91270571E+01 -1.91270264E+01
 -1.03038461E+01 -6.65972486E+00 -4.81101688E+00 -4.80743431E+00 -4.80733572E+00
 -1.06901665E+00 -9.86662023E-01 -9.22513854E-01 -9.20723080E-01 -7.36138607E-01
 -5.59039396E-01 -4.94624638E-01 -4.90787703E-01 -4.61487700E-01 -3.98618613E-01
 -3.92403856E-01 -3.68367176E-01 -3.15744481E-01 -3.06639802E-01 -3.03938942E-01
 -3.01655854E-01 -2.67247265E-01 -2.58899505E-01 -2.35124672E-01  2.18007884E-01
  2.52463830E-01  2.74214592E-01  2.74496808E-01  2.86522374E-01  3.49506659E-01
  3.59807414E-01  3.72071889E-01  4.77647501E-01  4.91750430E-01  5.50221108E-01
  5.60055700E-01  6.62695629E-01  6.91327074E-01  7.44599286E-01  8.50383215E-01
  8.82561052E-01  9.44809437E-01  9.49740072E-01  9.87735227E-01  9.95809926E-01
  1.00101749E+00  1.04747730E+00  1.08977483E+00  1.14152699E+00  1.14466333E+00
  1.19447200E+00  1.20971625E+00  1.21919002E+00  1.22179861E+00  1.26371097E+00
  1.28607384E+00  1.33006350E+00  1.36983397E+00  1.38600180E+00  1.41244796E+00
  1.53476667E+00  1.53513993E+00  1.64023132E+00  1.70455799E+00  1.75444588E+00
  1.80258527E+00  1.93964153E+00  1.96786843E+00  2.00044997E+00  2.00479475E+00
  2.01371597E+00  2.01570375E+00  2.02111636E+00  2.05056805E+00  2.13109006E+00
  2.20400830E+00  2.25025801E+00  2.26893506E+00  2.29875460E+00  2.30039139E+00
  2.47779833E+00  2.47828656E+00  2.50384959E+00  2.55739726E+00  2.65325287E+00
  2.87574417E+00  2.93482804E+00  2.99960569E+00  3.02226928E+00  3.69615839E+00
  3.87966253E+00  3.90745955E+00  4.07091487E+00  4.13929181E+00  4.37964997E+00
Alpha MO coefficients                      R   N=       10000
  9.96283724E-01  1.40646773E-02  3.47763613E-05  1.72371055E-05  9.28217022E-08
 -2.66220739E-02 -6.76058377E-05 -3.49578570E-05 -5.23515739E-07  2.09996042E-03
 -3.75698087E-05 -1.27890869E-04 -5.54488723E-07  9.25014288E-03  9.26044044E-03
  9.26343059E-03  9.38723104E-06  4.88970270E-08  3.07360833E-07 -3.02725013E-05
 -1.08450797E-04  2.74168392E-05  4.45488872E-05  1.07118465E-07  1.00140826E-03
 -3.34662158E-04 -3.17675112E-04 -6.36079056E-07 -1.89737117E-04 -1.20040888E-04
 -9.65146762E-05 -1.18434488E-04 -4.27771395E-07 -6.89210275E-08 -1.27503280E-05
 -1.23510187E-04 -1.10808558E-04  1.30772440E-04 -2.40324743E-06  9.61099328E-04
  3.58934049E-04 -3.97139167E-04  7.64805546E-06 -1.17784238E-04 -1.57399864E-04
 -2.15455887E-05  1.28000544E-04 -2.23740224E-06  2.70002364E-06 -4.60018823E-06
 -9.11412635E-05  3.05328916E-06 -9.20460139E-05  1.37965718E-04  7.97244065E-04
  2.95370721E-06  2.93072481E-04 -4.15858015E-04  3.24139723E-06 -6.00548459E-05
 -1.67851106E-04  3.77704347E-06 -7.66037631E-06  1.17391197E-04 -4.38988706E-06
 -9.02607629E-05  5.29667431E-06 -9.50598807E-05 -1.35511839E-04  7.93089802E-04
 -3.73205977E-06  3.01761106E-04  4.08102971E-04  3.66000965E-06 -6.40881999E-05
 -1.62398776E-04  6.01811378E-06  1.06525954E-05 -1.20146758E-04 -2.05736859E-05
 -9.28259687E-05  6.66377490E-05  2.25917915E-05  7.28295430E-07  2.20952466E-04
  2.31569278E-05 -1.44918002E-04 -3.35142232E-06 -4.30147925E-05 -5.06087761E-06
 -5.28635423E-05  1.43677212E-05 -2.07672649E-07 -2.98168229E-07 -6.13151750E-07
 -1.95074174E-04 -1.66287004E-05  5.23555135E-05  9.44081156E-07 -1.98809306E-04
  3.04129798E-06 -9.95713083E-06 -7.11921919E-05 -4.61492333E-05 -1.32761994E-07
 -1.22746366E-04  1.34858665E-04  1.08418558E-04  2.37890064E-07 -2.08195563E-03
 -7.05570020E-04 -8.11426105E-04 -2.80257918E-06  2.96987013E-04  1.11116422E-04
 -2.02587975E-05  1.78973052E-04  1.09948706E-06 -2.50275041E-07  9.92940815E-01
  2.54674678E-02  2.88859170E-04 -7.83503047E-04 -1.65985749E-06  1.10695747E-02
 -3.20621310E-04  5.73749097E-05  6.85650698E-08 -7.77561797E-03 -7.73360735E-03
 -7.62477138E-03  8.07222649E-05  9.31235901E-08 -2.49453067E-07 -3.70435959E-05
 -1.48736942E-04  1.34053783E-05 -7.06822118E-06 -1.52034570E-07  1.00274232E-03
  1.14501849E-04 -8.48718744E-05  3.47501637E-06 -2.16353630E-04 -9.63878113E-05
 -5.76327302E-05 -2.53310967E-05 -1.11146490E-06  1.02789104E-07 -3.50136259E-05
 -8.83712357E-05 -9.94797315E-06 -1.64907252E-05 -2.10195542E-05  5.62524916E-04
  6.64142453E-05  1.96793876E-04 -6.99544428E-05 -8.82993035E-05 -3.82015403E-05
 -3.66863585E-05 -4.97617641E-05  3.56312572E-06 -3.52904994E-06 -3.50031890E-05
 -8.72073964E-05 -1.07841570E-05 -1.61111196E-05  2.09033186E-05  5.54761068E-04
  6.69328298E-05  1.97842640E-04  6.74324372E-05 -8.72430390E-05 -3.72264494E-05
 -3.58355522E-05 -4.93551166E-05 -3.18560149E-06  3.09399920E-06 -2.28845060E-06
  2.28287917E-04 -3.27762828E-04  2.87530818E-04  9.01312703E-07 -1.14464314E-03
  2.88370271E-04 -5.62918559E-04 -3.07870372E-06  1.97266993E-04  8.13577813E-05
 -5.56768522E-06 -1.82320958E-04 -1.02846284E-06 -4.66852679E-07  7.80778463E-06
  5.07611369E-05  9.12235046E-05  1.45070669E-04  9.58305989E-06  4.72453277E-05
  1.10477448E-05 -8.98241708E-05  2.38033310E-05 -1.93404421E-05  2.44109407E-07
  4.73332101E-04 -2.41610493E-04  1.98758032E-04 -2.50423274E-06 -1.53271542E-03
  1.02464983E-03 -1.35254704E-03  2.09072829E-05 -1.07392948E-04 -2.53651982E-05
 -2.75550864E-04 -1.58245979E-04  3.49587095E-06 -4.73232783E-06 -4.72564086E-05
 -1.46618562E-04  4.36768296E-07  7.21937336E-06  4.48809162E-07  8.79556966E-04
 -7.45508189E-05 -7.91813627E-05 -3.06927185E-06 -1.87154717E-04 -1.10266936E-04
 -1.02949927E-04  3.23056458E-05 -1.42399549E-06  1.01956510E-06  9.92926680E-01
  2.54310838E-02  4.73579162E-04 -5.64444277E-04  1.00427617E-05  1.03841523E-02
  1.18261697E-04 -1.10947798E-04  2.58706661E-06 -7.51917650E-03 -7.52809161E-03
 -7.48213291E-03  3.81529511E-05 -7.26955705E-07  8.91131175E-07 -8.48199774E-03
 -1.93431240E-04  3.56353637E-05 -3.44520452E-05 -3.67904281E-05 -1.44023464E-04
 -1.78148569E-04  2.37015663E-04  8.13348987E-05  8.94408484E-05  1.05381229E-04
  9.07825402E-05  2.73494167E-05  1.52217999E-05 -2.15699164E-05 -9.30136159E-03
 -2.15327410E-04  3.45898198E-05 -3.40886260E-05  3.73004223E-05 -1.49719957E-04
 -1.75396227E-04  2.36047138E-04 -8.77563362E-05  9.54231309E-05  1.11746789E-04
  9.51360407E-05  2.67208602E-05 -1.57032813E-05  2.22259319E-05  1.40030639E-05
  5.83180968E-05 -3.47811480E-05 -3.36490887E-05 -2.71591332E-07 -3.40485499E-04
  3.58998459E-04  1.84404103E-04  5.73453434E-06  1.95459030E-05  4.41168455E-05
  1.02939948E-05 -1.29557942E-05  3.52524763E-07  1.14222581E-06  5.62694969E-05
 -1.31532806E-05 -1.78150206E-05 -1.62991897E-04  5.25389203E-05  2.09997901E-06
  1.36524279E-05 -5.13911774E-05 -6.65572146E-06  1.42488178E-05  2.49279471E-05
  6.34059248E-04  7.51760093E-05 -1.12070355E-04 -2.59521625E-04 -2.42680298E-03
 -5.59391847E-04  7.59915729E-04  1.20083319E-03 -1.73331206E-04 -1.64384672E-04
 -3.16044591E-05  6.09434182E-06 -2.73964825E-05  2.00420142E-04 -2.83675466E-06
 -6.57010020E-05  1.18426276E-05 -1.37137707E-05  2.88115789E-05  4.08347306E-04
 -2.36507614E-04  3.50512795E-06 -1.41791096E-04 -2.76240505E-05 -6.13223066E-05
 -4.14236862E-05  1.54114469E-05  2.15019723E-06 -4.09555338E-05  8.74083910E-03
  2.03542995E-04  1.16527096E-05 -1.01949292E-05  5.03072506E-05  2.54284478E-04
  9.13972192E-05 -1.08301614E-04 -2.41749344E-04 -3.79692666E-05 -5.91292776E-05
 -8.62815513E-05 -9.76204019E-06 -2.28114113E-05 -1.27973605E-05 -6.39809716E-02
 -1.77112528E-03 -1.85238158E-05  1.92719629E-05  6.70837407E-05  7.78438414E-05
  1.09549250E-04 -9.88043716E-05 -3.19848048E-04  4.09210017E-04  3.76892486E-04
  4.13713305E-04  1.06259373E-05 -1.30003106E-05 -3.40431985E-05  9.90897231E-01
  2.53266390E-02 -3.80237510E-05  3.94583175E-04  5.98746029E-04  1.05824548E-02
  9.71722093E-05  1.39199924E-04  2.13261410E-04 -7.51153725E-03 -7.51895172E-03
 -7.54023731E-03  5.75449498E-06  1.09232860E-05 -3.86308947E-05 -1.84386231E-05
 -1.02777045E-04  7.70621890E-06  2.86688080E-05  9.91352921E-06  4.84870614E-04
 -3.47301871E-04 -1.45390873E-04 -6.42926724E-05  8.14234724E-06 -2.39364854E-05
 -2.34494890E-05  2.29397545E-06  3.07675397E-07 -2.08292350E-06 -6.70701440E-05
  7.00662807E-05  4.43409425E-06  1.26268810E-04  9.64641045E-06 -1.23380612E-04
  1.55570479E-05 -5.76446949E-05 -7.35349535E-06  1.54481537E-05 -2.19660138E-05
  7.23565755E-04  8.35005449E-05 -1.19917437E-04  2.28565115E-04 -2.77371041E-03
 -6.25239312E-04  8.40904889E-04 -1.08186706E-03 -1.96295742E-04 -1.94469783E-04
 -2.67702453E-05  1.12896512E-05  2.05152570E-05 -1.72174595E-04 -2.97090003E-06
 -7.18994522E-05  1.40926131E-05 -1.74465570E-05 -2.60987857E-05  4.50816649E-04
 -2.75957955E-04  1.58852953E-05  1.29746714E-04 -2.99387072E-05 -6.77153844E-05
 -4.62744860E-05  1.77092800E-05 -8.35638066E-07  3.51995255E-05  9.06872283E-03
  2.09572197E-04  1.35035138E-05 -1.23742967E-05 -4.36388183E-05  2.78736452E-04
  1.00619045E-04 -1.17012137E-04  2.15979484E-04 -3.68464654E-05 -6.00539292E-05
 -9.10197244E-05 -1.06798548E-05  2.10819372E-05  1.05038492E-05  9.90894458E-01
  2.53062224E-02 -3.07745192E-05  3.85961449E-04 -6.04122242E-04  1.06952136E-02
  1.17947493E-04  1.24329620E-04 -2.61615664E-04 -7.52358134E-03 -7.53383357E-03
 -7.55343346E-03  6.55344246E-06 -1.25588160E-05  3.36652934E-05  6.38361942E-02
  1.49421023E-03 -2.21826281E-05  6.92070993E-05  9.24955928E-06  1.45273431E-03
  1.17412202E-04 -7.54367268E-05  3.54351499E-04 -5.61215593E-04 -5.92680924E-04
 -5.60624017E-04  1.09884460E-05  1.40211927E-05  2.98591921E-05 -2.21290764E-05
 -1.21456776E-04  9.58035439E-06  3.74480615E-05 -7.09079501E-06  5.80163707E-04
 -4.12651629E-04 -1.80437122E-04  4.10281682E-05  8.40781906E-06 -3.05278769E-05
 -2.74556525E-05  1.24422396E-06 -1.72779847E-06  6.98715343E-07 -4.82244571E-06
 -1.05465321E-04  5.36399237E-06  1.52646454E-04 -6.65659668E-05  2.72258397E-05
 -3.83427301E-06 -8.53321722E-05 -2.90702614E-05  1.43227476E-05 -7.37796725E-07
 -3.93736069E-04  3.87665361E-05 -1.00172933E-04  8.55249282E-06  1.45021954E-03
  1.14999915E-03 -6.15277920E-04  9.52522102E-06  1.42722007E-04 -6.93660189E-05
 -8.84739552E-05 -5.37416979E-05  1.67371840E-06 -2.95010244E-06 -1.00202820E-04
 -9.13967468E-05 -9.62682789E-05  1.88197185E-05  1.43024807E-07  1.64223518E-03
  1.60628320E-04  1.60745404E-04 -2.09035657E-06 -5.70312219E-04 -2.62527362E-04
  8.57534350E-06  3.73575156E-04  8.35386740E-07 -7.82974513E-07 -1.93271644E-05
 -7.62180220E-05  5.83863905E-05  2.07946062E-05 -2.99208935E-07  4.70069148E-04
 -1.59017775E-04 -8.58296708E-05  1.56935071E-06 -6.63340699E-05 -5.16896419E-05
 -4.23115450E-05  1.29654308E-06 -1.18706174E-07  4.99832094E-08  4.28367470E-05
  1.78063822E-04  1.48863933E-05 -3.42154460E-05 -1.08935323E-05 -9.62830334E-04
 -1.98032255E-04  1.03416022E-04  1.51966506E-04  1.28389931E-04  1.29778569E-04
  1.08322964E-04 -7.94028118E-06  1.88480434E-05 -4.38283224E-05  4.06476009E-05
  1.69430543E-04  1.05441503E-05 -3.45154280E-05  8.18032452E-06 -9.32616659E-04
 -1.82603019E-04  1.04478721E-04 -1.40579548E-04  1.22956423E-04  1.22879538E-04
  1.00004373E-04 -8.17466387E-06 -1.56165373E-05  4.62684067E-05  9.93329860E-01
  4.63613774E-02 -5.24040433E-04  2.51424743E-04  1.20110086E-06 -1.45942615E-02
  1.85597179E-04  5.60856461E-04  1.17539780E-05 -7.74811154E-03 -7.84953155E-03
 -7.96399927E-03 -1.16189796E-04  7.69546295E-07  7.36125821E-07 -5.57287287E-05
  2.73332591E-03 -2.13565497E-04  2.50421006E-03 -5.63332130E-05  2.74606558E-03
 -2.74467526E-01  1.02495601E+00  3.21416544E-03  1.90880532E-03  5.45640308E-06
  6.44865175E-02  7.43898576E-04  4.58198718E-04 -3.08650962E-06 -6.34309827E-03
 -5.39494610E-04  7.55017627E-04 -1.84775816E-06 -1.39482126E-02 -1.39504585E-02
 -1.40588958E-02 -1.55008386E-05 -3.49713172E-07  3.63048829E-07  1.11157612E-04
  8.91339210E-04 -1.70150770E-04 -2.31846154E-04 -6.88182648E-07 -4.56882982E-03
  1.84337203E-03  1.81929500E-03  5.63957726E-06  3.69903785E-04  4.49381431E-04
  6.60102383E-04  3.84036093E-05  1.78347358E-07 -1.08196710E-06 -3.84073815E-05
  9.46945102E-04  4.49895807E-04 -5.62203671E-04  1.03787899E-05 -5.01123150E-03
 -1.76740163E-03  2.06033315E-03 -3.96100437E-05  6.47697545E-04  8.07401604E-04
  4.11887988E-04 -3.34690019E-04  5.48819663E-06 -7.38584700E-06 -1.01290345E-04
  6.57098987E-04 -2.97843704E-05  3.89383174E-04 -5.72315325E-04 -3.53336919E-03
  8.51150548E-05 -1.46427989E-03  2.01187834E-03  2.09326602E-04  3.74465353E-04
  6.95428493E-04 -1.56240601E-05  3.72302866E-05 -3.05262142E-04 -1.01193088E-04
  6.56613403E-04 -3.73404688E-05  4.01782042E-04  5.62373434E-04 -3.52821017E-03
  1.12161834E-04 -1.50949622E-03 -1.97940693E-03  2.10553451E-04  3.87116118E-04
  6.80871009E-04 -2.22740031E-05 -4.60704581E-05  3.11294437E-04  4.16521844E-05
  7.88428787E-05 -2.14430278E-04 -2.64336896E-05 -1.63304621E-06 -1.82318164E-04
 -8.35050053E-04  5.34691434E-05  6.49014174E-06  3.00577452E-04 -6.70408435E-05
  1.57158139E-04 -3.26934852E-05 -9.12014107E-08 -8.84458484E-07 -1.22348946E-04
  6.32114084E-04  1.09418718E-04  1.25897373E-04 -1.24834441E-04  6.43746738E-04
  1.10211074E-03 -4.25250577E-03  8.67439498E-01  4.81566504E-01  3.15774432E-03
  8.29207244E-04  2.51344829E-02  1.40978099E-02  8.90826750E-05 -2.51909843E-04
 -4.99689066E-03 -1.38366898E-03 -1.59604361E-05  1.43348029E-03 -6.14838571E-04