9
MonoMethylPhosphate0H-opt.log	Energy: -428190.8094948
P         -0.52133       -0.05613       -0.00037
O          0.94974        0.80380        0.00260
O         -1.51710        1.10598       -0.02103
O         -0.49639       -0.87148        1.29933
O         -0.47513       -0.90069       -1.28081
C          2.12701        0.03937        0.00085
H          2.18506       -0.61983        0.88004
H          2.98859        0.71983        0.01529
H          2.19523       -0.59521       -0.89556
