Generated by Psi4
        SP                        DF-MP2                      6-311G**
Number of atoms                            I                9
Charge                                     I               -2
Multiplicity                               I                1
Number of electrons                        I               58
Number of alpha electrons                  I               29
Number of beta electrons                   I               29
Number of basis functions                  I              134
Number of independent functions            I              134
Atomic numbers                             I   N=           9
          15           8           8           8           8           6
           1           1           1
Nuclear charges                            R   N=           9
  1.50000000e+01  8.00000000e+00  8.00000000e+00  8.00000000e+00  8.00000000e+00
  6.00000000e+00  1.00000000e+00  1.00000000e+00  1.00000000e+00
Current cartesian coordinates              R   N=          27
 -8.50952525e-01 -1.13559647e-01 -6.98295714e-04  1.92896689e+00  1.51147254e+00
  4.91419088e-03 -2.73268511e+00  2.08250998e+00 -3.97400375e-02 -8.03822755e-01
 -1.65434784e+00  2.45537875e+00 -7.63647178e-01 -1.70954674e+00 -2.42037922e+00
  4.15368476e+00  6.69091984e-02  1.60717016e-03  4.26338336e+00 -1.17879826e+00
  1.66303548e+00  5.78183500e+00  1.35279224e+00  2.88948154e-02  4.28260188e+00
 -1.13227321e+00 -1.69236223e+00
Integer atomic weights                     I   N=           9
          30          15          15          15          15          12
           1           1           1
Real atomic weights                        R   N=           9
  3.09737620e+01  1.59949146e+01  1.59949146e+01  1.59949146e+01  1.59949146e+01
  1.20000000e+01  1.00782503e+00  1.00782503e+00  1.00782503e+00
Number of primitive shells                 I              126
Number of contracted shells                I               64
Pure/Cartesian d shells                    I                0
Pure/Cartesian f shells                    I                0
Highest angular momentum                   I                2
Largest degree of contraction              I                6
Shell types                                I   N=          64
           0           0           0           0           0           0
           1           1           1           1           1          -2
           0           0           1           0           1           0
           1          -2           0           0           1           0
           1           0           1          -2           0           0
           1           0           1           0           1          -2
           0           0           1           0           1           0
           1          -2           0           0           1           0
           1           0           1          -2           0           0
           0           1           0           0           0           1
           0           0           0           1
Number of primitives per shell             I   N=          64
           6           3           1           1           1           1
           4           2           1           1           1           1
           6           3           3           1           1           1
           1           1           6           3           3           1
           1           1           1           1           6           3
           3           1           1           1           1           1
           6           3           3           1           1           1
           1           1           6           3           3           1
           1           1           1           1           3           1
           1           1           3           1           1           1
           3           1           1           1
Shell to atom map                          I   N=          64
           1           1           1           1           1           1
           1           1           1           1           1           1
           2           2           2           2           2           2
           2           2           3           3           3           3
           3           3           3           3           4           4
           4           4           4           4           4           4
           5           5           5           5           5           5
           5           5           6           6           6           6
           6           6           6           6           7           7
           7           7           8           8           8           8
           9           9           9           9
Primitive exponents                        R   N=         126
  7.74924000e+04  1.16058000e+04  2.64596000e+03  7.54976000e+02  2.48755000e+02
  9.11565000e+01  9.11565000e+01  3.62257000e+01  1.52113000e+01  4.79417000e+00
  1.80793000e+00  3.56816000e-01  1.14783000e-01  3.84843000e+02  9.05521000e+01
  2.91339000e+01  1.08862000e+01  4.35259000e+00  1.77706000e+00  6.97005000e-01
  2.53532000e-01  6.84930000e-02  5.50000000e-01  8.58850000e+03  1.29723000e+03
  2.99296000e+02  8.73771000e+01  2.56789000e+01  3.74004000e+00  4.21175000e+01
  9.62837000e+00  2.85332000e+00  4.21175000e+01  9.62837000e+00  2.85332000e+00
  9.05661000e-01  9.05661000e-01  2.55611000e-01  2.55611000e-01  1.29200000e+00
  8.58850000e+03  1.29723000e+03  2.99296000e+02  8.73771000e+01  2.56789000e+01
  3.74004000e+00  4.21175000e+01  9.62837000e+00  2.85332000e+00  4.21175000e+01
  9.62837000e+00  2.85332000e+00  9.05661000e-01  9.05661000e-01  2.55611000e-01
  2.55611000e-01  1.29200000e+00  8.58850000e+03  1.29723000e+03  2.99296000e+02
  8.73771000e+01  2.56789000e+01  3.74004000e+00  4.21175000e+01  9.62837000e+00
  2.85332000e+00  4.21175000e+01  9.62837000e+00  2.85332000e+00  9.05661000e-01
  9.05661000e-01  2.55611000e-01  2.55611000e-01  1.29200000e+00  8.58850000e+03
  1.29723000e+03  2.99296000e+02  8.73771000e+01  2.56789000e+01  3.74004000e+00
  4.21175000e+01  9.62837000e+00  2.85332000e+00  4.21175000e+01  9.62837000e+00
  2.85332000e+00  9.05661000e-01  9.05661000e-01  2.55611000e-01  2.55611000e-01
  1.29200000e+00  4.56324000e+03  6.82024000e+02  1.54973000e+02  4.44553000e+01
  1.30290000e+01  1.82773000e+00  2.09642000e+01  4.80331000e+00  1.45933000e+00
  2.09642000e+01  4.80331000e+00  1.45933000e+00  4.83456000e-01  4.83456000e-01
  1.45585000e-01  1.45585000e-01  6.26000000e-01  3.38650000e+01  5.09479000e+00
  1.15879000e+00  3.25840000e-01  1.02741000e-01  7.50000000e-01  3.38650000e+01
  5.09479000e+00  1.15879000e+00  3.25840000e-01  1.02741000e-01  7.50000000e-01
  3.38650000e+01  5.09479000e+00  1.15879000e+00  3.25840000e-01  1.02741000e-01
  7.50000000e-01
Contraction coefficients                   R   N=         126
  7.81000147e-04  6.06800114e-03  3.11600059e-02  1.23431023e-01  3.78209071e-01
  5.63262106e-01  1.60255011e-01  6.27647045e-01  2.63849019e-01  1.00000000e+00
  1.00000000e+00  1.00000000e+00  1.00000000e+00  9.20599888e-03  6.98739915e-02
  2.92469964e-01  7.28102911e-01  6.28348873e-01  4.28043913e-01  1.00000000e+00
  1.00000000e+00  1.00000000e+00  1.00000000e+00  1.89515008e-03  1.43859006e-02
  7.07320031e-02  2.40001011e-01  5.94797026e-01  2.80802012e-01  1.13889012e-01
  9.20811101e-01 -3.27447036e-03  3.65113974e-02  2.37152983e-01  8.19701941e-01
  1.00000000e+00  1.00000000e+00  1.00000000e+00  1.00000000e+00  1.00000000e+00
  1.89515008e-03  1.43859006e-02  7.07320031e-02  2.40001011e-01  5.94797026e-01
  2.80802012e-01  1.13889012e-01  9.20811101e-01 -3.27447036e-03  3.65113974e-02
  2.37152983e-01  8.19701941e-01  1.00000000e+00  1.00000000e+00  1.00000000e+00
  1.00000000e+00  1.00000000e+00  1.89515008e-03  1.43859006e-02  7.07320031e-02
  2.40001011e-01  5.94797026e-01  2.80802012e-01  1.13889012e-01  9.20811101e-01
 -3.27447036e-03  3.65113974e-02  2.37152983e-01  8.19701941e-01  1.00000000e+00
  1.00000000e+00  1.00000000e+00  1.00000000e+00  1.00000000e+00  1.89515008e-03
  1.43859006e-02  7.07320031e-02  2.40001011e-01  5.94797026e-01  2.80802012e-01
  1.13889012e-01  9.20811101e-01 -3.27447036e-03  3.65113974e-02  2.37152983e-01
  8.19701941e-01  1.00000000e+00  1.00000000e+00  1.00000000e+00  1.00000000e+00
  1.00000000e+00  1.96665025e-03  1.52306019e-02  7.61269097e-02  2.60801033e-01
  6.16462078e-01  2.21006028e-01  1.14660081e-01  9.19999648e-01 -3.03068213e-03
  4.02486927e-02  2.37593957e-01  8.15853851e-01  1.00000000e+00  1.00000000e+00
  1.00000000e+00  1.00000000e+00  1.00000000e+00  2.54938145e-02  1.90373109e-01
  8.52161486e-01  1.00000000e+00  1.00000000e+00  1.00000000e+00  2.54938145e-02
  1.90373109e-01  8.52161486e-01  1.00000000e+00  1.00000000e+00  1.00000000e+00
  2.54938145e-02  1.90373109e-01  8.52161486e-01  1.00000000e+00  1.00000000e+00
  1.00000000e+00
Coordinates of each shell                  R   N=         192
 -8.50952525e-01 -1.13559647e-01 -6.98295714e-04 -8.50952525e-01 -1.13559647e-01
 -6.98295714e-04 -8.50952525e-01 -1.13559647e-01 -6.98295714e-04 -8.50952525e-01
 -1.13559647e-01 -6.98295714e-04 -8.50952525e-01 -1.13559647e-01 -6.98295714e-04
 -8.50952525e-01 -1.13559647e-01 -6.98295714e-04 -8.50952525e-01 -1.13559647e-01
 -6.98295714e-04 -8.50952525e-01 -1.13559647e-01 -6.98295714e-04 -8.50952525e-01
 -1.13559647e-01 -6.98295714e-04 -8.50952525e-01 -1.13559647e-01 -6.98295714e-04
 -8.50952525e-01 -1.13559647e-01 -6.98295714e-04 -8.50952525e-01 -1.13559647e-01
 -6.98295714e-04  1.92896689e+00  1.51147254e+00  4.91419088e-03  1.92896689e+00
  1.51147254e+00  4.91419088e-03  1.92896689e+00  1.51147254e+00  4.91419088e-03
  1.92896689e+00  1.51147254e+00  4.91419088e-03  1.92896689e+00  1.51147254e+00
  4.91419088e-03  1.92896689e+00  1.51147254e+00  4.91419088e-03  1.92896689e+00
  1.51147254e+00  4.91419088e-03  1.92896689e+00  1.51147254e+00  4.91419088e-03
 -2.73268511e+00  2.08250998e+00 -3.97400375e-02 -2.73268511e+00  2.08250998e+00
 -3.97400375e-02 -2.73268511e+00  2.08250998e+00 -3.97400375e-02 -2.73268511e+00
  2.08250998e+00 -3.97400375e-02 -2.73268511e+00  2.08250998e+00 -3.97400375e-02
 -2.73268511e+00  2.08250998e+00 -3.97400375e-02 -2.73268511e+00  2.08250998e+00
 -3.97400375e-02 -2.73268511e+00  2.08250998e+00 -3.97400375e-02 -8.03822755e-01
 -1.65434784e+00  2.45537875e+00 -8.03822755e-01 -1.65434784e+00  2.45537875e+00
 -8.03822755e-01 -1.65434784e+00  2.45537875e+00 -8.03822755e-01 -1.65434784e+00
  2.45537875e+00 -8.03822755e-01 -1.65434784e+00  2.45537875e+00 -8.03822755e-01
 -1.65434784e+00  2.45537875e+00 -8.03822755e-01 -1.65434784e+00  2.45537875e+00
 -8.03822755e-01 -1.65434784e+00  2.45537875e+00 -7.63647178e-01 -1.70954674e+00
 -2.42037922e+00 -7.63647178e-01 -1.70954674e+00 -2.42037922e+00 -7.63647178e-01
 -1.70954674e+00 -2.42037922e+00 -7.63647178e-01 -1.70954674e+00 -2.42037922e+00
 -7.63647178e-01 -1.70954674e+00 -2.42037922e+00 -7.63647178e-01 -1.70954674e+00
 -2.42037922e+00 -7.63647178e-01 -1.70954674e+00 -2.42037922e+00 -7.63647178e-01
 -1.70954674e+00 -2.42037922e+00  4.15368476e+00  6.69091984e-02  1.60717016e-03
  4.15368476e+00  6.69091984e-02  1.60717016e-03  4.15368476e+00  6.69091984e-02
  1.60717016e-03  4.15368476e+00  6.69091984e-02  1.60717016e-03  4.15368476e+00
  6.69091984e-02  1.60717016e-03  4.15368476e+00  6.69091984e-02  1.60717016e-03
  4.15368476e+00  6.69091984e-02  1.60717016e-03  4.15368476e+00  6.69091984e-02
  1.60717016e-03  4.26338336e+00 -1.17879826e+00  1.66303548e+00  4.26338336e+00
 -1.17879826e+00  1.66303548e+00  4.26338336e+00 -1.17879826e+00  1.66303548e+00
  4.26338336e+00 -1.17879826e+00  1.66303548e+00  5.78183500e+00  1.35279224e+00
  2.88948154e-02  5.78183500e+00  1.35279224e+00  2.88948154e-02  5.78183500e+00
  1.35279224e+00  2.88948154e-02  5.78183500e+00  1.35279224e+00  2.88948154e-02
  4.28260188e+00 -1.13227321e+00 -1.69236223e+00  4.28260188e+00 -1.13227321e+00
 -1.69236223e+00  4.28260188e+00 -1.13227321e+00 -1.69236223e+00  4.28260188e+00
 -1.13227321e+00 -1.69236223e+00
Total Energy                               R     -6.809181109563229e+02
Alpha Orbital Energies                     R   N=         134
 -7.96306158e+01 -2.01859632e+01 -2.00646990e+01 -2.00644001e+01 -2.00595199e+01
 -1.09667193e+01 -7.15276245e+00 -5.05188357e+00 -5.05040071e+00 -5.05018847e+00
 -1.00687135e+00 -8.92359932e-01 -8.20336936e-01 -8.18298244e-01 -6.05384518e-01
 -3.60659605e-01 -3.01693155e-01 -2.89073858e-01 -2.37320013e-01 -1.66849511e-01
 -1.64074831e-01 -1.38551145e-01 -9.80644922e-02 -5.70087163e-02 -5.39735758e-02
 -5.23556941e-02 -1.24497725e-02 -1.10373252e-02  2.05292632e-02  4.29993965e-01
  4.94988705e-01  5.23392601e-01  6.05690945e-01  6.11979784e-01  6.39027454e-01
  6.39906205e-01  7.61165332e-01  7.64134592e-01  8.15355749e-01  8.19545704e-01
  9.07444191e-01  9.39753104e-01  1.00054304e+00  1.02555997e+00  1.07483867e+00
  1.07814722e+00  1.09572295e+00  1.20655843e+00  1.32194582e+00  1.32986783e+00
  1.36647788e+00  1.36829685e+00  1.40137007e+00  1.44432793e+00  1.45119351e+00
  1.50793970e+00  1.59432787e+00  1.60695105e+00  1.61153700e+00  1.64098848e+00
  1.65361606e+00  1.69074335e+00  1.70612037e+00  1.72431304e+00  1.84403956e+00
  1.86894981e+00  1.87365284e+00  1.97198663e+00  1.99660507e+00  2.01530978e+00
  2.03975061e+00  2.06349474e+00  2.12384953e+00  2.18784454e+00  2.21082751e+00
  2.23540178e+00  2.32558344e+00  2.39319703e+00  2.39997499e+00  2.48958664e+00
  2.60783805e+00  2.70012694e+00  2.72434077e+00  2.94251135e+00  3.01819348e+00
  3.09815205e+00  3.11845885e+00  3.12155538e+00  3.40077885e+00  3.58374298e+00
  3.61552841e+00  3.64054648e+00  3.66537554e+00  3.66849647e+00  3.67028285e+00
  3.67318794e+00  3.67574436e+00  3.70669523e+00  3.72518405e+00  3.81158508e+00
  3.82816015e+00  3.89422909e+00  3.92001438e+00  3.97270432e+00  3.97622667e+00
  4.00244561e+00  4.22403785e+00  4.34946902e+00  4.35337923e+00  4.47100635e+00
  4.49867150e+00  4.78914173e+00  5.79049866e+00  5.79141225e+00  5.83457121e+00
  5.84742772e+00  5.87610133e+00  5.87875370e+00  5.88370276e+00  5.89010371e+00
  6.00515604e+00  6.15873840e+00  6.17894707e+00  6.40564260e+00  8.05823365e+00
  1.52419772e+01  1.53765511e+01  1.54216308e+01  2.53127205e+01  5.19191263e+01
  5.19477065e+01  5.19641422e+01  5.20706021e+01  1.66565541e+02
Alpha MO coefficients                      R   N=       17956
  4.19272508e-01  6.46643618e-01  1.07444288e-02 -1.05321575e-03  4.20177461e-04
 -5.40679725e-05  4.93391462e-05  2.28115068e-05  1.24964594e-08 -1.64744577e-05
 -6.58899605e-06 -1.52318266e-08  1.19232655e-05  3.39456293e-07  6.74818847e-08
 -1.11887044e-05  8.62087612e-06 -3.45438186e-07 -2.26844709e-05  8.08592312e-06
 -8.67567504e-09  4.57688169e-06 -6.30813164e-08 -2.04891824e-08 -6.15897745e-06
 -8.99197458e-06  6.77076799e-07 -1.63056109e-06 -2.32448257e-06 -5.37364505e-07
 -6.84340404e-09  2.05761985e-05  4.38827653e-06 -5.34013871e-07  9.99753460e-09
 -6.66603354e-05  1.94644812e-05  4.06574476e-05  1.64921393e-07  9.62351086e-06
 -3.62255949e-08 -4.30359555e-08 -5.38990564e-06 -8.55421296e-06  3.52858364e-07
  4.82892692e-07  4.30028874e-06 -3.59985976e-06  6.00279084e-08  1.46198625e-05
 -1.66230224e-05  1.51971321e-05 -2.54906111e-07 -7.07895073e-05 -2.72934825e-05
  3.91867736e-05 -7.29866728e-07  1.08090532e-05 -3.36525434e-07  3.79398050e-07
  2.40274686e-06  1.86830572e-05  1.91230443e-07  1.37947713e-06  2.15431136e-07
  2.61714697e-06 -4.09861199e-06  8.32567508e-06 -5.48497796e-07 -1.04792266e-05
  1.68430268e-05 -4.60113877e-05  3.62168887e-06 -2.49128729e-05  3.59466241e-05
 -1.16098961e-05 -2.44088038e-07  1.67584710e-05  5.02644013e-06  4.09418575e-07
  1.96149906e-07  1.35133501e-06  8.09552705e-08  2.71031017e-06  4.01562782e-06
  8.49195612e-06 -5.36555916e-08 -1.08471341e-05 -1.65081814e-05 -4.62781495e-05
  3.77520465e-06 -2.58415630e-05 -3.56229603e-05 -1.09438344e-05  6.22446366e-07
 -1.71111018e-05  5.39009031e-06  6.81279719e-07 -6.84729057e-08  5.55949801e-08
  2.69718468e-06  3.88329533e-07 -1.09248447e-08 -5.73507464e-06 -1.00815746e-05
 -1.42335888e-06  7.51761532e-08  4.12986325e-05 -4.16787125e-05 -1.73628275e-05
 -2.56655439e-07  1.44622148e-07 -4.41560147e-08 -1.27747361e-07  6.68340091e-06
 -3.66519622e-06  1.57378968e-06 -1.59366761e-05  6.76721317e-06  2.48439555e-06
  1.52988145e-06  1.65681675e-06 -3.74255208e-07  1.35444887e-05  4.84449899e-06
 -1.05132744e-06 -2.70039411e-06 -8.95356818e-08  1.50740807e-06 -1.54981097e-05
  6.51103047e-06  2.52065759e-06  1.66064027e-06 -1.51739455e-06  1.89448759e-06
  4.21465344e-06 -7.77965506e-07 -5.12519759e-05  3.43299121e-05  4.31477044e-04
 -7.14930400e-06 -3.71974329e-06 -3.96861418e-09 -2.52513102e-05 -1.38361950e-05
 -9.23592984e-08  3.21485560e-05  2.65873610e-05  2.62373568e-07  1.59233361e-04
  4.81073314e-05 -4.72806984e-07  9.81625338e-05  9.78658249e-05  4.26568535e-07
 -2.69815896e-05 -7.07925096e-08  4.35652845e-07  4.77412621e-05  5.62055785e-05
  5.51459742e-01  4.71663735e-01  5.15909933e-04 -1.37554821e-03 -2.99141523e-06
  5.60992271e-03 -2.84443872e-04  4.89580759e-04  9.27994673e-07 -7.47002559e-04
  9.90670651e-05 -1.75738661e-05  1.51094675e-07  1.22861972e-04 -1.95535450e-08
 -2.40822810e-07 -7.23193529e-05  9.35872039e-05 -2.87237967e-05 -2.76683788e-05
 -3.77633102e-06  1.15902857e-06 -6.78169295e-08  2.80515851e-05 -1.59200934e-06
 -3.50831777e-06  1.58673792e-07 -1.14549695e-04 -3.74070516e-05  1.65338395e-06
 -4.09737961e-07 -3.65271288e-06  9.16875984e-08 -1.35094725e-07 -2.83803343e-06
 -1.85253695e-06 -3.45387412e-05 -3.23937628e-05 -3.81689096e-06 -3.74084411e-06
  2.07129498e-06  2.90950677e-05  1.78326366e-06  2.52699734e-06 -1.71131768e-07
 -1.21633672e-04 -4.39220098e-05 -5.37196056e-05  3.71066718e-05  2.27222042e-06
  6.24861366e-06  3.05359959e-06  1.41071601e-06 -3.91570296e-06 -3.46763206e-05
 -3.25566095e-05 -3.86609571e-06 -3.84957048e-06 -2.11886198e-06  2.94627042e-05
  2.06723931e-06  2.78232368e-06  3.58212282e-07 -1.22585257e-04 -4.39191336e-05
 -5.55624658e-05 -3.76270445e-05  2.21992864e-06 -6.25667062e-06 -3.12827925e-06
  1.64837032e-06 -4.08077370e-06 -3.36297738e-06 -3.30106151e-05 -1.57308665e-05
  2.51185858e-05  6.17016891e-08  9.41024835e-05 -2.34873716e-04  9.49649261e-05
  4.99665936e-07  2.50272788e-04 -5.08543150e-05  1.21607956e-04  5.24092416e-07
 -5.71937274e-05 -3.65150917e-07 -1.63472916e-07  7.83645825e-05 -1.02882356e-04
  9.77869184e-06 -2.67960761e-05 -7.29394594e-06  1.62517545e-05 -8.65655075e-06
 -1.78197022e-05  2.18700970e-05 -5.31904973e-05 -3.46167792e-05 -1.03676806e-05
 -1.89270470e-05 -2.75464748e-07  9.42702977e-06 -2.64608849e-05 -6.78769003e-06
  1.55349942e-05 -8.90262249e-06  1.80889995e-05 -3.91463691e-06 -9.15965075e-06
  7.06387648e-06  8.64422867e-05 -7.07863434e-05 -4.82040600e-04  1.47161002e-06
 -5.71684166e-06 -9.77038655e-06 -9.13227459e-07 -3.05930862e-05 -4.83660378e-05
  1.21607341e-05  4.53868406e-05  6.71023246e-05 -3.39600019e-05  1.00888582e-04
  1.73839000e-04 -6.63615219e-05  9.33882915e-05  1.47451960e-04 -6.01991021e-05
  6.79873310e-06 -9.46448149e-05  2.93428329e-05  1.66993451e-06 -3.52431881e-05
 -2.90020765e-05 -4.83574868e-06 -1.99456270e-06 -5.14173830e-06 -1.68467201e-05
  4.90249796e-06 -5.28428891e-06  9.13966234e-06  8.39258174e-05 -5.13902991e-05
 -2.78316610e-05 -5.49545870e-05 -8.30747068e-07  4.41719300e-06  4.48838497e-06
 -9.51389062e-07  2.11188766e-06  9.46039446e-04  8.10962275e-04  5.05673189e-06
 -8.97163543e-06 -7.89990405e-06 -9.77183646e-06 -9.09933708e-06  1.22031420e-05
  1.48375585e-05  7.19197153e-05  3.30683020e-05 -5.59123886e-05 -6.71447538e-05
  1.26938523e-06 -2.77047818e-06  4.80874553e-06 -1.12868440e-06 -2.73327801e-07
  1.75864107e-02  1.50448957e-02  2.25311268e-06  1.86437282e-05 -4.54670742e-05
  1.43010271e-04 -4.04941425e-06  2.23912781e-08  2.83217219e-05  9.50362593e-05
  1.48844830e-05 -2.52724128e-05 -9.30622340e-05  4.69372145e-06 -1.19697239e-06
  4.43414847e-06  7.51645858e-07  5.59902751e-07 -5.51197606e-01 -4.71442188e-01
 -2.53270422e-05 -7.10073894e-04 -1.07490211e-03 -5.43371647e-03  1.27227275e-05
  2.06584931e-04  3.13119487e-04  4.62233954e-04 -2.70306047e-06  5.18572458e-06
  4.15360458e-06  1.07555804e-05 -1.06106842e-06  2.36727123e-05  3.96801688e-06
  5.59735171e-06 -3.74646288e-07  7.25853676e-07 -9.51787382e-07  7.74919029e-07
 -1.77114915e-06 -1.73205857e-05  1.01572770e-05 -7.11163334e-06  1.97963744e-06
  1.00597844e-04 -5.69684961e-05 -3.54949120e-05  1.23114709e-06  2.18555233e-06
 -3.01421590e-06  4.89017704e-06 -3.42500294e-06  4.97286858e-06  3.37340874e-06
 -3.51683003e-05  4.30015157e-06  1.66058538e-06 -2.10572128e-06  4.16751326e-06
 -2.40887518e-06  5.23483460e-06  1.65389150e-05  7.97285747e-07  1.73778557e-06
 -1.26813494e-06  1.62865527e-06 -2.17922668e-05 -5.69493867e-06  7.86620195e-07
 -2.24601539e-06 -1.03096804e-05 -4.17365212e-06 -9.77971030e-06  7.62937049e-06
  9.19532031e-05 -7.45052234e-05 -5.17041523e-04  1.43740296e-06 -5.87920270e-06
  9.31458302e-06 -1.88834508e-06 -3.15090267e-05  4.60524459e-05  1.45190779e-05
  4.67939254e-05 -6.37482730e-05 -3.40917353e-05  1.03919680e-04 -1.66685370e-04
 -6.89730506e-05  9.61413727e-05 -1.41567242e-04 -6.80508724e-05 -4.20024846e-06
  8.70837950e-05  2.93332143e-05  1.18236254e-07 -3.74270622e-05 -3.08630126e-05
 -5.20820957e-06 -1.98463791e-06  4.88306304e-06 -1.72358792e-05  5.44109201e-06
 -6.02339949e-06 -8.73546501e-06  8.67195689e-05 -5.75515493e-05 -2.69624984e-05
  5.28767490e-05 -7.58432370e-07 -4.20603128e-06 -4.29196465e-06 -9.11646472e-07
  2.45333468e-06  1.07242630e-03  9.19187905e-04  5.36222854e-06 -9.50272293e-06
  7.67035124e-06 -9.86129797e-06 -9.49551485e-06  1.27109264e-05 -1.42702145e-05
  7.70529409e-05  3.42714743e-05 -5.81119047e-05  6.47701527e-05  1.63667461e-06
  2.56764745e-06 -4.51260184e-06 -1.13331511e-06 -1.38111410e-07 -5.51197465e-01
 -4.71441826e-01 -4.23181157e-05 -6.84356896e-04  1.09046052e-03 -5.43629135e-03
  1.73154072e-05  1.99139277e-04 -3.16674300e-04  4.71184415e-04 -1.13459304e-06
  4.31518649e-06 -1.07638809e-05  1.20775926e-05  4.54359919e-07 -2.28285681e-05
  4.65927749e-06  5.95422806e-06 -1.75864529e-02 -1.50386442e-02 -1.34646571e-07
 -2.56037581e-05 -2.35661770e-05 -2.03708039e-04 -2.59549643e-06  1.25696056e-05
 -8.31847859e-06  1.24955198e-04  1.28446187e-05 -2.30066368e-05  9.41655924e-05
  5.61883282e-06  9.84997334e-07 -2.77497700e-06  1.06065376e-06  1.00249316e-06
 -3.77799406e-07  7.68979388e-07 -9.60682914e-07  5.59780683e-07  1.79546283e-06
 -1.88557435e-05  1.04375834e-05 -6.84213882e-06 -3.28157299e-06  1.14027164e-04
 -6.39738111e-05 -4.03887603e-05 -4.42674159e-06  2.49788989e-06  2.77008220e-06
 -3.98500605e-06 -3.74961791e-06  4.73151974e-06  1.68277147e-06 -2.46515198e-05
 -4.14655942e-06  4.69723949e-07 -2.22117969e-06  1.03705809e-05 -2.44007430e-06
  5.79965368e-06  1.92700380e-05  7.01200113e-07  1.71715887e-06  1.35781612e-06
  4.13502202e-06 -4.09844826e-05  1.64131357e-07  2.65769364e-06 -2.54722305e-06
 -6.03761433e-06  4.18705105e-06  8.88561923e-06 -1.42529756e-06 -1.04834662e-04
  1.32135851e-04  3.12043681e-04  6.64591176e-06 -9.26617841e-06  1.51758617e-07
  3.85149912e-05 -4.15093882e-05  7.81497782e-07 -6.16228683e-05  5.01987591e-05
 -1.11504291e-06 -9.88439515e-05  1.84798747e-04 -2.77889312e-06 -1.40689784e-04
  1.64005575e-04 -2.71274473e-06 -6.38196807e-05  1.82303239e-06 -2.09682797e-06
 -1.37299183e-05 -9.27722986e-05  3.08825131e-05  2.52945836e-05  4.79537071e-06
 -1.97946574e-08  7.15824047e-08  1.61185246e-05 -2.40516841e-06  2.72862800e-06
 -5.63379435e-08 -9.98733244e-05  7.53398265e-05 -3.45709622e-06  9.82061821e-07
  2.10612363e-07 -7.29744514e-08 -6.22750735e-08 -4.66200523e-06  1.43349056e-06
  5.51476590e-01  4.71681514e-01  8.32864897e-04 -9.88442806e-04  1.72497557e-05
  5.43280925e-03 -2.43859816e-04  2.92950211e-04 -5.04709773e-06 -4.37527335e-04
  1.09412729e-05 -1.68157842e-05  1.62812428e-07  2.14828450e-05 -4.53858857e-07
  4.36650371e-07 -8.75278751e-07  1.51510626e-05  1.04362559e-03  8.91641269e-04
  5.62275909e-06 -8.17204073e-06  2.48035516e-07  2.11622897e-05 -8.62849916e-06
  1.77468269e-05 -5.27298791e-07 -3.39976452e-05  4.48706146e-05 -7.26546289e-05
  6.78857661e-08  4.83987572e-06 -1.84819331e-06  1.55175149e-06  1.30458519e-06
  3.14852234e-06  9.81666385e-04  8.38635525e-04  5.59774952e-06 -8.27384267e-06
 -1.17080445e-07  2.06303995e-05 -8.53826584e-06  1.78741121e-05  1.23641145e-07
 -3.38881353e-05  4.46302420e-05 -7.27814790e-05  2.06892226e-06  4.92790429e-06
  1.64768376e-06 -1.29603787e-06  1.29276660e-06  3.19370510e-06 -3.32459180e-07
  1.27104413e-07 -5.46515925e-07  1.12558764e-06 -1.20565171e-08 -6.98682473e-06
  1.23721111e-07 -8.95393701e-06 -1.68786452e-08 -1.28009994e-05 -5.06823897e-05
 -4.36963071e-05 -1.23024819e-06  4.79452255e-06 -8.37278897e-08 -2.42589686e-07
  3.69480860e-07 -5.81000179e-06  2.92725058e-06 -2.31951532e-05  3.47092038e-05
  2.14845150e-06  4.61915861e-07  4.60858171e-06 -4.48366925e-06  4.16690807e-05
  7.70873063e-06 -5.85827193e-06 -4.41239180e-06 -1.55608898e-07  2.82066005e-06
 -2.22902227e-05  3.07541745e-05  2.54060118e-06  6.28382186e-07 -4.61785154e-06
 -2.52794177e-07 -4.54435317e-07 -9.59605760e-07  1.15886421e-05 -4.36384658e-05
  1.78895900e-05 -2.36314735e-07  1.47398423e-06 -6.24104213e-09  9.94050183e-06
 -2.68578439e-06  5.74402624e-08 -4.15325057e-05  1.65578876e-05 -3.16444218e-07
  5.94625201e-05 -5.72563868e-05  1.53037565e-06  1.30849793e-05 -1.83548452e-05
 -1.11314748e-07  1.65585740e-06 -2.06508394e-08 -8.49432933e-08  6.68528468e-06
 -1.48322595e-06 -7.16672242e-05 -1.27107791e-04  9.39765713e-05 -6.62401862e-05
 -1.58668432e-07  2.98885489e-04  4.12102228e-04 -2.72475348e-04 -4.97756983e-07
  2.92854406e-04  6.97326037e-05 -5.32718529e-05 -1.88351616e-07 -9.39805126e-05
 -1.35343200e-07  1.42095599e-07  6.02663239e-05 -1.57816982e-04 -4.14825194e-07
 -2.79181119e-07 -1.68049807e-07  5.63909921e-07  2.45377106e-08 -5.47007136e-06
  1.23371592e-05 -2.10767498e-06  6.15338491e-08  5.02919090e-05  9.92381327e-06
 -1.82102600e-05  4.42328310e-07 -1.69142120e-06  6.41863688e-08 -4.33165162e-08
  4.69483047e-07 -2.67755628e-06  2.81822422e-07  3.53841947e-08 -4.32702000e-07
  1.47081669e-06 -1.16231672e-06  4.14535836e-06 -5.60609825e-06 -5.09919025e-06
  5.07106111e-06 -3.05680107e-05 -1.05002693e-05  1.22038540e-05  1.14374653e-06
 -6.26645462e-07  1.27072970e-06 -1.63584871e-06 -1.14866991e-06 -1.07704368e-06
  3.09128816e-07  1.67306336e-07 -2.70959795e-07  1.44104474e-06  1.25650447e-06
  3.17984199e-06 -6.29590703e-06 -5.34137791e-06 -5.51640434e-06 -2.91069805e-05
 -8.93679455e-06  1.24906756e-05  1.52890297e-07 -6.99150044e-07 -1.11312006e-06
  1.69729865e-06 -1.07741899e-06 -1.12660928e-06  5.63494809e-01  4.66578199e-01
 -2.88202083e-04  4.80555654e-04  5.99461014e-06  3.87163069e-03  2.55399050e-04
 -3.98337127e-04 -4.41911212e-06 -1.15039121e-03 -9.62954349e-06  1.19686558e-04
  2.33960255e-06  1.14965124e-04 -3.91920822e-07 -1.19206907e-06 -8.60092967e-05
  1.01170647e-04  3.32018299e-04  1.27253967e-04  2.53635266e-04 -1.06318959e-05
  2.19510436e-05  3.69857315e-07  3.59015109e-04  2.05853529e-04  1.62650980e-04
 -6.93844623e-05 -2.19073746e-05 -6.75789503e-07  3.32009445e-04  1.27852527e-04
  2.53955167e-04 -1.03437431e-05  2.21178467e-05  8.86733664e-08  1.20063903e-01
  3.17090629e-01 -5.27111838e-01 -5.90374096e-01 -4.02303772e-02  6.89899812e-03
 -1.33183609e-03 -5.71849702e-04 -1.94176163e-07 -3.10704816e-03 -1.40087156e-03
  8.41082746e-08 -3.63673152e-04  2.46933827e-05 -3.05724823e-06 -4.23760542e-04
 -6.23883066e-04  1.49947796e-05  1.42050757e-03 -3.83004261e-04  2.42958725e-06
  1.10082278e-04  9.04004466e-07 -1.22168420e-06 -7.56349367e-05 -3.70345418e-05
  6.39060757e-05  1.18575696e-04  1.83173627e-04  7.92320046e-05  3.43836084e-07
 -9.11043593e-04 -1.35085452e-05  2.13389837e-04  7.15121568e-07  2.49814855e-03
 -7.41950394e-04 -1.88941307e-03 -8.49380958e-06 -2.92000289e-04  8.81120229e-07
  1.31014855e-06  1.57452504e-04  1.83201160e-04  1.54002018e-04  2.28454547e-04
 -1.23930321e-04  1.06237192e-04 -1.70605210e-06 -7.54530924e-04 -1.55212989e-04
  3.23040047e-04 -6.56739490e-06  1.58431419e-03  9.19907275e-04 -1.33526034e-03
  2.56503600e-05  2.31857604e-05 -5.38503367e-07  9.98413090e-07  2.26431294e-05
  3.79537174e-05  1.46162093e-04  1.93144224e-04 -6.10685530e-06 -7.35927086e-05
  1.20963720e-04 -4.40389068e-04  4.05226974e-05 -2.33731833e-04  3.44653758e-04
  4.56803621e-04 -1.25645601e-04  9.05020063e-04 -1.22324384e-03 -4.65142187e-05
 -1.25112768e-05  2.88866261e-05  1.65562719e-05  1.23850651e-06  1.46185169e-04
  1.93587117e-04 -2.22561829e-06 -7.63532654e-05 -1.18944503e-04 -4.45756294e-04
  3.84014420e-05 -2.41535841e-04 -3.40496401e-04  4.68824873e-04 -1.28081908e-04
  9.39300451e-04  1.21326738e-03 -4.42956015e-05  1.44905334e-05 -2.84523885e-05
  1.70877010e-05  2.63443225e-06 -5.16481003e-07  1.32197460e-06 -1.01916491e-04
 -2.26191331e-05  1.08382131e-08  2.00782447e-04  4.50247652e-04  5.33036924e-05
 -8.37011471e-07 -1.52615186e-03  1.96878960e-03  5.49769325e-04  1.08412182e-05
  1.05656395e-05  1.30684398e-06  3.40653216e-06 -3.24494222e-04  1.51484606e-04
 -2.65479177e-05  5.11176962e-04 -5.70471738e-04 -4.38931266e-05 -7.45183348e-05
 -1.06466631e-05  1.23076330e-05 -6.22061533e-04 -1.74355727e-04  3.86731569e-05
  1.19808414e-04  3.79652325e-06 -2.42364330e-05  4.99077657e-04 -5.53829024e-04
 -4.67910874e-05 -7.65883335e-05  7.46943222e-06  5.99345049e-04  1.62420177e-03
 -3.27959473e-03 -2.18132435e-03  2.67809025e-04 -2.74276239e-06  3.66883044e-01
  1.71766932e-01  1.28320006e-03  6.24960955e-01  2.92670275e-01  2.18491818e-03
  3.72546058e-02  1.74521908e-02  1.30192722e-04  6.55642459e-04  3.75452652e-04