
    -----------------------------------------------------------------------
          Psi4: An Open-Source Ab Initio Electronic Structure Package
                               Psi4 1.3.2 release

                         Git: Rev {HEAD} ecbda83 


    R. M. Parrish, L. A. Burns, D. G. A. Smith, A. C. Simmonett,
    A. E. DePrince III, E. G. Hohenstein, U. Bozkaya, A. Yu. Sokolov,
    R. Di Remigio, R. M. Richard, J. F. Gonthier, A. M. James,
    H. R. McAlexander, A. Kumar, M. Saitow, X. Wang, B. P. Pritchard,
    P. Verma, H. F. Schaefer III, K. Patkowski, R. A. King, E. F. Valeev,
    F. A. Evangelista, J. M. Turney, T. D. Crawford, and C. D. Sherrill,
    J. Chem. Theory Comput. 13(7) pp 3185--3197 (2017).
    (doi: 10.1021/acs.jctc.7b00174)


                         Additional Contributions by
    P. Kraus, H. Kruse, M. H. Lechner, M. C. Schieber, R. A. Shaw,
    A. Alenaizan, R. Galvelis, Z. L. Glick, S. Lehtola, and J. P. Misiewicz

    -----------------------------------------------------------------------


    Psi4 started on: Monday, 21 September 2020 03:01PM

    Process ID: 24363
    Host:       node37.bme.utexas.edu
    PSIDATADIR: /home/bdw2292/miniconda3/envs/p4env/share/psi4
    Memory:     500.0 MiB
    Threads:    1
    
  ==> Input File <==

--------------------------------------------------------------------------
molecule { 
-2 1
P         -0.52133       -0.05613       -0.00037
O          0.94974        0.80380        0.00260
O         -1.51710        1.10598       -0.02103
O         -0.49639       -0.87148        1.29933
O         -0.47513       -0.90069       -1.28081
C          2.12701        0.03937        0.00085
H          2.18506       -0.61983        0.88004
H          2.98859        0.71983        0.01529
H          2.19523       -0.59521       -0.89556
}
memory 100GB
set_num_threads(8)
psi4_io.set_default_path("/scratch/bdw2292/Psi4-MonoMethylPhosphate0H")
set freeze_core True
set PROPERTIES_ORIGIN ["COM"]
E, wfn = energy('mp2/6-311G**',properties=['dipole'],return_wfn=True)
fchk(wfn, "MonoMethylPhosphate0H-dma.fchk")
clean()
--------------------------------------------------------------------------

  Memory set to  93.132 GiB by Python driver.
  Threads set to 8 by Python driver.
    SCF Algorithm Type (re)set to DF.

*** tstart() called on node37.bme.utexas.edu
*** at Mon Sep 21 15:01:29 2020

   => Loading Basis Set <=

    Name: 6-311G**
    Role: ORBITAL
    Keyword: BASIS
    atoms 1   entry P          line   356 file /home/bdw2292/miniconda3/envs/p4env/share/psi4/basis/6-311gss.gbs 
    atoms 2-5 entry O          line   151 file /home/bdw2292/miniconda3/envs/p4env/share/psi4/basis/6-311gss.gbs 
    atoms 6   entry C          line   113 file /home/bdw2292/miniconda3/envs/p4env/share/psi4/basis/6-311gss.gbs 
    atoms 7-9 entry H          line    32 file /home/bdw2292/miniconda3/envs/p4env/share/psi4/basis/6-311gss.gbs 


         ---------------------------------------------------------
                                   SCF
               by Justin Turney, Rob Parrish, Andy Simmonett
                          and Daniel G. A. Smith
                              RHF Reference
                        8 Threads,  95367 MiB Core
         ---------------------------------------------------------

  ==> Geometry <==

    Molecular point group: c1
    Full point group: C1

    Geometry (in Angstrom), charge = -2, multiplicity = 1:

       Center              X                  Y                   Z               Mass       
    ------------   -----------------  -----------------  -----------------  -----------------
         P           -0.450304683381    -0.060093177023    -0.000369522178    30.973761998420
         O            1.020765316619     0.799836822977     0.002600477822    15.994914619570
         O           -1.446074683381     1.102016822977    -0.021029522178    15.994914619570
         O           -0.425364683381    -0.875443177023     1.299330477822    15.994914619570
         O           -0.404104683381    -0.904653177023    -1.280809522178    15.994914619570
         C            2.198035316619     0.035406822977     0.000850477822    12.000000000000
         H            2.256085316619    -0.623793177023     0.880040477822     1.007825032230
         H            3.059615316619     0.715866822977     0.015290477822     1.007825032230
         H            2.266255316619    -0.599173177023    -0.895559522178     1.007825032230

  Running in c1 symmetry.

  Rotational constants: A =      0.15154  B =      0.08669  C =      0.08600 [cm^-1]
  Rotational constants: A =   4543.19298  B =   2598.88631  C =   2578.19536 [MHz]
  Nuclear repulsion =  334.210135917441619

  Charge       = -2
  Multiplicity = 1
  Electrons    = 58
  Nalpha       = 29
  Nbeta        = 29

  ==> Algorithm <==

  SCF Algorithm Type is DF.
  DIIS enabled.
  MOM disabled.
  Fractional occupation disabled.
  Guess Type is SAD.
  Energy threshold   = 1.00e-08
  Density threshold  = 1.00e-08
  Integral threshold = 0.00e+00

  ==> Primary Basis <==

  Basis Set: 6-311G**
    Blend: 6-311G**
    Number of shells: 64
    Number of basis function: 134
    Number of Cartesian functions: 140
    Spherical Harmonics?: true
    Max angular momentum: 2

   => Loading Basis Set <=

    Name: (6-311G** AUX)
    Role: JKFIT
    Keyword: DF_BASIS_SCF
    atoms 1   entry P          line   537 file /home/bdw2292/miniconda3/envs/p4env/share/psi4/basis/cc-pvtz-jkfit.gbs 
    atoms 2-5 entry O          line   229 file /home/bdw2292/miniconda3/envs/p4env/share/psi4/basis/cc-pvtz-jkfit.gbs 
    atoms 6   entry C          line   125 file /home/bdw2292/miniconda3/envs/p4env/share/psi4/basis/cc-pvtz-jkfit.gbs 
    atoms 7-9 entry H          line    51 file /home/bdw2292/miniconda3/envs/p4env/share/psi4/basis/cc-pvtz-jkfit.gbs 

  ==> Pre-Iterations <==

   -------------------------------------------------------
    Irrep   Nso     Nmo     Nalpha   Nbeta   Ndocc  Nsocc
   -------------------------------------------------------
     A        134     134       0       0       0       0
   -------------------------------------------------------
    Total     134     134      29      29      29       0
   -------------------------------------------------------

  ==> Integral Setup <==

  DFHelper Memory: AOs need 0.084 GiB; user supplied 69.849 GiB. Using in-core AOs.

  ==> MemDFJK: Density-Fitted J/K Matrices <==

    J tasked:                   Yes
    K tasked:                   Yes
    wK tasked:                   No
    OpenMP threads:               8
    Memory [MiB]:             71525
    Algorithm:                 Core
    Schwarz Cutoff:           1E-12
    Mask sparsity (%):       5.7251
    Fitting Condition:        1E-10

   => Auxiliary Basis Set <=

  Basis Set: (6-311G** AUX)
    Blend: CC-PVTZ-JKFIT
    Number of shells: 192
    Number of basis function: 606
    Number of Cartesian functions: 730
    Spherical Harmonics?: true
    Max angular momentum: 4

  Minimum eigenvalue in the overlap matrix is 8.0527966670E-03.
  Using Symmetric Orthogonalization.

  SCF Guess: Superposition of Atomic Densities via on-the-fly atomic UHF.

  ==> Iterations <==

                           Total Energy        Delta E     RMS |[F,P]|

   @DF-RHF iter SAD:  -678.49060518912165   -6.78491e+02   0.00000e+00 
   @DF-RHF iter   1:  -679.52253164371189   -1.03193e+00   6.86051e-03 DIIS
   @DF-RHF iter   2:  -679.73722574622582   -2.14694e-01   4.46656e-03 DIIS
   @DF-RHF iter   3:  -679.85081666585188   -1.13591e-01   3.57905e-04 DIIS
   @DF-RHF iter   4:  -679.85224573371113   -1.42907e-03   1.34872e-04 DIIS
   @DF-RHF iter   5:  -679.85243756815964   -1.91834e-04   4.46810e-05 DIIS
   @DF-RHF iter   6:  -679.85245706357500   -1.94954e-05   1.33948e-05 DIIS
   @DF-RHF iter   7:  -679.85245966809850   -2.60452e-06   3.79273e-06 DIIS
   @DF-RHF iter   8:  -679.85245998261996   -3.14521e-07   1.06374e-06 DIIS
   @DF-RHF iter   9:  -679.85246000759946   -2.49795e-08   3.17840e-07 DIIS
   @DF-RHF iter  10:  -679.85246000925986   -1.66040e-09   9.96544e-08 DIIS
   @DF-RHF iter  11:  -679.85246000937116   -1.11299e-10   3.49238e-08 DIIS
   @DF-RHF iter  12:  -679.85246000938434   -1.31877e-11   1.00785e-08 DIIS
   @DF-RHF iter  13:  -679.85246000938662   -2.27374e-12   2.53679e-09 DIIS
  Energy and wave function converged.


  ==> Post-Iterations <==

    Orbital Energies [Eh]
    ---------------------

    Doubly Occupied:                                                      

       1A    -79.630616     2A    -20.185963     3A    -20.064699  
       4A    -20.064400     5A    -20.059520     6A    -10.966719  
       7A     -7.152762     8A     -5.051884     9A     -5.050401  
      10A     -5.050188    11A     -1.006871    12A     -0.892360  
      13A     -0.820337    14A     -0.818298    15A     -0.605385  
      16A     -0.360660    17A     -0.301693    18A     -0.289074  
      19A     -0.237320    20A     -0.166850    21A     -0.164075  
      22A     -0.138551    23A     -0.098064    24A     -0.057009  
      25A     -0.053974    26A     -0.052356    27A     -0.012450  
      28A     -0.011037    29A      0.020529  

    Virtual:                                                              

      30A      0.429994    31A      0.494989    32A      0.523393  
      33A      0.605691    34A      0.611980    35A      0.639027  
      36A      0.639906    37A      0.761165    38A      0.764135  
      39A      0.815356    40A      0.819546    41A      0.907444  
      42A      0.939753    43A      1.000543    44A      1.025560  
      45A      1.074839    46A      1.078147    47A      1.095723  
      48A      1.206558    49A      1.321946    50A      1.329868  
      51A      1.366478    52A      1.368297    53A      1.401370  
      54A      1.444328    55A      1.451194    56A      1.507940  
      57A      1.594328    58A      1.606951    59A      1.611537  
      60A      1.640988    61A      1.653616    62A      1.690743  
      63A      1.706120    64A      1.724313    65A      1.844040  
      66A      1.868950    67A      1.873653    68A      1.971987  
      69A      1.996605    70A      2.015310    71A      2.039751  
      72A      2.063495    73A      2.123850    74A      2.187845  
      75A      2.210828    76A      2.235402    77A      2.325583  
      78A      2.393197    79A      2.399975    80A      2.489587  
      81A      2.607838    82A      2.700127    83A      2.724341  
      84A      2.942511    85A      3.018193    86A      3.098152  
      87A      3.118459    88A      3.121555    89A      3.400779  
      90A      3.583743    91A      3.615528    92A      3.640546  
      93A      3.665376    94A      3.668496    95A      3.670283  
      96A      3.673188    97A      3.675744    98A      3.706695  
      99A      3.725184   100A      3.811585   101A      3.828160  
     102A      3.894229   103A      3.920014   104A      3.972704  
     105A      3.976227   106A      4.002446   107A      4.224038  
     108A      4.349469   109A      4.353379   110A      4.471006  
     111A      4.498671   112A      4.789142   113A      5.790499  
     114A      5.791412   115A      5.834571   116A      5.847428  
     117A      5.876101   118A      5.878754   119A      5.883703  
     120A      5.890104   121A      6.005156   122A      6.158738  
     123A      6.178947   124A      6.405643   125A      8.058234  
     126A     15.241977   127A     15.376551   128A     15.421631  
     129A     25.312720   130A     51.919126   131A     51.947707  
     132A     51.964142   133A     52.070602   134A    166.565541  

    Final Occupation by Irrep:
              A 
    DOCC [    29 ]

  @DF-RHF Final Energy:  -679.85246000938662

   => Energetics <=

    Nuclear Repulsion Energy =            334.2101359174416189
    One-Electron Energy =               -1629.4392207788157521
    Two-Electron Energy =                 615.3766248519874580
    Total Energy =                       -679.8524600093866184

Computation Completed


Properties will be evaluated at   0.000000,  -0.000000,   0.000000 [a0]

Properties computed using the SCF density matrix

  Nuclear Dipole Moment: [e a0]
     X:     7.5161      Y:    -0.4195      Z:     0.0001

  Electronic Dipole Moment: [e a0]
     X:    -5.3188      Y:     0.5874      Z:    -0.0005

  Dipole Moment: [e a0]
     X:     2.1973      Y:     0.1679      Z:    -0.0004     Total:     2.2037

  Dipole Moment: [D]
     X:     5.5851      Y:     0.4267      Z:    -0.0010     Total:     5.6014


*** tstop() called on node37.bme.utexas.edu at Mon Sep 21 15:01:31 2020
Module time:
	user time   =      13.68 seconds =       0.23 minutes
	system time =       0.79 seconds =       0.01 minutes
	total time  =          2 seconds =       0.03 minutes
Total time:
	user time   =      13.68 seconds =       0.23 minutes
	system time =       0.79 seconds =       0.01 minutes
	total time  =          2 seconds =       0.03 minutes

*** tstart() called on node37.bme.utexas.edu
*** at Mon Sep 21 15:01:31 2020


  //>>>>>>>>>>>>>>>>>>>>>>>>>>>>>>>>>>>//
  //               DFMP2               //
  //<<<<<<<<<<<<<<<<<<<<<<<<<<<<<<<<<<<//

   => Loading Basis Set <=

    Name: (6-311G** AUX)
    Role: RIFIT
    Keyword: DF_BASIS_MP2
    atoms 1   entry P          line   713 file /home/bdw2292/miniconda3/envs/p4env/share/psi4/basis/cc-pvtz-ri.gbs 
    atoms 2-5 entry O          line   305 file /home/bdw2292/miniconda3/envs/p4env/share/psi4/basis/cc-pvtz-ri.gbs 
    atoms 6   entry C          line   209 file /home/bdw2292/miniconda3/envs/p4env/share/psi4/basis/cc-pvtz-ri.gbs 
    atoms 7-9 entry H          line    19 file /home/bdw2292/miniconda3/envs/p4env/share/psi4/basis/cc-pvtz-ri.gbs 

	 --------------------------------------------------------
	                          DF-MP2                         
	      2nd-Order Density-Fitted Moller-Plesset Theory     
	              RMP2 Wavefunction,   8 Threads             
	                                                         
	        Rob Parrish, Justin Turney, Andy Simmonett,      
	           Ed Hohenstein, and C. David Sherrill          
	 --------------------------------------------------------

   => Auxiliary Basis Set <=

  Basis Set: (6-311G** AUX)
    Blend: CC-PVTZ-RI
    Number of shells: 177
    Number of basis function: 617
    Number of Cartesian functions: 766
    Spherical Harmonics?: true
    Max angular momentum: 4

	 --------------------------------------------------------
	                 NBF =   134, NAUX =   617
	 --------------------------------------------------------
	   CLASS    FOCC     OCC    AOCC    AVIR     VIR    FVIR
	   PAIRS      10      29      19     105     105       0
	 --------------------------------------------------------

	-----------------------------------------------------------
	 ==================> DF-MP2 Energies <==================== 
	-----------------------------------------------------------
	 Reference Energy          =    -679.8524600093866184 [Eh]
	 Singles Energy            =      -0.0000000000000000 [Eh]
	 Same-Spin Energy          =      -0.2863171853915660 [Eh]
	 Opposite-Spin Energy      =      -0.7793337615447086 [Eh]
	 Correlation Energy        =      -1.0656509469362745 [Eh]
	 Total Energy              =    -680.9181109563229484 [Eh]
	-----------------------------------------------------------
	 ================> DF-SCS-MP2 Energies <================== 
	-----------------------------------------------------------
	 SCS Same-Spin Scale       =       0.3333333333333333 [-]
	 SCS Opposite-Spin Scale   =       1.2000000000000000 [-]
	 SCS Same-Spin Energy      =      -0.0954390617971887 [Eh]
	 SCS Opposite-Spin Energy  =      -0.9352005138536502 [Eh]
	 SCS Correlation Energy    =      -1.0306395756508389 [Eh]
	 SCS Total Energy          =    -680.8830995850374848 [Eh]
	-----------------------------------------------------------


*** tstop() called on node37.bme.utexas.edu at Mon Sep 21 15:01:32 2020
Module time:
	user time   =       6.01 seconds =       0.10 minutes
	system time =       0.33 seconds =       0.01 minutes
	total time  =          1 seconds =       0.02 minutes
Total time:
	user time   =      19.69 seconds =       0.33 minutes
	system time =       1.12 seconds =       0.02 minutes
	total time  =          3 seconds =       0.05 minutes

    Psi4 stopped on: Monday, 21 September 2020 03:01PM
    Psi4 wall time for execution: 0:00:03.28

*** Psi4 exiting successfully. Buy a developer a beer!
