Generated by Psi4
        SP                        DF-MP2                      6-311G**
Number of atoms                            I               14
Charge                                     I                0
Multiplicity                               I                1
Number of electrons                        I               66
Number of alpha electrons                  I               33
Number of beta electrons                   I               33
Number of basis functions                  I              176
Number of independent functions            I              176
Atomic numbers                             I   N=          14
          15           8           8           8           8           6
           6           1           1           1           1           1
           1           1
Nuclear charges                            R   N=          14
  1.50000000e+01  8.00000000e+00  8.00000000e+00  8.00000000e+00  8.00000000e+00
  6.00000000e+00  6.00000000e+00  1.00000000e+00  1.00000000e+00  1.00000000e+00
  1.00000000e+00  1.00000000e+00  1.00000000e+00  1.00000000e+00
Current cartesian coordinates              R   N=          42
 -6.87019987e-02  8.85071766e-01  1.89737137e-01  1.93367378e+00 -9.51528099e-01
  1.49213256e+00 -1.80700405e+00 -9.55917168e-01 -1.48517440e+00  1.56675866e+00
  2.24979851e+00 -1.97339446e+00 -1.40774447e+00  2.56535258e+00  1.94373216e+00
  3.45808597e+00 -2.59342846e+00 -2.23054222e-02 -3.66442348e+00 -2.42798632e+00
 -1.80249596e-01  2.27208760e+00 -3.80605938e+00 -1.20571958e+00  4.54875383e+00
 -3.74378214e+00  1.29331437e+00  4.73119552e+00 -1.48864844e+00 -1.21641330e+00
 -5.03475743e+00 -1.19294326e+00  7.49567843e-01 -2.76864749e+00 -3.65411298e+00
  1.22896309e+00 -4.59674654e+00 -3.58484413e+00 -1.61026611e+00  8.82366103e-01
  3.91096202e+00 -2.29857039e+00
Integer atomic weights                     I   N=          14
          30          15          15          15          15          12
          12           1           1           1           1           1
           1           1
Real atomic weights                        R   N=          14
  3.09737620e+01  1.59949146e+01  1.59949146e+01  1.59949146e+01  1.59949146e+01
  1.20000000e+01  1.20000000e+01  1.00782503e+00  1.00782503e+00  1.00782503e+00
  1.00782503e+00  1.00782503e+00  1.00782503e+00  1.00782503e+00
Number of primitive shells                 I              167
Number of contracted shells                I               88
Pure/Cartesian d shells                    I                0
Pure/Cartesian f shells                    I                0
Highest angular momentum                   I                2
Largest degree of contraction              I                6
Shell types                                I   N=          88
           0           0           0           0           0           0
           1           1           1           1           1          -2
           0           0           1           0           1           0
           1          -2           0           0           1           0
           1           0           1          -2           0           0
           1           0           1           0           1          -2
           0           0           1           0           1           0
           1          -2           0           0           1           0
           1           0           1          -2           0           0
           1           0           1           0           1          -2
           0           0           0           1           0           0
           0           1           0           0           0           1
           0           0           0           1           0           0
           0           1           0           0           0           1
           0           0           0           1
Number of primitives per shell             I   N=          88
           6           3           1           1           1           1
           4           2           1           1           1           1
           6           3           3           1           1           1
           1           1           6           3           3           1
           1           1           1           1           6           3
           3           1           1           1           1           1
           6           3           3           1           1           1
           1           1           6           3           3           1
           1           1           1           1           6           3
           3           1           1           1           1           1
           3           1           1           1           3           1
           1           1           3           1           1           1
           3           1           1           1           3           1
           1           1           3           1           1           1
           3           1           1           1
Shell to atom map                          I   N=          88
           1           1           1           1           1           1
           1           1           1           1           1           1
           2           2           2           2           2           2
           2           2           3           3           3           3
           3           3           3           3           4           4
           4           4           4           4           4           4
           5           5           5           5           5           5
           5           5           6           6           6           6
           6           6           6           6           7           7
           7           7           7           7           7           7
           8           8           8           8           9           9
           9           9          10          10          10          10
          11          11          11          11          12          12
          12          12          13          13          13          13
          14          14          14          14
Primitive exponents                        R   N=         167
  7.74924000e+04  1.16058000e+04  2.64596000e+03  7.54976000e+02  2.48755000e+02
  9.11565000e+01  9.11565000e+01  3.62257000e+01  1.52113000e+01  4.79417000e+00
  1.80793000e+00  3.56816000e-01  1.14783000e-01  3.84843000e+02  9.05521000e+01
  2.91339000e+01  1.08862000e+01  4.35259000e+00  1.77706000e+00  6.97005000e-01
  2.53532000e-01  6.84930000e-02  5.50000000e-01  8.58850000e+03  1.29723000e+03
  2.99296000e+02  8.73771000e+01  2.56789000e+01  3.74004000e+00  4.21175000e+01
  9.62837000e+00  2.85332000e+00  4.21175000e+01  9.62837000e+00  2.85332000e+00
  9.05661000e-01  9.05661000e-01  2.55611000e-01  2.55611000e-01  1.29200000e+00
  8.58850000e+03  1.29723000e+03  2.99296000e+02  8.73771000e+01  2.56789000e+01
  3.74004000e+00  4.21175000e+01  9.62837000e+00  2.85332000e+00  4.21175000e+01
  9.62837000e+00  2.85332000e+00  9.05661000e-01  9.05661000e-01  2.55611000e-01
  2.55611000e-01  1.29200000e+00  8.58850000e+03  1.29723000e+03  2.99296000e+02
  8.73771000e+01  2.56789000e+01  3.74004000e+00  4.21175000e+01  9.62837000e+00
  2.85332000e+00  4.21175000e+01  9.62837000e+00  2.85332000e+00  9.05661000e-01
  9.05661000e-01  2.55611000e-01  2.55611000e-01  1.29200000e+00  8.58850000e+03
  1.29723000e+03  2.99296000e+02  8.73771000e+01  2.56789000e+01  3.74004000e+00
  4.21175000e+01  9.62837000e+00  2.85332000e+00  4.21175000e+01  9.62837000e+00
  2.85332000e+00  9.05661000e-01  9.05661000e-01  2.55611000e-01  2.55611000e-01
  1.29200000e+00  4.56324000e+03  6.82024000e+02  1.54973000e+02  4.44553000e+01
  1.30290000e+01  1.82773000e+00  2.09642000e+01  4.80331000e+00  1.45933000e+00
  2.09642000e+01  4.80331000e+00  1.45933000e+00  4.83456000e-01  4.83456000e-01
  1.45585000e-01  1.45585000e-01  6.26000000e-01  4.56324000e+03  6.82024000e+02
  1.54973000e+02  4.44553000e+01  1.30290000e+01  1.82773000e+00  2.09642000e+01
  4.80331000e+00  1.45933000e+00  2.09642000e+01  4.80331000e+00  1.45933000e+00
  4.83456000e-01  4.83456000e-01  1.45585000e-01  1.45585000e-01  6.26000000e-01
  3.38650000e+01  5.09479000e+00  1.15879000e+00  3.25840000e-01  1.02741000e-01
  7.50000000e-01  3.38650000e+01  5.09479000e+00  1.15879000e+00  3.25840000e-01
  1.02741000e-01  7.50000000e-01  3.38650000e+01  5.09479000e+00  1.15879000e+00
  3.25840000e-01  1.02741000e-01  7.50000000e-01  3.38650000e+01  5.09479000e+00
  1.15879000e+00  3.25840000e-01  1.02741000e-01  7.50000000e-01  3.38650000e+01
  5.09479000e+00  1.15879000e+00  3.25840000e-01  1.02741000e-01  7.50000000e-01
  3.38650000e+01  5.09479000e+00  1.15879000e+00  3.25840000e-01  1.02741000e-01
  7.50000000e-01  3.38650000e+01  5.09479000e+00  1.15879000e+00  3.25840000e-01
  1.02741000e-01  7.50000000e-01
Contraction coefficients                   R   N=         167
  7.81000147e-04  6.06800114e-03  3.11600059e-02  1.23431023e-01  3.78209071e-01
  5.63262106e-01  1.60255011e-01  6.27647045e-01  2.63849019e-01  1.00000000e+00
  1.00000000e+00  1.00000000e+00  1.00000000e+00  9.20599888e-03  6.98739915e-02
  2.92469964e-01  7.28102911e-01  6.28348873e-01  4.28043913e-01  1.00000000e+00
  1.00000000e+00  1.00000000e+00  1.00000000e+00  1.89515008e-03  1.43859006e-02
  7.07320031e-02  2.40001011e-01  5.94797026e-01  2.80802012e-01  1.13889012e-01
  9.20811101e-01 -3.27447036e-03  3.65113974e-02  2.37152983e-01  8.19701941e-01
  1.00000000e+00  1.00000000e+00  1.00000000e+00  1.00000000e+00  1.00000000e+00
  1.89515008e-03  1.43859006e-02  7.07320031e-02  2.40001011e-01  5.94797026e-01
  2.80802012e-01  1.13889012e-01  9.20811101e-01 -3.27447036e-03  3.65113974e-02
  2.37152983e-01  8.19701941e-01  1.00000000e+00  1.00000000e+00  1.00000000e+00
  1.00000000e+00  1.00000000e+00  1.89515008e-03  1.43859006e-02  7.07320031e-02
  2.40001011e-01  5.94797026e-01  2.80802012e-01  1.13889012e-01  9.20811101e-01
 -3.27447036e-03  3.65113974e-02  2.37152983e-01  8.19701941e-01  1.00000000e+00
  1.00000000e+00  1.00000000e+00  1.00000000e+00  1.00000000e+00  1.89515008e-03
  1.43859006e-02  7.07320031e-02  2.40001011e-01  5.94797026e-01  2.80802012e-01
  1.13889012e-01  9.20811101e-01 -3.27447036e-03  3.65113974e-02  2.37152983e-01
  8.19701941e-01  1.00000000e+00  1.00000000e+00  1.00000000e+00  1.00000000e+00
  1.00000000e+00  1.96665025e-03  1.52306019e-02  7.61269097e-02  2.60801033e-01
  6.16462078e-01  2.21006028e-01  1.14660081e-01  9.19999648e-01 -3.03068213e-03
  4.02486927e-02  2.37593957e-01  8.15853851e-01  1.00000000e+00  1.00000000e+00
  1.00000000e+00  1.00000000e+00  1.00000000e+00  1.96665025e-03  1.52306019e-02
  7.61269097e-02  2.60801033e-01  6.16462078e-01  2.21006028e-01  1.14660081e-01
  9.19999648e-01 -3.03068213e-03  4.02486927e-02  2.37593957e-01  8.15853851e-01
  1.00000000e+00  1.00000000e+00  1.00000000e+00  1.00000000e+00  1.00000000e+00
  2.54938145e-02  1.90373109e-01  8.52161486e-01  1.00000000e+00  1.00000000e+00
  1.00000000e+00  2.54938145e-02  1.90373109e-01  8.52161486e-01  1.00000000e+00
  1.00000000e+00  1.00000000e+00  2.54938145e-02  1.90373109e-01  8.52161486e-01
  1.00000000e+00  1.00000000e+00  1.00000000e+00  2.54938145e-02  1.90373109e-01
  8.52161486e-01  1.00000000e+00  1.00000000e+00  1.00000000e+00  2.54938145e-02
  1.90373109e-01  8.52161486e-01  1.00000000e+00  1.00000000e+00  1.00000000e+00
  2.54938145e-02  1.90373109e-01  8.52161486e-01  1.00000000e+00  1.00000000e+00
  1.00000000e+00  2.54938145e-02  1.90373109e-01  8.52161486e-01  1.00000000e+00
  1.00000000e+00  1.00000000e+00
Coordinates of each shell                  R   N=         264
 -6.87019987e-02  8.85071766e-01  1.89737137e-01 -6.87019987e-02  8.85071766e-01
  1.89737137e-01 -6.87019987e-02  8.85071766e-01  1.89737137e-01 -6.87019987e-02
  8.85071766e-01  1.89737137e-01 -6.87019987e-02  8.85071766e-01  1.89737137e-01
 -6.87019987e-02  8.85071766e-01  1.89737137e-01 -6.87019987e-02  8.85071766e-01
  1.89737137e-01 -6.87019987e-02  8.85071766e-01  1.89737137e-01 -6.87019987e-02
  8.85071766e-01  1.89737137e-01 -6.87019987e-02  8.85071766e-01  1.89737137e-01
 -6.87019987e-02  8.85071766e-01  1.89737137e-01 -6.87019987e-02  8.85071766e-01
  1.89737137e-01  1.93367378e+00 -9.51528099e-01  1.49213256e+00  1.93367378e+00
 -9.51528099e-01  1.49213256e+00  1.93367378e+00 -9.51528099e-01  1.49213256e+00
  1.93367378e+00 -9.51528099e-01  1.49213256e+00  1.93367378e+00 -9.51528099e-01
  1.49213256e+00  1.93367378e+00 -9.51528099e-01  1.49213256e+00  1.93367378e+00
 -9.51528099e-01  1.49213256e+00  1.93367378e+00 -9.51528099e-01  1.49213256e+00
 -1.80700405e+00 -9.55917168e-01 -1.48517440e+00 -1.80700405e+00 -9.55917168e-01
 -1.48517440e+00 -1.80700405e+00 -9.55917168e-01 -1.48517440e+00 -1.80700405e+00
 -9.55917168e-01 -1.48517440e+00 -1.80700405e+00 -9.55917168e-01 -1.48517440e+00
 -1.80700405e+00 -9.55917168e-01 -1.48517440e+00 -1.80700405e+00 -9.55917168e-01
 -1.48517440e+00 -1.80700405e+00 -9.55917168e-01 -1.48517440e+00  1.56675866e+00
  2.24979851e+00 -1.97339446e+00  1.56675866e+00  2.24979851e+00 -1.97339446e+00
  1.56675866e+00  2.24979851e+00 -1.97339446e+00  1.56675866e+00  2.24979851e+00
 -1.97339446e+00  1.56675866e+00  2.24979851e+00 -1.97339446e+00  1.56675866e+00
  2.24979851e+00 -1.97339446e+00  1.56675866e+00  2.24979851e+00 -1.97339446e+00
  1.56675866e+00  2.24979851e+00 -1.97339446e+00 -1.40774447e+00  2.56535258e+00
  1.94373216e+00 -1.40774447e+00  2.56535258e+00  1.94373216e+00 -1.40774447e+00
  2.56535258e+00  1.94373216e+00 -1.40774447e+00  2.56535258e+00  1.94373216e+00
 -1.40774447e+00  2.56535258e+00  1.94373216e+00 -1.40774447e+00  2.56535258e+00
  1.94373216e+00 -1.40774447e+00  2.56535258e+00  1.94373216e+00 -1.40774447e+00
  2.56535258e+00  1.94373216e+00  3.45808597e+00 -2.59342846e+00 -2.23054222e-02
  3.45808597e+00 -2.59342846e+00 -2.23054222e-02  3.45808597e+00 -2.59342846e+00
 -2.23054222e-02  3.45808597e+00 -2.59342846e+00 -2.23054222e-02  3.45808597e+00
 -2.59342846e+00 -2.23054222e-02  3.45808597e+00 -2.59342846e+00 -2.23054222e-02
  3.45808597e+00 -2.59342846e+00 -2.23054222e-02  3.45808597e+00 -2.59342846e+00
 -2.23054222e-02 -3.66442348e+00 -2.42798632e+00 -1.80249596e-01 -3.66442348e+00
 -2.42798632e+00 -1.80249596e-01 -3.66442348e+00 -2.42798632e+00 -1.80249596e-01
 -3.66442348e+00 -2.42798632e+00 -1.80249596e-01 -3.66442348e+00 -2.42798632e+00
 -1.80249596e-01 -3.66442348e+00 -2.42798632e+00 -1.80249596e-01 -3.66442348e+00
 -2.42798632e+00 -1.80249596e-01 -3.66442348e+00 -2.42798632e+00 -1.80249596e-01
  2.27208760e+00 -3.80605938e+00 -1.20571958e+00  2.27208760e+00 -3.80605938e+00
 -1.20571958e+00  2.27208760e+00 -3.80605938e+00 -1.20571958e+00  2.27208760e+00
 -3.80605938e+00 -1.20571958e+00  4.54875383e+00 -3.74378214e+00  1.29331437e+00
  4.54875383e+00 -3.74378214e+00  1.29331437e+00  4.54875383e+00 -3.74378214e+00
  1.29331437e+00  4.54875383e+00 -3.74378214e+00  1.29331437e+00  4.73119552e+00
 -1.48864844e+00 -1.21641330e+00  4.73119552e+00 -1.48864844e+00 -1.21641330e+00
  4.73119552e+00 -1.48864844e+00 -1.21641330e+00  4.73119552e+00 -1.48864844e+00
 -1.21641330e+00 -5.03475743e+00 -1.19294326e+00  7.49567843e-01 -5.03475743e+00
 -1.19294326e+00  7.49567843e-01 -5.03475743e+00 -1.19294326e+00  7.49567843e-01
 -5.03475743e+00 -1.19294326e+00  7.49567843e-01 -2.76864749e+00 -3.65411298e+00
  1.22896309e+00 -2.76864749e+00 -3.65411298e+00  1.22896309e+00 -2.76864749e+00
 -3.65411298e+00  1.22896309e+00 -2.76864749e+00 -3.65411298e+00  1.22896309e+00
 -4.59674654e+00 -3.58484413e+00 -1.61026611e+00 -4.59674654e+00 -3.58484413e+00
 -1.61026611e+00 -4.59674654e+00 -3.58484413e+00 -1.61026611e+00 -4.59674654e+00
 -3.58484413e+00 -1.61026611e+00  8.82366103e-01  3.91096202e+00 -2.29857039e+00
  8.82366103e-01  3.91096202e+00 -2.29857039e+00  8.82366103e-01  3.91096202e+00
 -2.29857039e+00  8.82366103e-01  3.91096202e+00 -2.29857039e+00
Total Energy                               R     -7.214011578185571e+02
Alpha Orbital Energies                     R   N=         176
 -8.01117666e+01 -2.06056499e+01 -2.05955780e+01 -2.05951333e+01 -2.05120204e+01
 -1.13007668e+01 -1.13005926e+01 -7.63506081e+00 -5.53341551e+00 -5.53293724e+00
 -5.53282784e+00 -1.46425340e+00 -1.39212212e+00 -1.39096693e+00 -1.30527549e+00
 -9.78764124e-01 -9.60654543e-01 -8.25578333e-01 -7.41007457e-01 -7.16986892e-01
 -6.84586403e-01 -6.60415650e-01 -6.46889335e-01 -6.36579929e-01 -6.33226115e-01
 -5.74488538e-01 -5.63143647e-01 -5.42862901e-01 -5.18309193e-01 -4.99844201e-01
 -4.89020983e-01 -4.71118562e-01 -4.63768755e-01  1.41126242e-01  1.57095675e-01
  1.72594311e-01  2.04625631e-01  2.18308783e-01  2.23315806e-01  2.26754643e-01
  2.45319986e-01  2.66480973e-01  2.87817770e-01  3.04315920e-01  3.23468595e-01
  3.82058395e-01  3.94746540e-01  4.04016821e-01  4.26065540e-01  4.56263346e-01
  4.65910916e-01  4.83031088e-01  5.13151225e-01  5.87724369e-01  6.10932598e-01
  6.44885958e-01  6.79827943e-01  7.41154244e-01  7.60738527e-01  7.63401075e-01
  7.71449271e-01  7.81230578e-01  7.90296900e-01  8.62809400e-01  8.74350328e-01
  8.87797061e-01  9.48155751e-01  9.65334728e-01  1.00851103e+00  1.01590437e+00
  1.02211565e+00  1.06688795e+00  1.11186923e+00  1.17878729e+00  1.18446717e+00
  1.19337423e+00  1.22388953e+00  1.26988510e+00  1.29609922e+00  1.31368614e+00
  1.33485806e+00  1.39387012e+00  1.42623844e+00  1.45917954e+00  1.49975735e+00
  1.50569145e+00  1.53276437e+00  1.60416153e+00  1.64738904e+00  1.68461351e+00
  1.68853835e+00  1.71261390e+00  1.71414710e+00  1.73564683e+00  1.73834348e+00
  1.74676898e+00  1.77917083e+00  1.82395006e+00  1.84392357e+00  1.87684237e+00
  1.90863864e+00  1.92572933e+00  1.92981224e+00  1.95269628e+00  1.98088667e+00
  2.06824726e+00  2.15726903e+00  2.24959738e+00  2.25283142e+00  2.26306865e+00
  2.36635252e+00  2.37466179e+00  2.38944539e+00  2.40223608e+00  2.62650665e+00
  2.64789329e+00  2.69084677e+00  2.71460253e+00  2.73630080e+00  2.78682737e+00
  2.79833761e+00  2.80447279e+00  2.81478892e+00  2.81994384e+00  2.84833697e+00
  3.06184015e+00  3.12167123e+00  3.16375305e+00  3.18962136e+00  3.22780647e+00
  3.23306222e+00  3.24334520e+00  3.27867469e+00  3.29493704e+00  3.33656784e+00
  3.39839011e+00  3.42718950e+00  3.44971146e+00  3.48564964e+00  3.49651367e+00
  3.51515558e+00  3.52965436e+00  3.61427099e+00  3.77055826e+00  3.80434615e+00
  3.95084219e+00  4.12670292e+00  4.15415584e+00  4.17148079e+00  4.18336838e+00
  4.20349727e+00  4.36581759e+00  4.41642564e+00  5.33817256e+00  5.36547244e+00
  5.40126665e+00  5.42562154e+00  5.44867953e+00  5.45807921e+00  5.56077674e+00
  5.59292419e+00  5.76625626e+00  5.96547392e+00  6.00375989e+00  6.02230634e+00
  7.65117249e+00  1.48055064e+01  1.48594070e+01  1.50691422e+01  2.49847536e+01
  2.49895700e+01  5.14782143e+01  5.15109189e+01  5.15247752e+01  5.16088386e+01
  1.66173748e+02
Alpha MO coefficients                      R   N=       30976
  4.19271791e-01  6.46641988e-01  1.07541183e-02 -1.06691137e-03  4.56488898e-04
 -1.29748201e-04  3.70338760e-05 -4.07365816e-05 -4.73315795e-05 -1.22383570e-05
  1.45884307e-05  1.59518274e-05  7.63919131e-06 -1.32241469e-05 -1.15317330e-05
 -6.35352914e-06  1.62836215e-05  1.31042353e-05  2.94721933e-06  4.83836039e-05
  4.52362634e-06 -1.54304816e-06 -5.80491658e-06  6.71382862e-06 -1.64992547e-06
 -6.59298689e-06  4.62670838e-07  8.78047967e-08 -3.69130399e-06  2.90068848e-06
 -1.05224136e-06  1.52223610e-05  1.20606719e-05 -9.25655880e-06  2.48265169e-06
 -6.15238764e-05  8.64807403e-06 -1.34216593e-05  4.15867859e-05  1.80922260e-06
 -8.33205117e-06  7.39093619e-06 -8.09416003e-07  1.45533785e-05  5.17962548e-07
 -2.89461480e-07  3.18704563e-06  3.38611161e-06  8.97374776e-07  1.70846313e-05
 -1.04542622e-05 -1.08406245e-05 -1.66786422e-06 -6.22980327e-05  4.21086156e-06
 -4.85144092e-06 -4.88092192e-05 -6.89511015e-07 -7.42211354e-06 -9.36084960e-06
 -2.68509183e-08 -1.29050875e-05  3.73257507e-07  3.01935518e-07 -3.23348861e-06
 -1.71768594e-06  3.04931415e-06  1.22774703e-05  1.03704369e-05  4.23203582e-06
 -8.82467841e-06 -4.83555359e-05  2.42017590e-05  2.36099703e-06 -3.04498165e-05
 -3.10872971e-06  1.38618544e-05  1.01989423e-05 -4.70066702e-07 -4.33247027e-06
  6.23012139e-08  1.82592368e-06  2.45109714e-06 -3.48770281e-06 -2.95467324e-06
  8.32326692e-06 -1.32905237e-05  1.82395944e-05  1.65080159e-05 -6.47691136e-05
 -2.30930391e-05  2.17604599e-05  3.18156124e-05 -2.30780376e-06  1.16887734e-05
 -1.44766009e-05  2.21654505e-06  1.05219474e-05 -1.95141020e-07  4.73253351e-07
  1.41602138e-06 -1.80404022e-06  4.43775203e-07 -1.03231321e-05 -3.84236242e-06
  6.15577921e-06 -1.51419458e-06  6.95773534e-05 -3.61947927e-05  3.60269715e-05
 -2.12390420e-05 -6.40335808e-06 -1.81409846e-06  1.26409705e-06 -1.65497431e-07
 -3.09137045e-06 -4.13648726e-08 -1.29128783e-08 -2.19629008e-06 -1.86733773e-06
 -2.77124970e-07 -6.98753548e-06  8.68607538e-06  7.64516716e-06  3.19593174e-07
  6.62517139e-05  3.52308707e-05  3.38414799e-05  1.83834608e-05 -6.54069154e-06
 -1.03973461e-06 -2.54871412e-06  1.01506757e-06  4.12671922e-06  1.42205989e-06
 -1.94998683e-05  3.75840602e-06 -4.26176755e-07 -3.23906812e-06  1.33222471e-06
  2.86951291e-07  7.92384705e-06  1.01796267e-05  4.59436863e-07 -1.34488354e-07
 -1.86490537e-06  1.85450420e-06 -2.15004410e-05 -1.99752943e-06  5.07234624e-06
 -4.04784576e-07  7.82742092e-07  1.64826038e-06 -1.73776521e-05  1.80117603e-06
 -3.05853869e-06 -8.49222865e-07 -1.97248891e-06  1.52411657e-06 -1.90209659e-05
  1.03356474e-05  2.17995598e-07 -2.35530992e-06 -1.13101121e-06  1.30595665e-07
  9.29491556e-06  6.33138626e-06 -5.66625081e-07  5.59192751e-07  2.52191675e-06
 -8.24332882e-07  2.26221158e-05 -8.98306626e-06 -4.17234765e-06 -7.79278220e-06
  7.95668656e-06  3.02136545e-06  6.56031022e-06 -1.37447017e-06 -7.76607141e-05
  7.69907337e-05  5.04390143e-04 -5.16738619e-06 -4.43377386e-06  7.36850908e-06
 -2.26492678e-05 -2.18997282e-05  3.13287179e-05  3.14353952e-05  3.51861227e-05
 -3.80640737e-05  1.18067284e-04  9.33206734e-05 -1.78054278e-04  2.11937019e-04
 -6.65371485e-05 -1.54425538e-04  3.67948272e-05 -6.17778477e-05 -7.20395578e-05
  2.44787433e-06  6.01329331e-05 -3.97262799e-04 -3.42032383e-04  2.08824788e-06
 -5.35879959e-06  1.69693342e-06  2.08618807e-05 -6.23753917e-06  4.98840100e-06
  9.13006204e-06 -1.19048451e-04  1.70517416e-05 -5.42301072e-05  2.60619355e-05
 -1.27098702e-06  3.31651585e-07  8.62354035e-07  3.81969860e-06 -2.89119214e-06
 -3.62747205e-04 -3.12719227e-04 -3.27820281e-06 -8.96960011e-07 -1.07185732e-06
  2.54484840e-05  3.14228373e-06 -1.00744118e-05  7.04098809e-07 -1.57818372e-04
 -6.59765657e-05 -2.40796689e-05 -3.81747520e-06  4.64923591e-06  1.46249656e-06
  3.57562943e-06 -3.47708566e-07 -3.16957786e-06  5.51445632e-01  4.71654360e-01
 -1.24745889e-03  6.47636090e-04  6.92894009e-04  5.65650972e-03  4.13060221e-04
 -2.84156425e-04 -1.88350082e-04 -7.08072146e-04 -4.04798966e-05  1.73055791e-04
 -6.26556022e-05  2.53541403e-05  3.63849237e-05  6.86606660e-05  4.71818020e-05
  2.19165946e-05 -5.20873959e-05 -4.54506906e-05 -9.69815159e-06  1.82891906e-06
  1.16338817e-05  8.44184343e-06  2.34129949e-05 -1.22458027e-05 -2.50712811e-05
 -1.25830855e-05 -7.68855762e-05  2.77901835e-06  7.84446938e-05 -2.15174966e-06
  4.65679801e-06  3.64447035e-06 -4.24652619e-06 -2.07435447e-06  1.55403956e-07
  1.37433388e-07  6.37697361e-07  1.32559547e-06 -3.91357195e-06  1.17568256e-05
 -1.64929356e-05 -9.07995739e-06  1.27764727e-05 -9.82930698e-05  1.84504816e-05
 -3.44758314e-05 -2.21742210e-05 -2.79271963e-07  2.61860813e-07  1.52672652e-05
 -2.05973180e-06  2.36631511e-06 -7.27628547e-08 -8.34799770e-07 -1.55463231e-06
 -1.61894264e-07 -6.48383748e-07  1.40952717e-06  9.00093395e-06  2.42707176e-06
  7.37900775e-06 -3.21591304e-05  2.09625922e-05  1.86370286e-05  2.00741582e-05
 -2.96157549e-06 -5.18717845e-06 -5.85988611e-06  2.59168114e-06 -1.06572626e-06
  4.07686576e-06 -1.18656499e-05 -5.06259979e-05 -9.76045677e-08 -1.34228057e-05
 -1.78107850e-06 -2.01415989e-06  2.42923549e-05 -2.27107208e-06 -4.33198070e-06
  3.98601359e-06 -3.67201271e-06 -2.56761402e-06  1.52236316e-05  6.65617414e-06
 -1.14373054e-05 -6.80445408e-06  9.77846212e-06  3.11257482e-06 -1.66503173e-05
  6.66268311e-05  7.70700112e-07  1.50388079e-06 -1.55848235e-06  3.99537506e-06
 -2.06570589e-05  1.72666660e-05 -2.82315787e-06 -6.13470805e-06  1.14456563e-06
 -3.47609114e-06  3.53055576e-05 -7.40247766e-06  3.20508851e-06  3.53072311e-06
  6.18054055e-06  1.84340646e-04  7.57394236e-05  3.59438775e-05 -3.28943268e-07
 -7.03892719e-05  3.89073158e-05  3.02904780e-06  7.34566826e-06 -6.79240370e-06
 -6.60632687e-05  3.09011073e-05  5.63275559e-04 -7.43374913e-06  7.10829575e-06
 -3.44766749e-06 -2.95117870e-05  2.40454936e-05 -1.97149698e-05  3.81244330e-05
 -2.44615072e-05  4.83741922e-05  1.54053393e-04 -1.52162813e-04  9.05637084e-06
  4.39093908e-05 -1.99576428e-04  1.10111807e-04 -3.98327682e-05  3.52758582e-05
 -3.73240462e-05  7.92647932e-06 -7.30664613e-05  5.51347096e-01  4.71561958e-01
 -1.70771004e-04 -1.96889330e-05 -1.51308368e-03  5.71257212e-03  6.58884822e-06
  5.21760940e-05  5.30830045e-04 -8.71551496e-04  1.84481271e-05 -3.12874168e-06
 -5.28440299e-05  6.12067086e-06  3.87474701e-05 -4.52007789e-05  1.25293087e-06
  1.11286213e-04 -1.04666784e-02 -8.95364534e-03 -5.08273328e-06 -1.16862402e-06
 -3.03586072e-05 -8.85994747e-05  1.26766284e-05  9.87705518e-08  1.51235619e-06
 -7.62391699e-05 -1.27441067e-04 -1.76196417e-05 -2.01454878e-05 -5.56684785e-07
 -9.48965361e-06  8.58306035e-07 -6.13713385e-06  3.45290939e-06  3.92166232e-04
  3.32813764e-04 -2.05973893e-06  3.55422314e-06 -2.35490851e-06  3.21056290e-05
  4.22506774e-06 -3.08164069e-06 -4.32049623e-06 -1.30677297e-04 -8.57328881e-06
  7.88271720e-05 -5.92391425e-05 -3.31112802e-06 -2.10664915e-06  5.04039053e-06
  4.91756853e-06 -5.00122251e-07 -4.41960893e-05 -4.17185541e-05 -5.55436548e-06
  7.69138999e-06 -2.77681258e-06  3.53552424e-05  9.50371194e-06 -1.82813085e-05
  5.27920213e-06 -1.04366729e-04 -4.22274175e-05  6.86515540e-05 -2.13568137e-05
  8.76727312e-07 -9.48554116e-07  1.24793510e-06  5.51776026e-07  1.32842742e-06
 -2.47004611e-06 -2.52816505e-05 -1.20682132e-05  1.64486252e-05  3.16096115e-05
  8.26659632e-05 -1.32858076e-04  1.26495327e-04  5.28579783e-05  2.61938863e-04
 -2.11410010e-05  3.44750394e-05  1.48914375e-04 -3.74070442e-05 -5.38985894e-05
  5.59270963e-05 -1.46152301e-06 -5.86563353e-05  3.46197204e-07 -6.64629863e-07
 -2.00554928e-06  5.07721779e-07 -7.41529174e-07  2.00186436e-05  7.58774556e-06
 -4.24771568e-06  2.69925855e-06 -1.53103086e-04 -6.07289293e-05 -9.20685352e-05
 -3.66914023e-05 -4.01687051e-07  1.94085625e-06  4.21296788e-06  3.39246637e-06
  1.00184635e-06  8.85277316e-06 -5.99114641e-05  1.05623960e-06  1.78689273e-05
 -1.02969851e-05 -2.10333775e-05  1.95401644e-05 -6.37778676e-05 -4.89645401e-05
 -9.86387137e-06  1.02344914e-05 -1.23079058e-05  5.32851830e-06 -4.58722127e-05
  9.88888671e-06  1.35126258e-06 -1.58283372e-05 -1.67998207e-05 -6.01232020e-06
  5.71315881e-05  1.00496911e-05  1.05926311e-05 -1.91964314e-06 -2.64098068e-06
 -1.98691108e-06  3.31047954e-05 -4.97065758e-05 -7.70616574e-06  3.74550967e-06
  6.35105122e-07  3.58841388e-06 -1.61145102e-05 -1.93926861e-05 -1.28312442e-06
  9.76990982e-07 -1.79654988e-06  6.72316500e-06 -4.00939505e-05  7.43564813e-05
 -5.30674320e-06  4.57454425e-08  6.29935972e-06  3.03759086e-06  7.32434783e-06
 -6.37533201e-06 -6.78578676e-05  4.88969702e-05  5.19280679e-04  5.30688530e-06
  6.71939854e-06  5.65438423e-06  2.64972470e-05  2.62233049e-05  2.02078901e-05
 -4.33054478e-05 -2.97589889e-05 -2.84756895e-05 -1.01533735e-04 -1.47381710e-04
 -9.62446276e-05  6.15439445e-06 -9.56165731e-05 -1.50520749e-04 -2.91434713e-05
  5.73596922e-05  5.27731390e-05  9.37810224e-08  6.32605004e-05  1.04682629e-02
  8.95158329e-03  2.32660544e-06 -1.06079144e-06 -2.70845310e-05  1.32980363e-04
 -1.88187314e-06  3.08723215e-06  1.55571132e-05 -1.41585088e-04  6.16361535e-05
 -3.34270940e-06  4.50207234e-05 -1.14990515e-06 -3.88582906e-06 -1.93508827e-06
 -4.99212539e-06  1.50309750e-06  5.51350103e-01  4.71565516e-01 -1.61400795e-04
  5.57407838e-05  1.51502675e-03  5.68954215e-03  1.10004717e-04  2.70329290e-05
 -5.22284767e-04 -8.32546232e-04 -2.71545978e-05 -1.25895621e-05  4.34365667e-05
  1.20776255e-05  4.01570646e-05  2.05986480e-05 -1.64642367e-05 -1.19954999e-04
  3.72241870e-04  3.15065330e-04  2.02173699e-06  5.68691365e-06 -6.86833636e-07
  3.49998792e-05  3.87272360e-06 -7.58967941e-06  2.01614315e-06 -1.32144415e-04
  2.05936035e-05  6.99672915e-05 -1.06846387e-05  3.05906606e-06 -2.51268391e-06
 -9.57263987e-07  4.13126169e-07 -2.68400101e-06 -5.70302563e-05 -5.12290346e-05
  1.07727339e-06  8.46716448e-06  8.40653190e-06  2.31387135e-05  3.06652572e-06
 -1.59813371e-05 -1.82819857e-05 -7.08770364e-05  1.33520081e-05  6.66638821e-05
  7.34285423e-05 -2.47554327e-06 -2.88461609e-06 -4.78148082e-06  3.34661366e-06
 -4.29260542e-06  2.27836339e-07 -5.65390707e-07 -1.15564619e-06  1.29680195e-07
 -2.57558199e-06  1.10925165e-05  6.91684463e-07  1.25171631e-05  1.49893765e-05
 -4.24525963e-05  1.08626892e-05 -2.05683463e-05  8.09776369e-06 -2.59548300e-06
 -1.20927430e-05  2.57654201e-06  1.05848271e-06 -3.69688917e-06 -2.42579794e-06
 -2.58405572e-05  1.74200075e-05  1.16679415e-05 -2.97322320e-05  8.22127084e-05
  1.49699651e-04  1.25014487e-04 -3.61791964e-05  2.64199143e-04  5.45961866e-05
  2.48618988e-05 -1.39030386e-04 -4.82751611e-05 -4.77254777e-05 -4.75502813e-05
  1.55461689e-05  6.61050317e-05 -6.49985042e-08  6.57681394e-06 -7.36886913e-06
  8.22904234e-06  6.13943086e-06  3.88983878e-06  2.07295783e-06 -1.79126615e-06