Generated by Psi4
        SP                        DF-MP2                      6-311G**
Number of atoms                            I               15
Charge                                     I                0
Multiplicity                               I                1
Number of electrons                        I               64
Number of alpha electrons                  I               32
Number of beta electrons                   I               32
Number of basis functions                  I              198
Number of independent functions            I              198
Atomic numbers                             I   N=          15
           6           6           6           8           6           8
           6           6           1           6           1           1
           1           1           1
Nuclear charges                            R   N=          15
  6.00000000e+00  6.00000000e+00  6.00000000e+00  8.00000000e+00  6.00000000e+00
  8.00000000e+00  6.00000000e+00  6.00000000e+00  1.00000000e+00  6.00000000e+00
  1.00000000e+00  1.00000000e+00  1.00000000e+00  1.00000000e+00  1.00000000e+00
Current cartesian coordinates              R   N=          45
  1.72890582e+00 -1.48473872e+00 -1.06968245e+00 -2.81818634e-01 -1.79052023e-01
  4.17637127e-02 -2.67589132e+00 -1.58057750e+00  4.37829839e-01 -4.52060757e+00
 -1.21330644e-01  1.47547434e+00 -8.30230554e-03  2.35445138e+00  7.46178300e-01
 -3.01536827e+00 -3.80027779e+00 -9.02770222e-02  4.01485659e+00 -2.50678373e-01
 -1.47770461e+00  4.29998220e+00  2.27733368e+00 -7.79209014e-01  1.46534103e+00
 -3.45091084e+00 -1.59562667e+00  2.28835296e+00  3.57196850e+00  3.30836351e-01
 -1.57932788e+00  3.35144437e+00  1.60751924e+00  2.51009754e+00  5.53966452e+00
  8.75766856e-01 -5.98267799e+00 -1.24370494e+00  1.64489867e+00  5.57989785e+00
 -1.26080548e+00 -2.34244853e+00  6.08770152e+00  3.23731730e+00 -1.09925380e+00
Integer atomic weights                     I   N=          15
          12          12          12          16          12          16
          12          12           1          12           1           1
           1           1           1
Real atomic weights                        R   N=          15
  1.20000000e+01  1.20000000e+01  1.20000000e+01  1.59949146e+01  1.20000000e+01
  1.59949146e+01  1.20000000e+01  1.20000000e+01  1.00782503e+00  1.20000000e+01
  1.00782503e+00  1.00782503e+00  1.00782503e+00  1.00782503e+00  1.00782503e+00
Number of primitive shells                 I              189
Number of contracted shells                I               96
Pure/Cartesian d shells                    I                0
Pure/Cartesian f shells                    I                0
Highest angular momentum                   I                2
Largest degree of contraction              I                6
Shell types                                I   N=          96
           0           0           1           0           1           0
           1          -2           0           0           1           0
           1           0           1          -2           0           0
           1           0           1           0           1          -2
           0           0           1           0           1           0
           1          -2           0           0           1           0
           1           0           1          -2           0           0
           1           0           1           0           1          -2
           0           0           1           0           1           0
           1          -2           0           0           1           0
           1           0           1          -2           0           0
           0           1           0           0           1           0
           1           0           1          -2           0           0
           0           1           0           0           0           1
           0           0           0           1           0           0
           0           1           0           0           0           1
Number of primitives per shell             I   N=          96
           6           3           3           1           1           1
           1           1           6           3           3           1
           1           1           1           1           6           3
           3           1           1           1           1           1
           6           3           3           1           1           1
           1           1           6           3           3           1
           1           1           1           1           6           3
           3           1           1           1           1           1
           6           3           3           1           1           1
           1           1           6           3           3           1
           1           1           1           1           3           1
           1           1           6           3           3           1
           1           1           1           1           3           1
           1           1           3           1           1           1
           3           1           1           1           3           1
           1           1           3           1           1           1
Shell to atom map                          I   N=          96
           1           1           1           1           1           1
           1           1           2           2           2           2
           2           2           2           2           3           3
           3           3           3           3           3           3
           4           4           4           4           4           4
           4           4           5           5           5           5
           5           5           5           5           6           6
           6           6           6           6           6           6
           7           7           7           7           7           7
           7           7           8           8           8           8
           8           8           8           8           9           9
           9           9          10          10          10          10
          10          10          10          10          11          11
          11          11          12          12          12          12
          13          13          13          13          14          14
          14          14          15          15          15          15
Primitive exponents                        R   N=         189
  4.56324000e+03  6.82024000e+02  1.54973000e+02  4.44553000e+01  1.30290000e+01
  1.82773000e+00  2.09642000e+01  4.80331000e+00  1.45933000e+00  2.09642000e+01
  4.80331000e+00  1.45933000e+00  4.83456000e-01  4.83456000e-01  1.45585000e-01
  1.45585000e-01  6.26000000e-01  4.56324000e+03  6.82024000e+02  1.54973000e+02
  4.44553000e+01  1.30290000e+01  1.82773000e+00  2.09642000e+01  4.80331000e+00
  1.45933000e+00  2.09642000e+01  4.80331000e+00  1.45933000e+00  4.83456000e-01
  4.83456000e-01  1.45585000e-01  1.45585000e-01  6.26000000e-01  4.56324000e+03
  6.82024000e+02  1.54973000e+02  4.44553000e+01  1.30290000e+01  1.82773000e+00
  2.09642000e+01  4.80331000e+00  1.45933000e+00  2.09642000e+01  4.80331000e+00
  1.45933000e+00  4.83456000e-01  4.83456000e-01  1.45585000e-01  1.45585000e-01
  6.26000000e-01  8.58850000e+03  1.29723000e+03  2.99296000e+02  8.73771000e+01
  2.56789000e+01  3.74004000e+00  4.21175000e+01  9.62837000e+00  2.85332000e+00
  4.21175000e+01  9.62837000e+00  2.85332000e+00  9.05661000e-01  9.05661000e-01
  2.55611000e-01  2.55611000e-01  1.29200000e+00  4.56324000e+03  6.82024000e+02
  1.54973000e+02  4.44553000e+01  1.30290000e+01  1.82773000e+00  2.09642000e+01
  4.80331000e+00  1.45933000e+00  2.09642000e+01  4.80331000e+00  1.45933000e+00
  4.83456000e-01  4.83456000e-01  1.45585000e-01  1.45585000e-01  6.26000000e-01
  8.58850000e+03  1.29723000e+03  2.99296000e+02  8.73771000e+01  2.56789000e+01
  3.74004000e+00  4.21175000e+01  9.62837000e+00  2.85332000e+00  4.21175000e+01
  9.62837000e+00  2.85332000e+00  9.05661000e-01  9.05661000e-01  2.55611000e-01
  2.55611000e-01  1.29200000e+00  4.56324000e+03  6.82024000e+02  1.54973000e+02
  4.44553000e+01  1.30290000e+01  1.82773000e+00  2.09642000e+01  4.80331000e+00
  1.45933000e+00  2.09642000e+01  4.80331000e+00  1.45933000e+00  4.83456000e-01
  4.83456000e-01  1.45585000e-01  1.45585000e-01  6.26000000e-01  4.56324000e+03
  6.82024000e+02  1.54973000e+02  4.44553000e+01  1.30290000e+01  1.82773000e+00
  2.09642000e+01  4.80331000e+00  1.45933000e+00  2.09642000e+01  4.80331000e+00
  1.45933000e+00  4.83456000e-01  4.83456000e-01  1.45585000e-01  1.45585000e-01
  6.26000000e-01  3.38650000e+01  5.09479000e+00  1.15879000e+00  3.25840000e-01
  1.02741000e-01  7.50000000e-01  4.56324000e+03  6.82024000e+02  1.54973000e+02
  4.44553000e+01  1.30290000e+01  1.82773000e+00  2.09642000e+01  4.80331000e+00
  1.45933000e+00  2.09642000e+01  4.80331000e+00  1.45933000e+00  4.83456000e-01
  4.83456000e-01  1.45585000e-01  1.45585000e-01  6.26000000e-01  3.38650000e+01
  5.09479000e+00  1.15879000e+00  3.25840000e-01  1.02741000e-01  7.50000000e-01
  3.38650000e+01  5.09479000e+00  1.15879000e+00  3.25840000e-01  1.02741000e-01
  7.50000000e-01  3.38650000e+01  5.09479000e+00  1.15879000e+00  3.25840000e-01
  1.02741000e-01  7.50000000e-01  3.38650000e+01  5.09479000e+00  1.15879000e+00
  3.25840000e-01  1.02741000e-01  7.50000000e-01  3.38650000e+01  5.09479000e+00
  1.15879000e+00  3.25840000e-01  1.02741000e-01  7.50000000e-01
Contraction coefficients                   R   N=         189
  1.96665025e-03  1.52306019e-02  7.61269097e-02  2.60801033e-01  6.16462078e-01
  2.21006028e-01  1.14660081e-01  9.19999648e-01 -3.03068213e-03  4.02486927e-02
  2.37593957e-01  8.15853851e-01  1.00000000e+00  1.00000000e+00  1.00000000e+00
  1.00000000e+00  1.00000000e+00  1.96665025e-03  1.52306019e-02  7.61269097e-02
  2.60801033e-01  6.16462078e-01  2.21006028e-01  1.14660081e-01  9.19999648e-01
 -3.03068213e-03  4.02486927e-02  2.37593957e-01  8.15853851e-01  1.00000000e+00
  1.00000000e+00  1.00000000e+00  1.00000000e+00  1.00000000e+00  1.96665025e-03
  1.52306019e-02  7.61269097e-02  2.60801033e-01  6.16462078e-01  2.21006028e-01
  1.14660081e-01  9.19999648e-01 -3.03068213e-03  4.02486927e-02  2.37593957e-01
  8.15853851e-01  1.00000000e+00  1.00000000e+00  1.00000000e+00  1.00000000e+00
  1.00000000e+00  1.89515008e-03  1.43859006e-02  7.07320031e-02  2.40001011e-01
  5.94797026e-01  2.80802012e-01  1.13889012e-01  9.20811101e-01 -3.27447036e-03
  3.65113974e-02  2.37152983e-01  8.19701941e-01  1.00000000e+00  1.00000000e+00
  1.00000000e+00  1.00000000e+00  1.00000000e+00  1.96665025e-03  1.52306019e-02
  7.61269097e-02  2.60801033e-01  6.16462078e-01  2.21006028e-01  1.14660081e-01
  9.19999648e-01 -3.03068213e-03  4.02486927e-02  2.37593957e-01  8.15853851e-01
  1.00000000e+00  1.00000000e+00  1.00000000e+00  1.00000000e+00  1.00000000e+00
  1.89515008e-03  1.43859006e-02  7.07320031e-02  2.40001011e-01  5.94797026e-01
  2.80802012e-01  1.13889012e-01  9.20811101e-01 -3.27447036e-03  3.65113974e-02
  2.37152983e-01  8.19701941e-01  1.00000000e+00  1.00000000e+00  1.00000000e+00
  1.00000000e+00  1.00000000e+00  1.96665025e-03  1.52306019e-02  7.61269097e-02
  2.60801033e-01  6.16462078e-01  2.21006028e-01  1.14660081e-01  9.19999648e-01
 -3.03068213e-03  4.02486927e-02  2.37593957e-01  8.15853851e-01  1.00000000e+00
  1.00000000e+00  1.00000000e+00  1.00000000e+00  1.00000000e+00  1.96665025e-03
  1.52306019e-02  7.61269097e-02  2.60801033e-01  6.16462078e-01  2.21006028e-01
  1.14660081e-01  9.19999648e-01 -3.03068213e-03  4.02486927e-02  2.37593957e-01
  8.15853851e-01  1.00000000e+00  1.00000000e+00  1.00000000e+00  1.00000000e+00
  1.00000000e+00  2.54938145e-02  1.90373109e-01  8.52161486e-01  1.00000000e+00
  1.00000000e+00  1.00000000e+00  1.96665025e-03  1.52306019e-02  7.61269097e-02
  2.60801033e-01  6.16462078e-01  2.21006028e-01  1.14660081e-01  9.19999648e-01
 -3.03068213e-03  4.02486927e-02  2.37593957e-01  8.15853851e-01  1.00000000e+00
  1.00000000e+00  1.00000000e+00  1.00000000e+00  1.00000000e+00  2.54938145e-02
  1.90373109e-01  8.52161486e-01  1.00000000e+00  1.00000000e+00  1.00000000e+00
  2.54938145e-02  1.90373109e-01  8.52161486e-01  1.00000000e+00  1.00000000e+00
  1.00000000e+00  2.54938145e-02  1.90373109e-01  8.52161486e-01  1.00000000e+00
  1.00000000e+00  1.00000000e+00  2.54938145e-02  1.90373109e-01  8.52161486e-01
  1.00000000e+00  1.00000000e+00  1.00000000e+00  2.54938145e-02  1.90373109e-01
  8.52161486e-01  1.00000000e+00  1.00000000e+00  1.00000000e+00
Coordinates of each shell                  R   N=         288
  1.72890582e+00 -1.48473872e+00 -1.06968245e+00  1.72890582e+00 -1.48473872e+00
 -1.06968245e+00  1.72890582e+00 -1.48473872e+00 -1.06968245e+00  1.72890582e+00
 -1.48473872e+00 -1.06968245e+00  1.72890582e+00 -1.48473872e+00 -1.06968245e+00
  1.72890582e+00 -1.48473872e+00 -1.06968245e+00  1.72890582e+00 -1.48473872e+00
 -1.06968245e+00  1.72890582e+00 -1.48473872e+00 -1.06968245e+00 -2.81818634e-01
 -1.79052023e-01  4.17637127e-02 -2.81818634e-01 -1.79052023e-01  4.17637127e-02
 -2.81818634e-01 -1.79052023e-01  4.17637127e-02 -2.81818634e-01 -1.79052023e-01
  4.17637127e-02 -2.81818634e-01 -1.79052023e-01  4.17637127e-02 -2.81818634e-01
 -1.79052023e-01  4.17637127e-02 -2.81818634e-01 -1.79052023e-01  4.17637127e-02
 -2.81818634e-01 -1.79052023e-01  4.17637127e-02 -2.67589132e+00 -1.58057750e+00
  4.37829839e-01 -2.67589132e+00 -1.58057750e+00  4.37829839e-01 -2.67589132e+00
 -1.58057750e+00  4.37829839e-01 -2.67589132e+00 -1.58057750e+00  4.37829839e-01
 -2.67589132e+00 -1.58057750e+00  4.37829839e-01 -2.67589132e+00 -1.58057750e+00
  4.37829839e-01 -2.67589132e+00 -1.58057750e+00  4.37829839e-01 -2.67589132e+00
 -1.58057750e+00  4.37829839e-01 -4.52060757e+00 -1.21330644e-01  1.47547434e+00
 -4.52060757e+00 -1.21330644e-01  1.47547434e+00 -4.52060757e+00 -1.21330644e-01
  1.47547434e+00 -4.52060757e+00 -1.21330644e-01  1.47547434e+00 -4.52060757e+00
 -1.21330644e-01  1.47547434e+00 -4.52060757e+00 -1.21330644e-01  1.47547434e+00
 -4.52060757e+00 -1.21330644e-01  1.47547434e+00 -4.52060757e+00 -1.21330644e-01
  1.47547434e+00 -8.30230554e-03  2.35445138e+00  7.46178300e-01 -8.30230554e-03
  2.35445138e+00  7.46178300e-01 -8.30230554e-03  2.35445138e+00  7.46178300e-01
 -8.30230554e-03  2.35445138e+00  7.46178300e-01 -8.30230554e-03  2.35445138e+00
  7.46178300e-01 -8.30230554e-03  2.35445138e+00  7.46178300e-01 -8.30230554e-03
  2.35445138e+00  7.46178300e-01 -8.30230554e-03  2.35445138e+00  7.46178300e-01
 -3.01536827e+00 -3.80027779e+00 -9.02770222e-02 -3.01536827e+00 -3.80027779e+00
 -9.02770222e-02 -3.01536827e+00 -3.80027779e+00 -9.02770222e-02 -3.01536827e+00
 -3.80027779e+00 -9.02770222e-02 -3.01536827e+00 -3.80027779e+00 -9.02770222e-02
 -3.01536827e+00 -3.80027779e+00 -9.02770222e-02 -3.01536827e+00 -3.80027779e+00
 -9.02770222e-02 -3.01536827e+00 -3.80027779e+00 -9.02770222e-02  4.01485659e+00
 -2.50678373e-01 -1.47770461e+00  4.01485659e+00 -2.50678373e-01 -1.47770461e+00
  4.01485659e+00 -2.50678373e-01 -1.47770461e+00  4.01485659e+00 -2.50678373e-01
 -1.47770461e+00  4.01485659e+00 -2.50678373e-01 -1.47770461e+00  4.01485659e+00
 -2.50678373e-01 -1.47770461e+00  4.01485659e+00 -2.50678373e-01 -1.47770461e+00
  4.01485659e+00 -2.50678373e-01 -1.47770461e+00  4.29998220e+00  2.27733368e+00
 -7.79209014e-01  4.29998220e+00  2.27733368e+00 -7.79209014e-01  4.29998220e+00
  2.27733368e+00 -7.79209014e-01  4.29998220e+00  2.27733368e+00 -7.79209014e-01
  4.29998220e+00  2.27733368e+00 -7.79209014e-01  4.29998220e+00  2.27733368e+00
 -7.79209014e-01  4.29998220e+00  2.27733368e+00 -7.79209014e-01  4.29998220e+00
  2.27733368e+00 -7.79209014e-01  1.46534103e+00 -3.45091084e+00 -1.59562667e+00
  1.46534103e+00 -3.45091084e+00 -1.59562667e+00  1.46534103e+00 -3.45091084e+00
 -1.59562667e+00  1.46534103e+00 -3.45091084e+00 -1.59562667e+00  2.28835296e+00
  3.57196850e+00  3.30836351e-01  2.28835296e+00  3.57196850e+00  3.30836351e-01
  2.28835296e+00  3.57196850e+00  3.30836351e-01  2.28835296e+00  3.57196850e+00
  3.30836351e-01  2.28835296e+00  3.57196850e+00  3.30836351e-01  2.28835296e+00
  3.57196850e+00  3.30836351e-01  2.28835296e+00  3.57196850e+00  3.30836351e-01
  2.28835296e+00  3.57196850e+00  3.30836351e-01 -1.57932788e+00  3.35144437e+00
  1.60751924e+00 -1.57932788e+00  3.35144437e+00  1.60751924e+00 -1.57932788e+00
  3.35144437e+00  1.60751924e+00 -1.57932788e+00  3.35144437e+00  1.60751924e+00
  2.51009754e+00  5.53966452e+00  8.75766856e-01  2.51009754e+00  5.53966452e+00
  8.75766856e-01  2.51009754e+00  5.53966452e+00  8.75766856e-01  2.51009754e+00
  5.53966452e+00  8.75766856e-01 -5.98267799e+00 -1.24370494e+00  1.64489867e+00
 -5.98267799e+00 -1.24370494e+00  1.64489867e+00 -5.98267799e+00 -1.24370494e+00
  1.64489867e+00 -5.98267799e+00 -1.24370494e+00  1.64489867e+00  5.57989785e+00
 -1.26080548e+00 -2.34244853e+00  5.57989785e+00 -1.26080548e+00 -2.34244853e+00
  5.57989785e+00 -1.26080548e+00 -2.34244853e+00  5.57989785e+00 -1.26080548e+00
 -2.34244853e+00  6.08770152e+00  3.23731730e+00 -1.09925380e+00  6.08770152e+00
  3.23731730e+00 -1.09925380e+00  6.08770152e+00  3.23731730e+00 -1.09925380e+00
  6.08770152e+00  3.23731730e+00 -1.09925380e+00
Total Energy                               R     -4.197650272713357e+02
Alpha Orbital Energies                     R   N=         198
 -2.06101488e+01 -2.05436066e+01 -1.13931184e+01 -1.12571960e+01 -1.12565268e+01
 -1.12560269e+01 -1.12534684e+01 -1.12477049e+01 -1.12468525e+01 -1.46044800e+00
 -1.35482548e+00 -1.17021481e+00 -1.04989456e+00 -1.03060716e+00 -8.98563006e-01
 -8.43914903e-01 -7.99928605e-01 -7.29881924e-01 -7.02907914e-01 -6.74612011e-01
 -6.39408528e-01 -6.30502620e-01 -6.25628282e-01 -6.03958556e-01 -5.84876403e-01
 -5.26384798e-01 -5.17314891e-01 -5.07393391e-01 -4.81134289e-01 -4.54894168e-01
 -3.54250375e-01 -3.49180110e-01  7.95838294e-02  1.21481049e-01  1.49115313e-01
  1.61903085e-01  1.81373712e-01  1.99485486e-01  2.27472962e-01  2.33617880e-01
  2.35263445e-01  3.53810537e-01  3.93722007e-01  4.17542420e-01  4.22336669e-01
  4.30507127e-01  4.35888574e-01  4.45906968e-01  4.57614944e-01  5.28307889e-01
  5.49841694e-01  5.64587595e-01  5.77062897e-01  5.86250692e-01  5.86701358e-01
  6.13208113e-01  6.15872458e-01  6.18347067e-01  6.30286629e-01  6.55789708e-01
  6.76150258e-01  6.77548584e-01  7.14050820e-01  7.41889939e-01  7.51489399e-01
  7.68101299e-01  7.91581843e-01  8.04740131e-01  8.16638010e-01  8.19653853e-01
  8.26017680e-01  8.30722822e-01  8.78456779e-01  9.12450430e-01  9.23907064e-01
  9.33275237e-01  9.94252713e-01  1.00954069e+00  1.04457757e+00  1.05794453e+00
  1.06181709e+00  1.07528306e+00  1.08255312e+00  1.13948262e+00  1.14307137e+00
  1.19560305e+00  1.22600776e+00  1.22684591e+00  1.22944487e+00  1.24704506e+00
  1.30828568e+00  1.31174454e+00  1.32874653e+00  1.34137743e+00  1.36538279e+00
  1.37645431e+00  1.44862606e+00  1.51538282e+00  1.54666924e+00  1.66326009e+00
  1.67205001e+00  1.69080665e+00  1.70153438e+00  1.70991743e+00  1.74409922e+00
  1.76984290e+00  1.80728334e+00  1.81418565e+00  1.81998173e+00  1.84213704e+00
  1.86702208e+00  1.87866735e+00  1.91596987e+00  1.96606548e+00  1.99243216e+00
  2.02526656e+00  2.03453331e+00  2.04277262e+00  2.04628946e+00  2.11984669e+00
  2.15968544e+00  2.18173945e+00  2.19120215e+00  2.19772737e+00  2.21256867e+00
  2.21623915e+00  2.22012591e+00  2.27723984e+00  2.30919986e+00  2.33079656e+00
  2.36441219e+00  2.42687255e+00  2.45880335e+00  2.59188865e+00  2.59664778e+00
  2.64010783e+00  2.64921464e+00  2.69847620e+00  2.71091925e+00  2.75974579e+00
  2.88169315e+00  2.90046236e+00  2.90844072e+00  2.92150521e+00  2.92748483e+00
  2.93951206e+00  2.94693139e+00  2.96090676e+00  2.97142925e+00  2.98790380e+00
  3.09777366e+00  3.11706775e+00  3.16944311e+00  3.18483614e+00  3.21019918e+00
  3.23429121e+00  3.26464580e+00  3.28245303e+00  3.29515952e+00  3.36125825e+00
  3.43355401e+00  3.44849409e+00  3.53562308e+00  3.55155798e+00  3.59069509e+00
  3.68361983e+00  3.74225788e+00  3.75819142e+00  3.77292668e+00  3.86866516e+00
  3.88400155e+00  3.93904319e+00  3.95284742e+00  4.01072364e+00  4.07898496e+00
  4.15103402e+00  4.34141296e+00  4.38332212e+00  4.41377354e+00  4.52559781e+00
  4.53832459e+00  4.69334933e+00  5.25657201e+00  5.34007653e+00  5.46746044e+00
  5.59579153e+00  5.84239712e+00  6.13355773e+00  6.30963087e+00  2.46586469e+01
  2.49070938e+01  2.50675135e+01  2.50818219e+01  2.52140997e+01  2.52471290e+01
  2.53355588e+01  5.15434123e+01  5.17013857e+01
Alpha MO coefficients                      R   N=       39204
  2.45778693e-08 -9.83680752e-07 -5.60865334e-06  2.21736293e-06  2.96540048e-06
  8.97048048e-06  2.82933559e-05 -1.03260598e-05 -1.40813850e-05 -8.42984505e-04
 -1.02512615e-04 -3.43711860e-04 -7.29451694e-05 -2.71851089e-06 -4.15452025e-06
  2.53783781e-06  1.85070846e-06 -4.13627058e-06  1.45532817e-06 -2.27298636e-06
  1.57936116e-05 -3.38255300e-07 -5.35769048e-06  4.35046181e-05 -5.45256908e-05
 -2.80514056e-06  1.73658857e-05 -8.22275365e-04  9.41330639e-04 -4.82808744e-04
 -4.70967828e-04  5.51262116e-06 -5.79633010e-06 -9.74268320e-06  2.33490489e-05
 -4.73746290e-06 -3.49358799e-06 -3.32350375e-05 -2.55099728e-05  1.45818046e-05
  1.25947652e-05  1.12695811e-04 -2.11690301e-04  1.97690938e-04  1.28363667e-04
  1.07402674e-03 -1.19133174e-04  9.42834794e-04  3.15076696e-04 -1.22255536e-05
 -8.57490912e-05  3.47583390e-05  8.73995018e-05 -1.28009500e-04  5.51460922e-01
  4.71662074e-01 -7.12187724e-05 -1.59989257e-03 -4.32458758e-04  5.66307224e-03
  9.35309507e-05  6.15645647e-04  1.45195627e-04 -1.33691514e-03 -3.24014510e-04
  1.78432441e-05  1.11349431e-04  7.35920417e-05  7.98220714e-05 -2.94832979e-05
 -6.87735260e-05  8.00448569e-06  2.48613070e-07  2.09615735e-08 -5.94310183e-06
  2.19365446e-06  2.29854486e-06  8.59267645e-06  3.83052432e-05 -2.35251676e-05
 -1.89387066e-05  1.00099794e-04 -5.26012819e-04 -5.72650420e-04 -4.39532733e-06
 -7.00891121e-07  1.33422024e-05  3.34849280e-06 -2.48241862e-05  1.22806979e-05
 -1.44664200e-04 -1.21337934e-04  5.84611932e-06 -1.77807373e-05 -7.01559190e-06
 -3.40851697e-05  4.71694043e-06  6.03375412e-05  1.56265946e-05  4.05527211e-04
  8.14860013e-05  1.66934141e-05 -2.23466605e-05 -5.01725385e-06  5.91942559e-06
  3.73681366e-06 -1.66928349e-05  9.81328314e-06 -1.56071443e-07  9.55863921e-07
  2.58698090e-06  5.98893612e-07 -7.92982569e-07 -1.37112929e-05 -1.11942349e-05
 -1.82932400e-06  3.60252937e-06  5.43066301e-04 -1.50863027e-04  4.07520842e-05
  6.53236990e-05 -1.71585294e-06 -1.14722945e-06  1.22290726e-06 -3.15135194e-07
  4.10642016e-08  1.62802989e-07 -7.99313902e-07 -5.10260900e-07 -3.45121245e-07
 -1.27238554e-08  1.28591566e-05  3.38619928e-06  3.39191221e-08 -8.83521177e-07
 -2.70817792e-05  7.81018649e-05  2.03663300e-04  3.57234451e-05  1.28568134e-06
  2.03787175e-06 -1.68171170e-06 -4.39682672e-07  1.76383887e-06  7.42998728e-06
 -6.37234921e-05 -2.12835739e-05  3.96062793e-06 -4.83864329e-06 -2.87476812e-06
 -7.13750205e-08  2.58951423e-07 -1.70609185e-06  7.58225211e-07  9.89969122e-07
 -1.04360780e-05  1.09693927e-05 -5.33363470e-06 -6.05503922e-06  5.21641506e-04
 -3.87101831e-04 -3.20132048e-05  1.27915574e-04 -4.25252362e-06 -4.64057992e-06
  4.07954302e-06  3.15584722e-07 -2.58164141e-06 -2.65880450e-06 -8.16319226e-06
  2.16274878e-05  3.18842748e-05 -6.13548803e-07 -1.11769810e-05  2.50357978e-06
 -4.17419082e-05 -7.08655567e-06  1.17411563e-05  3.75360048e-06 -3.18522057e-06
  1.91528526e-04  1.67560579e-04  1.80718682e-05  1.24685551e-04  3.39491819e-05
 -3.17400072e-05 -4.77215176e-08 -6.20448620e-06  1.50272002e-05  3.07603177e-06
  1.47234184e-06 -5.82269647e-07  5.25769496e-06 -4.84160348e-05 -2.57606994e-05
  3.70203558e-06 -3.40039851e-06 -2.25119213e-06 -2.34509760e-07 -4.62860365e-07
 -3.97005382e-06  5.47346731e-06  2.97057587e-06  5.30084884e-06  2.68666938e-05
 -3.55746285e-05 -1.99851203e-05 -7.41578150e-04  3.69348508e-04 -2.42449889e-04
 -2.09281385e-04 -3.21911715e-06  7.24510347e-06  1.04216089e-09 -1.21002673e-05
  1.20545827e-05 -1.47165178e-06  7.25679969e-07 -4.93330604e-06 -1.35050574e-05
 -2.24592186e-06 -8.66941139e-06  1.33544766e-05  5.62741205e-05  1.19792212e-05
 -1.11486401e-04  6.81290777e-04 -8.91091632e-04 -5.06872678e-04  5.84599624e-06
 -7.60024688e-06  9.31111700e-06 -2.21727291e-06 -3.04015841e-05 -5.66347979e-06
  7.64841514e-05  1.91858837e-05  6.83146618e-05  1.32898272e-05 -3.32137003e-04
  3.96476018e-05  3.98170490e-04  1.02033097e-04 -2.12115257e-04  7.19085620e-06
  1.08691576e-03  3.16526670e-04  5.13899034e-05 -4.31578930e-05 -6.06710071e-05
  1.78073828e-04 -5.17662115e-05 -1.47765627e-04 -1.31188007e-04  3.01141381e-06
 -1.49555864e-05 -5.41863527e-06  5.36579413e-05  4.92020613e-07  2.85720341e-05
  8.41567679e-06 -4.03001617e-04 -1.26443528e-04 -1.74400540e-05  3.59112706e-05
  3.75525115e-06  7.69605742e-06 -4.48237592e-06 -4.88634861e-06  9.02806264e-06
  5.40343558e-08  7.92526949e-07  3.98283405e-06  5.59131300e-06  3.63171037e-07
 -8.21851478e-06 -1.60815229e-05 -2.09996978e-05 -7.37360394e-07  7.51202120e-04
 -6.40121861e-05 -2.88716576e-04 -7.30170808e-05  1.50620633e-06  8.06674249e-07
 -4.18270356e-06  5.51844741e-06  4.57114975e-06 -5.51477379e-01 -4.71686188e-01
 -2.14203907e-04 -1.67906015e-03 -4.12506008e-04 -5.50276854e-03  7.51225589e-05
  6.14116697e-04  1.52358590e-04  1.36129322e-03  4.64841937e-05  1.44212283e-04
  2.46831141e-05  8.34932236e-05  8.55831326e-05 -3.26012981e-05 -7.27234411e-05
  2.37304064e-06  5.81638682e-09  1.26500615e-07  2.41750465e-06  2.48057633e-06
 -3.12272855e-08  1.51223190e-06 -1.18171827e-05 -1.21232772e-05  2.10014543e-07
  2.78549594e-05  4.18051791e-05  1.90528926e-04  4.71660079e-05  3.27496537e-06
  2.04178325e-06 -2.67150535e-06  1.10604990e-06 -2.10581501e-07  6.02630806e-08
 -3.72436492e-07  1.04541186e-06 -1.02085570e-06 -7.88355606e-07  8.76016899e-07
 -6.16389131e-06  3.05173862e-06  3.45532366e-06 -8.08892018e-06 -7.90603347e-05
  9.37025136e-05  5.56684153e-05  1.93927476e-07  1.82883009e-08  4.63437575e-07
 -5.37609682e-07 -9.20732636e-07  3.04282100e-06 -3.41997075e-05 -4.65624175e-05
 -1.62138522e-05 -1.94460263e-05 -2.72791372e-07  2.51182149e-07 -1.52811195e-06
 -1.83874469e-06 -1.27572561e-06  2.35222261e-07  1.79536824e-05  7.10277270e-06
  3.80222046e-06 -1.29159437e-06 -1.75319131e-04 -6.42741110e-05  1.22774081e-04
  6.26559578e-05  2.44026900e-06  1.11414984e-06 -1.27154972e-06  4.58170431e-07
 -1.07340613e-06 -2.99692746e-06 -4.07458896e-06 -2.24028434e-05  2.77067735e-06
  2.34861109e-06 -3.68844610e-09  3.36688275e-06 -2.21256544e-05 -1.81554813e-05
  1.34179291e-07  3.52064366e-07 -6.09313530e-08 -3.44197173e-06  5.62595311e-05
 -2.32805191e-05  2.90138608e-05 -9.74509054e-06 -1.25318741e-05 -6.78847139e-07
  2.06559291e-05  1.16433648e-05 -3.20086599e-06 -2.63649874e-06  1.47652824e-07
 -6.24094948e-07  1.31389389e-05  4.25663506e-06  8.87138080e-07 -4.88267162e-06
 -1.73235252e-06 -5.61474553e-06 -8.76706698e-06  1.07707888e-05  2.37992403e-06
 -3.21501445e-06  1.64719498e-05 -4.53176249e-05  8.95999932e-06  1.91704054e-05
  6.99587204e-06 -4.10608677e-04 -2.93928328e-04  5.09117219e-05  6.51472417e-07
 -1.72929465e-05 -1.93601217e-06  2.94602305e-05 -1.60860265e-05  1.46801238e-03
  1.16864835e-03 -1.22070572e-04 -6.56307594e-05  2.18582528e-05  2.30099911e-04
 -1.91173244e-04 -1.21061628e-04  2.90711696e-05  2.40363886e-04  3.22067938e-04
  8.64983015e-04  1.57794777e-04 -2.10703145e-06  2.53396286e-05 -5.07828841e-05
  3.50994377e-05  9.94751842e-05  5.63570809e-01  4.66640354e-01 -8.40299433e-04
  3.66675412e-04  3.87884857e-04  3.33706527e-03  5.32526573e-04 -5.97954980e-04
 -3.51797905e-04  7.16284907e-04 -1.38481808e-04 -2.98126966e-04 -4.21923678e-05
 -3.54184475e-04 -5.74490851e-05  1.81336986e-04 -2.70163031e-04  2.83019186e-04
 -8.89033353e-05 -1.61680275e-04  9.35027560e-05 -6.86063233e-05 -5.10882698e-05
  4.04060137e-04  4.24115384e-04 -3.55389879e-04 -2.44252213e-04  1.73412836e-04
 -1.97560165e-05 -1.46507895e-05  2.61949463e-06 -3.58501891e-05 -9.62912465e-05
  9.67930028e-05  4.05769401e-06 -1.87799064e-04 -9.57821590e-06 -1.06106526e-05
  9.60489433e-06  1.39188862e-07 -3.04131235e-06  2.90573848e-05 -2.61708930e-05
  1.45883878e-05  1.30296506e-05 -8.21119326e-04 -1.99143931e-04  3.48347240e-04
  1.81280703e-04 -6.55985443e-07  1.03044554e-05 -7.62979200e-06 -4.31088017e-06
  2.21231831e-05 -1.81811410e-04 -2.76880771e-04  4.95099680e-05  2.83250767e-04
  6.54912529e-05  5.84041619e-04  6.74918547e-05  4.27987596e-04  1.00610943e-04
 -7.30533645e-04 -2.08266014e-05 -3.35698554e-04 -8.86628560e-05 -4.47092237e-05
  4.03721955e-05  5.66267951e-05 -1.64470479e-04  4.23691913e-05  3.19660858e-06
  1.60826576e-07  3.66815942e-06 -4.04516144e-07 -1.37601777e-06  1.31750712e-05
 -2.96472723e-05 -3.90562461e-06  9.03548542e-06  3.69841246e-04 -1.43297572e-04
 -1.03283416e-04  1.74009702e-05  4.78015432e-07 -2.90990434e-06 -3.13937695e-06
  9.10099877e-06 -1.49004094e-08 -8.99754483e-07 -2.94027968e-06 -8.57485127e-08
  9.63609582e-07  3.54225640e-07  1.78315247e-05 -5.04742755e-06 -7.36223251e-06
 -6.59149223e-07 -1.82957504e-04  1.33942580e-04 -2.80507080e-05 -5.51802000e-05
  1.72206373e-06  1.21777254e-06  2.02207154e-06 -4.56446016e-06 -4.17810979e-06
  9.22206166e-06 -8.75898395e-05 -8.42119168e-05  6.75794093e-06  5.52649195e-06
 -6.07852643e-07  3.33306542e-06  1.59163091e-06  2.80352624e-06  3.54363930e-06
  1.22500186e-07  1.37344649e-06 -2.28099927e-05 -2.05572870e-05  1.48596017e-06
  3.49078810e-04  5.05400249e-05 -1.52708526e-04 -6.66650155e-05 -1.19279719e-06