15
 energy: -26.171840029333 gnorm: 0.000351389185 xtb: 6.5.0 (97a52f5)
C            0.85737120358954       -0.73970232529176       -0.16904287207679
C           -0.23758110242642        0.09543563901914        0.03221641976608
C           -1.59978296558539       -0.45742226898256        0.20497342602104
O           -1.60325373664241       -1.66609953631984        0.79053016319761
C           -0.07324563197794        1.47795816684595        0.00395540338994
O           -2.61754425007091        0.10596472775867       -0.10944419936170
C            2.11024265531411       -0.19101968754033       -0.37161911246747
C            2.27506392353701        1.18493974370091       -0.37708369711101
H            0.71879136812560       -1.80984938003851       -0.16262604150073
C            1.18365351817547        2.01858694174870       -0.18897427953519
H           -0.93840852941709        2.10877732281175        0.14104872986653
H            1.31386252093473        3.09044455946182       -0.19979167760094
H           -2.51461457430301       -1.98553375705922        0.88175363160391
H            2.96103329755605       -0.83726770804055       -0.52900172887996
H            3.25614730319066        1.60892156192581       -0.53335616531134
