      -----------------------------------------------------------      
     |                   =====================                   |     
     |                           x T B                           |     
     |                   =====================                   |     
     |                         S. Grimme                         |     
     |          Mulliken Center for Theoretical Chemistry        |     
     |                    University of Bonn                     |     
      -----------------------------------------------------------      

   * xtb version 6.5.0 (97a52f5) compiled by 'conda@d2599ee0d4f4' on 2022-05-15

   xtb is free software: you can redistribute it and/or modify it under
   the terms of the GNU Lesser General Public License as published by
   the Free Software Foundation, either version 3 of the License, or
   (at your option) any later version.
   
   xtb is distributed in the hope that it will be useful,
   but WITHOUT ANY WARRANTY; without even the implied warranty of
   MERCHANTABILITY or FITNESS FOR A PARTICULAR PURPOSE.  See the
   GNU Lesser General Public License for more details.
   
   Cite this work as:
   * C. Bannwarth, E. Caldeweyher, S. Ehlert, A. Hansen, P. Pracht,
     J. Seibert, S. Spicher, S. Grimme, WIREs Comput. Mol. Sci., 2020, 11,
     e01493. DOI: 10.1002/wcms.1493
   
   for GFN2-xTB:
   * C. Bannwarth, S. Ehlert and S. Grimme., J. Chem. Theory Comput., 2019,
     15, 1652-1671. DOI: 10.1021/acs.jctc.8b01176
   for GFN1-xTB:
   * S. Grimme, C. Bannwarth, P. Shushkov, J. Chem. Theory Comput., 2017,
     13, 1989-2009. DOI: 10.1021/acs.jctc.7b00118
   for GFN0-xTB:
   * P. Pracht, E. Caldeweyher, S. Ehlert, S. Grimme, ChemRxiv, 2019, preprint.
     DOI: 10.26434/chemrxiv.8326202.v1
   for GFN-FF:
   * S. Spicher and S. Grimme, Angew. Chem. Int. Ed., 2020, 59, 15665-15673.
     DOI: 10.1002/anie.202004239
   
   for ALPB and GBSA implicit solvation:
   * S. Ehlert, M. Stahn, S. Spicher, S. Grimme, J. Chem. Theory Comput.,
     2021, 17, 4250-4261. DOI: 10.1021/acs.jctc.1c00471
   
   for DFT-D4:
   * E. Caldeweyher, C. Bannwarth and S. Grimme, J. Chem. Phys., 2017,
     147, 034112. DOI: 10.1063/1.4993215
   * E. Caldeweyher, S. Ehlert, A. Hansen, H. Neugebauer, S. Spicher,
     C. Bannwarth and S. Grimme, J. Chem. Phys., 2019, 150, 154122.
     DOI: 10.1063/1.5090222
   * E. Caldeweyher, J.-M. Mewes, S. Ehlert and S. Grimme, Phys. Chem. Chem. Phys.
     2020, 22, 8499-8512. DOI: 10.1039/D0CP00502A
   
   for sTDA-xTB:
   * S. Grimme and C. Bannwarth, J. Chem. Phys., 2016, 145, 054103.
     DOI: 10.1063/1.4959605
   
   in the mass-spec context:
   * V. Asgeirsson, C. Bauer and S. Grimme, Chem. Sci., 2017, 8, 4879.
     DOI: 10.1039/c7sc00601b
   * J. Koopman and S. Grimme, ACS Omega 2019, 4, 12, 15120-15133.
     DOI: 10.1021/acsomega.9b02011
   
   for metadynamics refer to:
   * S. Grimme, J. Chem. Theory Comput., 2019, 155, 2847-2862
     DOI: 10.1021/acs.jctc.9b00143
   
   for SPH calculations refer to:
   * S. Spicher and S. Grimme, J. Chem. Theory Comput., 2021, 17, 1701-1714
     DOI: 10.1021/acs.jctc.0c01306
   
   with help from (in alphabetical order)
   P. Atkinson, C. Bannwarth, F. Bohle, G. Brandenburg, E. Caldeweyher
   M. Checinski, S. Dohm, S. Ehlert, S. Ehrlich, I. Gerasimov, C. Hölzer
   A. Katbashev, J. Koopman, C. Lavigne, S. Lehtola, F. März, M. Müller,
   F. Musil, H. Neugebauer, J. Pisarek, C. Plett, P. Pracht, F. Pultar,
   J. Seibert, P. Shushkov, S. Spicher, M. Stahn, M. Steiner, T. Strunk,
   J. Stückrath, T. Rose, and J. Unsleber
   
 * started run on 2023/11/18 at 08:15:17.919     

           -------------------------------------------------
          |                Calculation Setup                |
           -------------------------------------------------

          program call               : /home/liuchw/anaconda3/envs/xtbenv/bin/xtb --gfn 2 --chrg 0 --uhf 0 13_34_Index_0-opt-2-3-061_preQMOPTprefit_xyzformat.xyz --opt --input xtb-opt-2-3-061_constr.txt
          hostname                   : node165.bme.utexas.edu
          coordinate file            : 13_34_Index_0-opt-2-3-061_preQMOPTprefit_xyzformat.xyz
          omp threads                :                    64

   ID    Z sym.   atoms
    1    6 C      1-3, 5, 7, 8, 10
    2    8 O      4, 6
    3    1 H      9, 11-15
constraining angle 1 2 3 4 to   60.9996973°, actual value:   60.9996973°
constraining angle 2 3 4 13 to  179.9950114°, actual value:  179.9950114°

           -------------------------------------------------
          |                 G F N 2 - x T B                 |
           -------------------------------------------------

        Reference                      10.1021/acs.jctc.8b01176
      * Hamiltonian:
        H0-scaling (s, p, d)           1.850000    2.230000    2.230000
        zeta-weighting                 0.500000
      * Dispersion:
        s8                             2.700000
        a1                             0.520000
        a2                             5.000000
        s9                             5.000000
      * Repulsion:
        kExp                           1.500000    1.000000
        rExp                           1.000000
      * Coulomb:
        alpha                          2.000000
        third order                    shell-resolved
        anisotropic                    true
        a3                             3.000000
        a5                             4.000000
        cn-shift                       1.200000
        cn-exp                         4.000000
        max-rad                        5.000000

q/qsh data taken from xtbrestart
CAMM data taken from xtbrestart

          ...................................................
          :                      SETUP                      :
          :.................................................:
          :  # basis functions                  42          :
          :  # atomic orbitals                  42          :
          :  # shells                           24          :
          :  # electrons                        46          :
          :  max. iterations                   250          :
          :  Hamiltonian                  GFN2-xTB          :
          :  restarted?                       true          :
          :  GBSA solvation                  false          :
          :  PC potential                    false          :
          :  electronic temp.          300.0000000     K    :
          :  accuracy                    1.0000000          :
          :  -> integral cutoff          0.2500000E+02      :
          :  -> integral neglect         0.1000000E-07      :
          :  -> SCF convergence          0.1000000E-05 Eh   :
          :  -> wf. convergence          0.1000000E-03 e    :
          :  Broyden damping             0.4000000          :
          ...................................................

 iter      E             dE          RMSdq      gap      omega  full diag
   1    -26.4980068 -0.264980E+02  0.120E+00    3.98       0.0  T
   2    -26.4981984 -0.191653E-03  0.707E-01    4.02       1.0  T
   3    -26.4978609  0.337494E-03  0.189E-01    4.01       1.0  T
   4    -26.4983026 -0.441669E-03  0.394E-02    4.02       1.0  T
   5    -26.4983051 -0.255240E-05  0.233E-02    4.02       1.1  T
   6    -26.4983067 -0.158898E-05  0.733E-03    4.02       3.5  T
   7    -26.4983068 -0.102638E-06  0.241E-03    4.02      10.7  T
   8    -26.4983069 -0.280331E-07  0.109E-03    4.02      23.6  T
   9    -26.4983069 -0.807696E-08  0.313E-04    4.02      82.6  T
  10    -26.4983069 -0.235072E-09  0.181E-04    4.02     143.0  T

   *** convergence criteria satisfied after 10 iterations ***

         #    Occupation            Energy/Eh            Energy/eV
      -------------------------------------------------------------
         1        2.0000           -0.7452168             -20.2784
       ...           ...                  ...                  ...
        17        2.0000           -0.4853796             -13.2079
        18        2.0000           -0.4781412             -13.0109
        19        2.0000           -0.4551625             -12.3856
        20        2.0000           -0.4384095             -11.9297
        21        2.0000           -0.4208504             -11.4519
        22        2.0000           -0.4169486             -11.3457
        23        2.0000           -0.4142849             -11.2733 (HOMO)
        24                         -0.2666686              -7.2564 (LUMO)
        25                         -0.2421443              -6.5891
        26                         -0.2270886              -6.1794
        27                         -0.1211969              -3.2979
        28                          0.0482297               1.3124
       ...                                ...                  ...
        42                          0.6004838              16.3400
      -------------------------------------------------------------
                  HL-Gap            0.1476163 Eh            4.0168 eV
             Fermi-level           -0.3404767 Eh           -9.2648 eV

 SCC (total)                   0 d,  0 h,  0 min,  1.643 sec
 SCC setup                      ...        0 min,  0.020 sec (  1.228%)
 Dispersion                     ...        0 min,  0.056 sec (  3.398%)
 classical contributions        ...        0 min,  0.027 sec (  1.638%)
 integral evaluation            ...        0 min,  0.072 sec (  4.369%)
 iterations                     ...        0 min,  1.240 sec ( 75.479%)
 molecular gradient             ...        0 min,  0.228 sec ( 13.848%)
 printout                       ...        0 min,  0.000 sec (  0.015%)

         :::::::::::::::::::::::::::::::::::::::::::::::::::::
         ::                     SUMMARY                     ::
         :::::::::::::::::::::::::::::::::::::::::::::::::::::
         :: total energy             -26.162970537585 Eh    ::
         :: gradient norm              0.061228355521 Eh/a0 ::
         :: HOMO-LUMO gap              4.016843344518 eV    ::
         ::.................................................::
         :: SCC energy               -26.498306860269 Eh    ::
         :: -> isotropic ES            0.048370059643 Eh    ::
         :: -> anisotropic ES          0.001659219537 Eh    ::
         :: -> anisotropic XC          0.010569139340 Eh    ::
         :: -> dispersion             -0.011669680800 Eh    ::
         :: repulsion energy           0.335315743723 Eh    ::
         :: add. restraining           0.000000000000 Eh    ::
         :: total charge              -0.000000000000 e     ::
         :::::::::::::::::::::::::::::::::::::::::::::::::::::

      ----------------------------------------------------------- 
     |                   =====================                   |
     |                        A N C O P T                        |
     |                   =====================                   |
     |               Approximate Normal Coordinate               |
     |                Rational Function Optimizer                |
      ----------------------------------------------------------- 

          ...................................................
          :                      SETUP                      :
          :.................................................:
          :   optimization level            normal          :
          :   max. optcycles                   200          :
          :   ANC micro-cycles                  20          :
          :   degrees of freedom                39          :
          :.................................................:
          :   RF solver                   davidson          :
          :   write xtbopt.log                true          :
          :   linear?                        false          :
          :   energy convergence         0.5000000E-05 Eh   :
          :   grad. convergence          0.1000000E-02 Eh/α :
          :   maximium RF displ.         1.0000000          :
          :   Hlow (freq-cutoff)         0.1000000E-01      :
          :   Hmax (freq-cutoff)         5.0000000          :
          :   S6 in model hess.         20.0000000          :
          ...................................................

generating ANC from model Hessian ...
Using Lindh-Hessian (1995)
 Shifting diagonal of input Hessian by    6.1391510873341961E-003
 Lowest  eigenvalues of input Hessian
    0.000000    0.000000    0.000000    0.000000    0.000000    0.000000
    0.010000    0.017072    0.019523    0.021271    0.027190    0.029668
    0.046226    0.060893    0.073393    0.092490    0.092601    0.096333
 Highest eigenvalues
    1.693007    1.816095    1.876967    2.211615    4.185349    7.497229


........................................................................
.............................. CYCLE    1 ..............................
........................................................................
   1    -26.4983069 -0.264983E+02  0.718E-05    4.02       0.0  T
   2    -26.4983069 -0.735056E-11  0.456E-05    4.02     566.6  T
   3    -26.4983069  0.511591E-12  0.293E-05    4.02     881.3  T
     SCC iter.                  ...        0 min,  0.345 sec
     gradient                   ...        0 min,  0.214 sec
 * total energy  :   -26.1629705 Eh     change       -0.2113261E-09 Eh
   gradient norm :     0.0612281 Eh/α   predicted     0.0000000E+00 (-100.00%)
   displ. norm   :     0.1868785 α      lambda       -0.8565923E-02
   maximum displ.:     0.1192062 α      in ANC's #21, #19, #18, ...

........................................................................
.............................. CYCLE    2 ..............................
........................................................................
   1    -26.5414699 -0.265415E+02  0.248E-01    4.22       0.0  T
   2    -26.5415176 -0.476098E-04  0.149E-01    4.21       1.0  T
   3    -26.5415023  0.152766E-04  0.588E-02    4.22       1.0  T
   4    -26.5415278 -0.255472E-04  0.806E-03    4.21       3.2  T
   5    -26.5415282 -0.428734E-06  0.462E-03    4.21       5.6  T
   6    -26.5415284 -0.118337E-06  0.216E-03    4.21      12.0  T
   7    -26.5415284 -0.457814E-08  0.595E-04    4.21      43.4  T
   8    -26.5415284 -0.196592E-08  0.226E-04    4.21     114.4  T
     SCC iter.                  ...        0 min,  0.895 sec
     gradient                   ...        0 min,  0.201 sec
 * total energy  :   -26.1681446 Eh     change       -0.5174103E-02 Eh
   gradient norm :     0.0145149 Eh/α   predicted    -0.4432540E-02 ( -14.33%)
   displ. norm   :     0.0778506 α      lambda       -0.6227735E-03
   maximum displ.:     0.0339344 α      in ANC's #1, #21, #16, ...

........................................................................
.............................. CYCLE    3 ..............................
........................................................................
   1    -26.5513137 -0.265513E+02  0.785E-02    4.25       0.0  T
   2    -26.5513195 -0.576356E-05  0.472E-02    4.25       1.0  T
   3    -26.5513183  0.113675E-05  0.211E-02    4.25       1.2  T
   4    -26.5513210 -0.269921E-05  0.287E-03    4.25       9.0  T
   5    -26.5513211 -0.869721E-07  0.141E-03    4.25      18.3  T
   6    -26.5513211 -0.190991E-08  0.356E-04    4.25      72.5  T
   7    -26.5513211 -0.106552E-08  0.934E-05    4.25     276.5  T
     SCC iter.                  ...        0 min,  0.802 sec
     gradient                   ...        0 min,  0.155 sec
 * total energy  :   -26.1685079 Eh     change       -0.3632751E-03 Eh
   gradient norm :     0.0071218 Eh/α   predicted    -0.3132745E-03 ( -13.76%)
   displ. norm   :     0.0472526 α      lambda       -0.1148022E-03
   maximum displ.:     0.0288892 α      in ANC's #1, #16, #4, ...

........................................................................
.............................. CYCLE    4 ..............................
........................................................................
   1    -26.5517806 -0.265518E+02  0.333E-02    4.25       0.0  T
   2    -26.5517817 -0.110238E-05  0.198E-02    4.24       1.3  T
   3    -26.5517815  0.157340E-06  0.881E-03    4.25       2.9  T
   4    -26.5517819 -0.411406E-06  0.143E-03    4.24      18.1  T
   5    -26.5517820 -0.207971E-07  0.698E-04    4.24      37.0  T
   6    -26.5517820 -0.153059E-08  0.335E-04    4.24      77.2  T
     SCC iter.                  ...        0 min,  0.614 sec
     gradient                   ...        0 min,  0.197 sec
 * total energy  :   -26.1685885 Eh     change       -0.8061997E-04 Eh
   gradient norm :     0.0034136 Eh/α   predicted    -0.5752845E-04 ( -28.64%)
   displ. norm   :     0.0462010 α      lambda       -0.5146101E-04
   maximum displ.:     0.0314663 α      in ANC's #1, #16, #6, ...

........................................................................
.............................. CYCLE    5 ..............................
........................................................................
   1    -26.5505773 -0.265506E+02  0.306E-02    4.24       0.0  T
   2    -26.5505776 -0.335444E-06  0.181E-02    4.23       1.4  T
   3    -26.5505774  0.175718E-06  0.532E-03    4.23       4.9  T
   4    -26.5505777 -0.263539E-06  0.100E-03    4.23      25.8  T
   5    -26.5505777 -0.540059E-08  0.582E-04    4.23      44.4  T
   6    -26.5505777 -0.112336E-08  0.213E-04    4.23     121.0  T
     SCC iter.                  ...        0 min,  0.652 sec
     gradient                   ...        0 min,  0.172 sec
 * total energy  :   -26.1686158 Eh     change       -0.2727980E-04 Eh
   gradient norm :     0.0022439 Eh/α   predicted    -0.2578504E-04 (  -5.48%)
   displ. norm   :     0.0092393 α      lambda       -0.3463620E-05
   maximum displ.:     0.0079938 α      in ANC's #1, #9, #16, ...

........................................................................
.............................. CYCLE    6 ..............................
........................................................................
   1    -26.5503253 -0.265503E+02  0.728E-03    4.23       0.0  T
   2    -26.5503253 -0.725764E-08  0.433E-03    4.23       6.0  T
   3    -26.5503253  0.441973E-08  0.633E-04    4.23      40.8  T
   4    -26.5503253 -0.593216E-08  0.166E-04    4.23     155.2  T
     SCC iter.                  ...        0 min,  0.422 sec
     gradient                   ...        0 min,  0.200 sec
 * total energy  :   -26.1686175 Eh     change       -0.1664345E-05 Eh
   gradient norm :     0.0012088 Eh/α   predicted    -0.1730826E-05 (   3.99%)
   displ. norm   :     0.0089353 α      lambda       -0.8442686E-06
   maximum displ.:     0.0080491 α      in ANC's #1, #2, #9, ...

........................................................................
.............................. CYCLE    7 ..............................
........................................................................
   1    -26.5502829 -0.265503E+02  0.633E-03    4.23       0.0  T
   2    -26.5502829 -0.105405E-07  0.374E-03    4.23       6.9  T
   3    -26.5502829  0.654480E-08  0.824E-04    4.23      31.3  T
   4    -26.5502829 -0.855004E-08  0.198E-04    4.23     130.4  T
     SCC iter.                  ...        0 min,  0.495 sec
     gradient                   ...        0 min,  0.199 sec
 * total energy  :   -26.1686181 Eh     change       -0.6380162E-06 Eh
   gradient norm :     0.0004528 Eh/α   predicted    -0.4203671E-06 ( -34.11%)
   displ. norm   :     0.0037476 α      lambda       -0.1789647E-06
   maximum displ.:     0.0034992 α      in ANC's #1, #16, #19, ...

   *** GEOMETRY OPTIMIZATION CONVERGED AFTER 7 ITERATIONS ***

------------------------------------------------------------------------
 total energy gain   :        -0.0056476 Eh       -3.5439 kcal/mol
 total RMSD          :         0.0782540 a0        0.0414 Å
 total power (kW/mol):        -2.1182456 (step)   -2.2697 (real)
------------------------------------------------------------------------

 ANCopt (total)                0 d,  0 h,  0 min,  6.533 sec
 optimizer setup                ...        0 min,  0.000 sec (  0.004%)
 model hessian                  ...        0 min,  0.002 sec (  0.034%)
 ANC generation                 ...        0 min,  0.001 sec (  0.009%)
 coordinate transformation      ...        0 min,  0.000 sec (  0.003%)
 single point calculation       ...        0 min,  6.424 sec ( 98.335%)
 optimization log               ...        0 min,  0.012 sec (  0.184%)
 hessian update                 ...        0 min,  0.091 sec (  1.393%)
 rational function              ...        0 min,  0.001 sec (  0.021%)

================
 final structure:
================
15
 xtb: 6.5.0 (97a52f5)
C            0.86215476370900       -0.74721368884862       -0.27400833948918
C           -0.23112481517537        0.06863654901901       -0.00771518959963
C           -1.59291380231961       -0.51676481775665        0.11545202877702
O           -1.67261840293952       -1.40363945901467        1.11789437963834
C           -0.07155276457421        1.44841158259758        0.05366246336747
O           -2.53800944413743       -0.22164756409463       -0.56680432302665
C            2.11403587958908       -0.18406787202468       -0.44653695816907
C            2.27745650310671        1.18837099372865       -0.35726607714822
H            0.72901909279682       -1.81663339730601       -0.33931005389266
C            1.18529877477502        2.00295603836849       -0.10632117146447
H           -0.93186900083820        2.07483033061658        0.23511044304941
H            1.31172127215860        3.07352779529971       -0.04381571531635
H           -2.57000484189284       -1.76929072041574        1.17578718147364
H            2.96346495312116       -0.81787143752270       -0.65370725075775
H            3.25667883262079        1.62453065735368       -0.48888441744191

 Bond Distances (Angstroems)
 ---------------------------
C1-C2=1.3899         C1-C7=1.3835         C1-H9=1.0797         C2-C1=1.3899         C2-C3=1.4874         C2-C5=1.3903         
C3-C2=1.4874         C3-O4=1.3408         C3-O6=1.2024         O4-C3=1.3408         O4-H13=0.9707        C5-C2=1.3903         
C5-C10=1.3830        C5-H11=1.0796        O6-C3=1.2024         C7-C1=1.3835         C7-C8=1.3850         C7-H14=1.0799        
C8-C7=1.3850         C8-C10=1.3854        C8-H15=1.0800        H9-C1=1.0797         C10-C5=1.3830        C10-C8=1.3854        
C10-H12=1.0798       H11-C5=1.0796        H12-C10=1.0798       H13-O4=0.9707        H14-C7=1.0799        H15-C8=1.0800        
 C  H  Rav=1.0798 sigma=0.0002  Rmin=1.0796  Rmax=1.0800     5
 C  C  Rav=1.4007 sigma=0.0355  Rmin=1.3830  Rmax=1.4874     7
 O  H  Rav=0.9707 sigma=0.0000  Rmin=0.9707  Rmax=0.9707     1
 O  C  Rav=1.2716 sigma=0.0692  Rmin=1.2024  Rmax=1.3408     2

 selected bond angles (degree)
 --------------------
C7-C1-C2=119.78                H9-C1-C2=119.74                H9-C1-C7=120.48                C3-C2-C1=120.33                
C5-C2-C1=120.05                C5-C2-C3=119.47                O4-C3-C2=112.13                O6-C3-C2=125.17                
O6-C3-O4=122.67                H13-O4-C3=110.41               C10-C5-C2=119.81               H11-C5-C2=119.46               
H11-C5-C10=120.73              C8-C7-C1=120.14                H14-C7-C1=119.79               H14-C7-C8=120.08               
C10-C8-C7=120.09               H15-C8-C7=119.95               H15-C8-C10=119.96              C8-C10-C5=120.11               
H12-C10-C5=119.82              H12-C10-C8=120.07              

 selected dihedral angles (degree)
 ---------------------------------
C3-C2-C1-C7=177.07            C3-C2-C1-H9=356.73            C5-C2-C1-C7=  1.51            C5-C2-C1-H9=181.17            
O4-C3-C2-C1= 60.93            O4-C3-C2-C5=236.52            O6-C3-C2-C1=239.06            O6-C3-C2-C5= 54.65            
H13-O4-C3-C2=179.99           H13-O4-C3-O6=  1.81           C10-C5-C2-C1=357.83           C10-C5-C2-C3=182.23           
H11-C5-C2-C1=178.38           H11-C5-C2-C3=  2.78           C8-C7-C1-C2=359.86            C8-C7-C1-H9=180.20            
H14-C7-C1-C2=180.02           H14-C7-C1-H9=  0.36           C10-C8-C7-C1=359.44           C10-C8-C7-H14=179.28          
H15-C8-C7-C1=179.78           H15-C8-C7-H14=359.62          C8-C10-C5-C2=  1.46           C8-C10-C5-H11=180.91          
H12-C10-C5-C2=180.92          H12-C10-C5-H11=  0.36         C5-C10-C8-C7=359.90           C5-C10-C8-H15=179.56          
H12-C10-C8-C7=180.44          H12-C10-C8-H15=  0.10         
           -------------------------------------------------
          |                Final Singlepoint                |
           -------------------------------------------------

          ...................................................
          :                      SETUP                      :
          :.................................................:
          :  # basis functions                  42          :
          :  # atomic orbitals                  42          :
          :  # shells                           24          :
          :  # electrons                        46          :
          :  max. iterations                   250          :
          :  Hamiltonian                  GFN2-xTB          :
          :  restarted?                      false          :
          :  GBSA solvation                  false          :
          :  PC potential                    false          :
          :  electronic temp.          300.0000000     K    :
          :  accuracy                    1.0000000          :
          :  -> integral cutoff          0.2500000E+02      :
          :  -> integral neglect         0.1000000E-07      :
          :  -> SCF convergence          0.1000000E-05 Eh   :
          :  -> wf. convergence          0.1000000E-03 e    :
          :  Broyden damping             0.4000000          :
          ...................................................

 iter      E             dE          RMSdq      gap      omega  full diag
   1    -26.5502829 -0.265503E+02  0.892E-05    4.23       0.0  T
   2    -26.5502829 -0.202114E-10  0.541E-05    4.23     477.3  T
   3    -26.5502829 -0.787281E-11  0.333E-05    4.23     775.0  T

   *** convergence criteria satisfied after 3 iterations ***

         #    Occupation            Energy/Eh            Energy/eV
      -------------------------------------------------------------
         1        2.0000           -0.7478474             -20.3500
       ...           ...                  ...                  ...
        17        2.0000           -0.4904761             -13.3465
        18        2.0000           -0.4787752             -13.0281
        19        2.0000           -0.4538519             -12.3499
        20        2.0000           -0.4362446             -11.8708
        21        2.0000           -0.4208125             -11.4509
        22        2.0000           -0.4189506             -11.4002
        23        2.0000           -0.4155925             -11.3088 (HOMO)
        24                         -0.2600360              -7.0759 (LUMO)
        25                         -0.2369122              -6.4467
        26                         -0.2158869              -5.8746
        27                         -0.1061542              -2.8886
        28                          0.0547829               1.4907
       ...                                ...                  ...
        42                          0.6687430              18.1974
      -------------------------------------------------------------
                  HL-Gap            0.1555565 Eh            4.2329 eV
             Fermi-level           -0.3378143 Eh           -9.1924 eV

 SCC (total)                   0 d,  0 h,  0 min,  0.645 sec
 SCC setup                      ...        0 min,  0.016 sec (  2.479%)
 Dispersion                     ...        0 min,  0.036 sec (  5.524%)
 classical contributions        ...        0 min,  0.020 sec (  3.141%)
 integral evaluation            ...        0 min,  0.061 sec (  9.465%)
 iterations                     ...        0 min,  0.318 sec ( 49.294%)
 molecular gradient             ...        0 min,  0.194 sec ( 30.027%)
 printout                       ...        0 min,  0.000 sec (  0.025%)

         :::::::::::::::::::::::::::::::::::::::::::::::::::::
         ::                     SUMMARY                     ::
         :::::::::::::::::::::::::::::::::::::::::::::::::::::
         :: total energy             -26.168618117998 Eh    ::
         :: gradient norm              0.000452256406 Eh/a0 ::
         :: HOMO-LUMO gap              4.232907297207 eV    ::
         ::.................................................::
         :: SCC energy               -26.550282867737 Eh    ::
         :: -> isotropic ES            0.048274190835 Eh    ::
         :: -> anisotropic ES          0.001405208927 Eh    ::
         :: -> anisotropic XC          0.008609280432 Eh    ::
         :: -> dispersion             -0.011795580298 Eh    ::
         :: repulsion energy           0.381642099610 Eh    ::
         :: add. restraining           0.000003695580 Eh    ::
         :: total charge               0.000000000000 e     ::
         :::::::::::::::::::::::::::::::::::::::::::::::::::::

           -------------------------------------------------
          |                Property Printout                |
           -------------------------------------------------

    * Orbital Energies and Occupations

         #    Occupation            Energy/Eh            Energy/eV
      -------------------------------------------------------------
         1        2.0000           -0.7478474             -20.3500
       ...           ...                  ...                  ...
        11        2.0000           -0.5650628             -15.3761
        12        2.0000           -0.5342053             -14.5365
        13        2.0000           -0.5083345             -13.8325
        14        2.0000           -0.5048906             -13.7388
        15        2.0000           -0.4943262             -13.4513
        16        2.0000           -0.4908761             -13.3574
        17        2.0000           -0.4904761             -13.3465
        18        2.0000           -0.4787752             -13.0281
        19        2.0000           -0.4538519             -12.3499
        20        2.0000           -0.4362446             -11.8708
        21        2.0000           -0.4208125             -11.4509
        22        2.0000           -0.4189506             -11.4002
        23        2.0000           -0.4155925             -11.3088 (HOMO)
        24                         -0.2600360              -7.0759 (LUMO)
        25                         -0.2369122              -6.4467
        26                         -0.2158869              -5.8746
        27                         -0.1061542              -2.8886
        28                          0.0547829               1.4907
        29                          0.1152549               3.1362
        30                          0.1274339               3.4677
        31                          0.1608165               4.3760
        32                          0.1626670               4.4264
        33                          0.1810449               4.9265
        34                          0.1930714               5.2537
       ...                                ...                  ...
        42                          0.6687430              18.1974
      -------------------------------------------------------------
                  HL-Gap            0.1555565 Eh            4.2329 eV
             Fermi-level           -0.3378143 Eh           -9.1924 eV

     #   Z          covCN         q      C6AA      α(0)
     1   6 C        2.922    -0.021    28.520     8.758
     2   6 C        2.974    -0.011    28.283     8.724
     3   6 C        2.696     0.361    20.879     7.478
     4   8 O        1.660    -0.376    20.390     6.096
     5   6 C        2.923    -0.020    28.504     8.755
     6   8 O        0.856    -0.406    21.801     6.260
     7   6 C        2.920    -0.025    28.633     8.775
     8   6 C        2.920    -0.024    28.602     8.770
     9   1 H        0.926     0.044     2.390     2.418
    10   6 C        2.920    -0.025    28.616     8.772
    11   1 H        0.926     0.047     2.351     2.398
    12   1 H        0.926     0.043     2.411     2.428
    13   1 H        0.804     0.329     0.641     1.258
    14   1 H        0.926     0.042     2.423     2.434
    15   1 H        0.926     0.041     2.435     2.440

 Mol. C6AA /au·bohr⁶  :       2940.230910
 Mol. C8AA /au·bohr⁸  :      71469.142919
 Mol. α(0) /au        :         85.763932


Wiberg/Mayer (AO) data.
largest (>0.10) Wiberg bond orders for each atom

 ---------------------------------------------------------------------------
     #   Z sym  total        # sym  WBO       # sym  WBO       # sym  WBO
 ---------------------------------------------------------------------------
     1   6 C    3.991 --     7 C    1.444     2 C    1.401     9 H    0.970
                            10 C    0.111
     2   6 C    3.988 --     1 C    1.401     5 C    1.399     3 C    0.976
                             8 C    0.109
     3   6 C    3.911 --     6 O    1.762     4 O    1.127     2 C    0.976
     4   8 O    2.201 --     3 C    1.127    13 H    0.866     6 O    0.176
     5   6 C    3.990 --    10 C    1.447     2 C    1.399    11 H    0.969
                             7 C    0.112
     6   8 O    2.044 --     3 C    1.762     4 O    0.176
     7   6 C    3.992 --     1 C    1.444     8 C    1.439    14 H    0.970
                             5 C    0.112
     8   6 C    3.992 --     7 C    1.439    10 C    1.437    15 H    0.971
                             2 C    0.109
     9   1 H    0.998 --     1 C    0.970
    10   6 C    3.992 --     5 C    1.447     8 C    1.437    12 H    0.970
                             1 C    0.111
    11   1 H    0.998 --     5 C    0.969
    12   1 H    0.998 --    10 C    0.970
    13   1 H    0.891 --     4 O    0.866
    14   1 H    0.998 --     7 C    0.970
    15   1 H    0.998 --     8 C    0.971
 ---------------------------------------------------------------------------

Topologies differ in total number of bonds
Writing topology from bond orders to xtbtopo.mol

molecular dipole:
                 x           y           z       tot (Debye)
 q only:        0.741      -0.104       0.400
   full:        0.635      -0.212       0.459       2.064
molecular quadrupole (traceless):
                xx          xy          yy          xz          yz          zz
 q only:       -1.443       3.853       3.898      -5.673      -0.663      -2.454
  q+dip:        0.541       4.992       6.184      -7.968       0.416      -6.725
   full:       -0.997       4.873       5.047      -7.496       0.344      -4.050

           -------------------------------------------------
          |                Geometry Summary                 |
           -------------------------------------------------

      molecular mass/u    :      122.1216056
   center of mass at/Å    :       -0.0655225       0.1272767      -0.0293347
  moments of inertia/u·Å² :        0.1288504E+03   0.4329147E+03   0.5117421E+03
rotational constants/cm⁻¹ :        0.1308311E+00   0.3893985E-01   0.3294166E-01

 * 14 selected distances

     #   Z          #   Z                                           value/Å
     1   6 C        2   6 C                                       1.3898864
     3   6 C        4   8 O                                       1.3408171
     2   6 C        5   6 C                                       1.3903273 (max)
     3   6 C        6   8 O                                       1.2024034
     1   6 C        7   6 C                                       1.3835122
     7   6 C        8   6 C                                       1.3850142
     1   6 C        9   1 H                                       1.0796519
     5   6 C       10   6 C                                       1.3830367
     8   6 C       10   6 C                                       1.3853992
     5   6 C       11   1 H                                       1.0795685
    10   6 C       12   1 H                                       1.0798211
     4   8 O       13   1 H                                       0.9707497 (min)
     7   6 C       14   1 H                                       1.0798872
     8   6 C       15   1 H                                       1.0800163

 * 4 distinct bonds (by element types)

   Z      Z             #   av. dist./Å        max./Å        min./Å
   1 H    6 C           5     1.0797890     1.0800163     1.0795685
   6 C    6 C           6     1.3861960     1.3903273     1.3830367
   1 H    8 O           1     0.9707497     0.9707497     0.9707497
   6 C    8 O           2     1.2716102     1.3408171     1.2024034


optimized geometry written to: xtbopt.xyz


           -------------------------------------------------
          | TOTAL ENERGY              -26.168618117998 Eh   |
          | GRADIENT NORM               0.000452256406 Eh/α |
          | HOMO-LUMO GAP               4.232907297207 eV   |
           -------------------------------------------------
########################################################################
[WARNING] Runtime exception occurred
-1- restart_readRestart: Number of electron missmatch in restart file.
########################################################################

------------------------------------------------------------------------
 * finished run on 2023/11/18 at 08:15:26.993     
------------------------------------------------------------------------
 total:
 * wall-time:     0 d,  0 h,  0 min,  9.074 sec
 *  cpu-time:     0 d,  0 h,  5 min,  2.563 sec
 * ratio c/w:    33.346 speedup
 SCF:
 * wall-time:     0 d,  0 h,  0 min,  1.643 sec
 *  cpu-time:     0 d,  0 h,  0 min, 53.181 sec
 * ratio c/w:    32.360 speedup
 ANC optimizer:
 * wall-time:     0 d,  0 h,  0 min,  7.214 sec
 *  cpu-time:     0 d,  0 h,  4 min,  3.283 sec
 * ratio c/w:    33.724 speedup

