15
 energy: -26.168758968267 gnorm: 0.000426951349 xtb: 6.5.0 (97a52f5)
C            0.89750334991678       -0.76228199196004       -0.49251379665661
C           -0.20702422657647       -0.01457602984717       -0.10021139249332
C           -1.52170873237745       -0.69077222875935        0.06407818459621
O           -1.99970299604883       -0.55507065052999        1.30948857217899
C           -0.06507818209918        1.33667691009711        0.19293891548255
O           -2.09139766309286       -1.32538778487755       -0.78385409239954
C            2.13334890877138       -0.15258161300218       -0.61126894350124
C            2.27025612352624        1.19902561340455       -0.34023692904171
H            0.77713234948212       -1.81306648702197       -0.70919132024616
C            1.17146531378999        1.94222921232387        0.05880498856310
H           -0.92339953371333        1.90842603820006        0.51220073637560
H            1.27971012395472        2.99506246832060        0.27352474288916
H           -2.85643821351011       -1.00368267173195        1.39255687335504
H            2.99147698437574       -0.73340530462828       -0.91508038512366
H            3.23559241360125        1.67353752001226       -0.43769714397842
