
    -----------------------------------------------------------------------
          Psi4: An Open-Source Ab Initio Electronic Structure Package
                               Psi4 1.5 release

                         Git: Rev {HEAD} e9f4d6d 


    D. G. A. Smith, L. A. Burns, A. C. Simmonett, R. M. Parrish,
    M. C. Schieber, R. Galvelis, P. Kraus, H. Kruse, R. Di Remigio,
    A. Alenaizan, A. M. James, S. Lehtola, J. P. Misiewicz, M. Scheurer,
    R. A. Shaw, J. B. Schriber, Y. Xie, Z. L. Glick, D. A. Sirianni,
    J. S. O'Brien, J. M. Waldrop, A. Kumar, E. G. Hohenstein,
    B. P. Pritchard, B. R. Brooks, H. F. Schaefer III, A. Yu. Sokolov,
    K. Patkowski, A. E. DePrince III, U. Bozkaya, R. A. King,
    F. A. Evangelista, J. M. Turney, T. D. Crawford, C. D. Sherrill,
    J. Chem. Phys. 152(18) 184108 (2020). https://doi.org/10.1063/5.0006002

                            Additional Code Authors
    E. T. Seidl, C. L. Janssen, E. F. Valeev, M. L. Leininger,
    J. F. Gonthier, R. M. Richard, H. R. McAlexander, M. Saitow, X. Wang,
    P. Verma, M. H. Lechner, and A. Jiang

             Previous Authors, Complete List of Code Contributors,
                       and Citations for Specific Modules
    https://github.com/psi4/psi4/blob/master/codemeta.json
    https://github.com/psi4/psi4/graphs/contributors
    http://psicode.org/psi4manual/master/introduction.html#citing-psifour

    -----------------------------------------------------------------------


    Psi4 started on: Thursday, 09 June 2022 06:07AM

    Process ID: 1292667
    Host:       node74.bme.utexas.edu
    PSIDATADIR: /home/bdw2292/miniconda3/envs/newamoebamdpoltype/share/psi4
    Memory:     500.0 MiB
    Threads:    1
    
  ==> Input File <==

--------------------------------------------------------------------------
molecule { 
0 1
 C   -0.100807   -0.371223    0.579031
 N    0.706819   -1.268764   -0.086884
 C    1.290197   -1.282693   -1.378597
 C    1.502384   -2.548193   -1.948320
 H    0.938234   -2.086594    0.452076
 C    1.702007   -0.150181   -2.084568
 C   -0.258466   -0.499694    1.933087
 N   -0.938210   -0.152446    4.075388
 C    0.352466   -1.493721    2.819045
 C   -1.101565    0.364704    2.791106
 C   -0.073327   -1.249182    4.075867
 C   -0.692536    0.793107   -0.144936
 C   -2.058473    0.804950   -0.427501
 C    0.040301    1.973526   -0.298650
 C   -2.657988    1.939707   -0.964051
 C   -0.557985    3.111294   -0.827785
 C   -1.907125    3.091966   -1.175090
 C    2.111058   -2.677951   -3.189534
 C    2.292032   -0.288490   -3.339442
 C    2.504776   -1.544280   -3.899006
 H    1.170681   -3.431222   -1.415943
 H    1.571049    0.833131   -1.673540
 H   -1.396459    0.245386    4.871755
 O   -1.820890    1.345968    2.527467
 H   -2.650857   -0.076210   -0.223582
 H    1.069627    2.011471    0.033711
 H   -3.715156    1.931400   -1.190330
 H    0.020963    4.017316   -0.944492
 H   -2.375323    3.978708   -1.580223
 H    2.265139   -3.663639   -3.606970
 H    2.596991    0.601415   -3.872959
 H    1.054173   -2.266251    2.553207
 H    0.173738   -1.755793    4.992028
 H    2.970055   -1.640020   -4.869850
}
memory 8.166666666666666GB
set_num_threads(2)
psi4_io.set_default_path("/scratch/bdw2292/Psi4-1_16_Index_0-farH_in17")
set freeze_core True
E, wfn = energy('wb97x-d/6-311+G*',return_wfn=True)
oeprop(wfn,"WIBERG_LOWDIN_INDICES")
clean()
--------------------------------------------------------------------------

  Memory set to   7.606 GiB by Python driver.
  Threads set to 2 by Python driver.

Scratch directory: /scratch/bdw2292/Psi4-1_16_Index_0-farH_in17/

Scratch directory: /scratch/bdw2292/Psi4-1_16_Index_0-farH_in17/

*** tstart() called on node74.bme.utexas.edu
*** at Thu Jun  9 06:07:17 2022

   => Loading Basis Set <=

    Name: 6-311+G*
    Role: ORBITAL
    Keyword: BASIS
    atoms 1, 3-4, 6-7, 9-20 entry C          line   130 file /home/bdw2292/miniconda3/envs/newamoebamdpoltype/share/psi4/basis/6-311pgs.gbs 
    atoms 2, 8              entry N          line   151 file /home/bdw2292/miniconda3/envs/newamoebamdpoltype/share/psi4/basis/6-311pgs.gbs 
    atoms 5, 21-23, 25-34   entry H          line    47 file /home/bdw2292/miniconda3/envs/newamoebamdpoltype/share/psi4/basis/6-311pgs.gbs 
    atoms 24                entry O          line   172 file /home/bdw2292/miniconda3/envs/newamoebamdpoltype/share/psi4/basis/6-311pgs.gbs 

   => WB97X-D: Empirical Dispersion <=

    Chai and Head-Gordon Dispersion Correction
    Chai, J.-D.; Head-Gordon, M. (2010), J. Chem. Phys., 132: 6615-6620

        s6 =       1.000000


         ---------------------------------------------------------
                                   SCF
               by Justin Turney, Rob Parrish, Andy Simmonett
                          and Daniel G. A. Smith
                              RKS Reference
                        2 Threads,   7788 MiB Core
         ---------------------------------------------------------

  ==> Geometry <==

    Molecular point group: c1
    Full point group: C1

    Geometry (in Angstrom), charge = 0, multiplicity = 1:

       Center              X                  Y                   Z               Mass       
    ------------   -----------------  -----------------  -----------------  -----------------
         C           -0.100806902067    -0.371223018445     0.579030894748    12.000000000000
         N            0.706819097933    -1.268764018445    -0.086884105252    14.003074004430
         C            1.290197097933    -1.282693018445    -1.378597105252    12.000000000000
         C            1.502384097933    -2.548193018445    -1.948320105252    12.000000000000
         H            0.938234097933    -2.086594018445     0.452075894748     1.007825032230
         C            1.702007097933    -0.150181018445    -2.084568105252    12.000000000000
         C           -0.258465902067    -0.499694018445     1.933086894748    12.000000000000
         N           -0.938209902067    -0.152446018445     4.075387894748    14.003074004430
         C            0.352466097933    -1.493721018445     2.819044894748    12.000000000000
         C           -1.101564902067     0.364703981555     2.791105894748    12.000000000000
         C           -0.073326902067    -1.249182018445     4.075866894748    12.000000000000
         C           -0.692535902067     0.793106981555    -0.144936105252    12.000000000000
         C           -2.058472902067     0.804949981555    -0.427501105252    12.000000000000
         C            0.040301097933     1.973525981555    -0.298650105252    12.000000000000
         C           -2.657987902067     1.939706981555    -0.964051105252    12.000000000000
         C           -0.557984902067     3.111293981555    -0.827785105252    12.000000000000
         C           -1.907124902067     3.091965981555    -1.175090105252    12.000000000000
         C            2.111058097933    -2.677951018445    -3.189534105252    12.000000000000
         C            2.292032097933    -0.288490018445    -3.339442105252    12.000000000000
         C            2.504776097933    -1.544280018445    -3.899006105252    12.000000000000
         H            1.170681097933    -3.431222018445    -1.415943105252     1.007825032230
         H            1.571049097933     0.833130981555    -1.673540105252     1.007825032230
         H           -1.396458902067     0.245385981555     4.871754894748     1.007825032230
         O           -1.820889902067     1.345967981555     2.527466894748    15.994914619570
         H           -2.650856902067    -0.076210018445    -0.223582105252     1.007825032230
         H            1.069627097933     2.011470981555     0.033710894748     1.007825032230
         H           -3.715155902067     1.931399981555    -1.190330105252     1.007825032230
         H            0.020963097933     4.017315981555    -0.944492105252     1.007825032230
         H           -2.375322902067     3.978707981555    -1.580223105252     1.007825032230
         H            2.265139097933    -3.663639018445    -3.606970105252     1.007825032230
         H            2.596991097933     0.601414981555    -3.872959105252     1.007825032230
         H            1.054173097933    -2.266251018445     2.553206894748     1.007825032230
         H            0.173738097933    -1.755793018445     4.992027894748     1.007825032230
         H            2.970055097933    -1.640020018445    -4.869850105252     1.007825032230

  Running in c1 symmetry.

  Rotational constants: A =      0.01630  B =      0.00879  C =      0.00621 [cm^-1]
  Rotational constants: A =    488.53387  B =    263.37188  C =    186.23438 [MHz]
  Nuclear repulsion = 1419.328949920801278

  Charge       = 0
  Multiplicity = 1
  Electrons    = 138
  Nalpha       = 69
  Nbeta        = 69

  ==> Algorithm <==

  SCF Algorithm Type is DF.
  DIIS enabled.
  MOM disabled.
  Fractional occupation disabled.
  Guess Type is SAD.
  Energy threshold   = 1.00e-06
  Density threshold  = 1.00e-06
  Integral threshold = 1.00e-12

  ==> Primary Basis <==

  Basis Set: 6-311+G*
    Blend: 6-311+G*
    Number of shells: 242
    Number of basis functions: 482
    Number of Cartesian functions: 502
    Spherical Harmonics?: true
    Max angular momentum: 2

  ==> DFT Potential <==

   => LibXC <=

    Version 5.1.5
    S. Lehtola, C. Steigemann, M. J. Oliveira, and M. A. Marques, SoftwareX 7, 1 (2018) (10.1016/j.softx.2017.11.002)

   => Composite Functional: WB97X-D <= 

    wB97X-D Hyb-GGA Exchange-Correlation Functional

    J.-D. Chai and M. Head-Gordon, Phys. Chem. Chem. Phys. 10, 6615 (2008) (10.1039/B810189B)

    Deriv               =              1
    GGA                 =           TRUE
    Meta                =          FALSE

    Exchange Hybrid     =           TRUE
    MP2 Hybrid          =          FALSE

   => Exchange-Correlation Functionals <=

    1.0000   wB97X-D range-separated functional

   => Exact (HF) Exchange <=

    0.7780            HF,LR [omega = 0.2000]
    0.2220               HF 

   => LibXC Density Thresholds  <==

    XC_HYB_GGA_XC_WB97X_D:  1.00E-14 

   => Molecular Quadrature <=

    Radial Scheme          =       TREUTLER
    Pruning Scheme         =           NONE
    Nuclear Scheme         =       TREUTLER

    BS radius alpha        =              1
    Pruning alpha          =              1
    Radial Points          =             75
    Spherical Points       =            302
    Total Points           =         703948
    Total Blocks           =           5066
    Max Points             =            256
    Max Functions          =            378
    Weights Tolerance      =       1.00E-15

   => Loading Basis Set <=

    Name: (6-311+G* AUX)
    Role: JKFIT
    Keyword: DF_BASIS_SCF
    atoms 1, 3-4, 6-7, 9-20 entry C          line   200 file /home/bdw2292/miniconda3/envs/newamoebamdpoltype/share/psi4/basis/heavy-aug-cc-pvtz-jkfit.gbs 
    atoms 2, 8              entry N          line   262 file /home/bdw2292/miniconda3/envs/newamoebamdpoltype/share/psi4/basis/heavy-aug-cc-pvtz-jkfit.gbs 
    atoms 5, 21-23, 25-34   entry H          line   116 file /home/bdw2292/miniconda3/envs/newamoebamdpoltype/share/psi4/basis/heavy-aug-cc-pvtz-jkfit.gbs 
    atoms 24                entry O          line   324 file /home/bdw2292/miniconda3/envs/newamoebamdpoltype/share/psi4/basis/heavy-aug-cc-pvtz-jkfit.gbs 

  ==> Integral Setup <==

  ==> DiskDFJK: Density-Fitted J/K Matrices <==

    J tasked:                  Yes
    K tasked:                  Yes
    wK tasked:                 Yes
    Omega:               2.000E-01
    OpenMP threads:              2
    Integrals threads:           2
    Memory [MiB]:             1953
    Algorithm:                Disk
    Integral Cache:           NONE
    Schwarz Cutoff:          1E-12
    Fitting Condition:       1E-10

   => Auxiliary Basis Set <=

  Basis Set: (6-311+G* AUX)
    Blend: HEAVY-AUG-CC-PVTZ-JKFIT
    Number of shells: 740
    Number of basis functions: 2500
    Number of Cartesian functions: 3110
    Spherical Harmonics?: true
    Max angular momentum: 4

  Cached 50.0% of DFT collocation blocks in 2.684 [GiB].

  Minimum eigenvalue in the overlap matrix is 4.5076205758E-07.
  Reciprocal condition number of the overlap matrix is 2.6783575356E-08.
    Using symmetric orthogonalization.

  ==> Pre-Iterations <==

  SCF Guess: Superposition of Atomic Densities via on-the-fly atomic UHF (no occupation information).

   -------------------------
    Irrep   Nso     Nmo    
   -------------------------
     A        482     482 
   -------------------------
    Total     482     482
   -------------------------

  ==> Iterations <==

                           Total Energy        Delta E     RMS |[F,P]|

   @DF-RKS iter SAD:  -840.30741287353464   -8.40307e+02   0.00000e+00 
   @DF-RKS iter   1:  -840.00766520050536    2.99748e-01   2.68712e-03 DIIS
   @DF-RKS iter   2:  -840.33765582600449   -3.29991e-01   2.24996e-03 DIIS
   @DF-RKS iter   3:  -840.82491346264464   -4.87258e-01   4.99893e-04 DIIS
   @DF-RKS iter   4:  -840.84482768633507   -1.99142e-02   1.65485e-04 DIIS
   @DF-RKS iter   5:  -840.84732968283265   -2.50200e-03   3.67664e-05 DIIS
   @DF-RKS iter   6:  -840.84746630593111   -1.36623e-04   1.37282e-05 DIIS
   @DF-RKS iter   7:  -840.84748765103825   -2.13451e-05   4.14678e-06 DIIS
   @DF-RKS iter   8:  -840.84749011603174   -2.46499e-06   1.73952e-06 DIIS
   @DF-RKS iter   9:  -840.84749083492784   -7.18896e-07   6.18945e-07 DIIS
  Energy and wave function converged.


  ==> Post-Iterations <==

   Electrons on quadrature grid:
      Ntotal   =  138.0000096449 ; deviation = 9.645e-06 

    Orbital Energies [Eh]
    ---------------------

    Doubly Occupied:                                                      

       1A    -19.196603     2A    -14.483925     3A    -14.461385  
       4A    -10.379292     5A    -10.365415     6A    -10.349152  
       7A    -10.325674     8A    -10.304094     9A    -10.299985  
      10A    -10.299388    11A    -10.298030    12A    -10.294826  
      13A    -10.293144    14A    -10.292520    15A    -10.289578  
      16A    -10.289308    17A    -10.288477    18A    -10.287912  
      19A    -10.285678    20A    -10.283755    21A     -1.119407  
      22A     -1.077063    23A     -1.046161    24A     -0.972448  
      25A     -0.960944    26A     -0.909419    27A     -0.869124  
      28A     -0.860084    29A     -0.851940    30A     -0.848898  
      31A     -0.815699    32A     -0.768174    33A     -0.727393  
      34A     -0.719335    35A     -0.703422    36A     -0.694285  
      37A     -0.682583    38A     -0.662035    39A     -0.641181  
      40A     -0.615060    41A     -0.600351    42A     -0.592269  
      43A     -0.566583    44A     -0.552480    45A     -0.547578  
      46A     -0.544130    47A     -0.532941    48A     -0.520875  
      49A     -0.519133    50A     -0.517778    51A     -0.517601  
      52A     -0.508665    53A     -0.492477    54A     -0.489355  
      55A     -0.480353    56A     -0.458807    57A     -0.452188  
      58A     -0.447731    59A     -0.435509    60A     -0.429874  
      61A     -0.425882    62A     -0.404489    63A     -0.362125  
      64A     -0.343242    65A     -0.338732    66A     -0.327656  
      67A     -0.315726    68A     -0.313640    69A     -0.259748  

    Virtual:                                                              

      70A      0.006345    71A      0.040766    72A      0.048882  
      73A      0.053029    74A      0.058399    75A      0.061694  
      76A      0.063803    77A      0.066053    78A      0.071161  
      79A      0.077814    80A      0.085015    81A      0.086725  
      82A      0.091277    83A      0.097867    84A      0.100927  
      85A      0.107861    86A      0.109555    87A      0.113819  
      88A      0.116036    89A      0.118625    90A      0.122562  
      91A      0.127994    92A      0.136361    93A      0.138410  
      94A      0.143357    95A      0.144093    96A      0.151568  
      97A      0.158124    98A      0.160825    99A      0.164556  
     100A      0.173282   101A      0.179336   102A      0.181436  
     103A      0.183207   104A      0.188043   105A      0.189774  
     106A      0.190798   107A      0.192932   108A      0.197599  
     109A      0.200091   110A      0.207201   111A      0.209380  
     112A      0.212885   113A      0.214069   114A      0.218778  
     115A      0.220692   116A      0.224205   117A      0.229199  
     118A      0.230941   119A      0.233162   120A      0.237779  
     121A      0.243706   122A      0.246336   123A      0.247433  
     124A      0.251083   125A      0.254846   126A      0.256464  
     127A      0.259276   128A      0.262119   129A      0.264710  
     130A      0.267741   131A      0.269375   132A      0.272762  
     133A      0.277627   134A      0.279951   135A      0.280966  
     136A      0.284245   137A      0.285545   138A      0.288681  
     139A      0.289788   140A      0.290897   141A      0.295172  
     142A      0.298642   143A      0.299901   144A      0.304926  
     145A      0.311134   146A      0.312495   147A      0.316880  
     148A      0.321091   149A      0.325524   150A      0.327354  
     151A      0.330493   152A      0.335524   153A      0.338112  
     154A      0.339707   155A      0.345481   156A      0.348644  
     157A      0.351230   158A      0.354861   159A      0.360966  
     160A      0.363646   161A      0.368870   162A      0.371927  
     163A      0.376235   164A      0.382860   165A      0.391234  
     166A      0.394573   167A      0.398463   168A      0.399576  
     169A      0.404452   170A      0.408613   171A      0.411195  
     172A      0.413036   173A      0.421592   174A      0.425136  
     175A      0.431209   176A      0.438038   177A      0.445344  
     178A      0.451305   179A      0.451804   180A      0.461534  
     181A      0.466359   182A      0.471476   183A      0.480007  
     184A      0.488209   185A      0.498506   186A      0.500000  
     187A      0.538187   188A      0.552578   189A      0.559530  
     190A      0.575668   191A      0.592981   192A      0.599639  
     193A      0.608344   194A      0.608557   195A      0.612861  
     196A      0.615313   197A      0.621380   198A      0.622742  
     199A      0.627019   200A      0.635585   201A      0.642280  
     202A      0.648572   203A      0.650767   204A      0.658283  
     205A      0.663115   206A      0.670146   207A      0.680101  
     208A      0.684181   209A      0.695091   210A      0.700066  
     211A      0.709630   212A      0.713707   213A      0.718535  
     214A      0.721547   215A      0.732918   216A      0.741202  
     217A      0.746368   218A      0.750627   219A      0.760495  
     220A      0.763689   221A      0.773998   222A      0.778069  
     223A      0.784763   224A      0.786531   225A      0.790913  
     226A      0.797710   227A      0.805360   228A      0.806350  
     229A      0.808119   230A      0.811440   231A      0.819709  
     232A      0.829584   233A      0.832872   234A      0.837989  
     235A      0.845601   236A      0.849692   237A      0.855469  
     238A      0.864865   239A      0.871920   240A      0.877137  
     241A      0.889278   242A      0.893945   243A      0.899783  
     244A      0.905170   245A      0.917076   246A      0.924080  
     247A      0.927122   248A      0.933438   249A      0.935814  
     250A      0.938945   251A      0.944830   252A      0.952432  
     253A      0.955831   254A      0.957510   255A      0.970826  
     256A      0.974666   257A      0.984860   258A      0.993195  
     259A      1.003526   260A      1.011156   261A      1.018253  
     262A      1.029775   263A      1.039063   264A      1.051121  
     265A      1.067155   266A      1.071502   267A      1.077095  
     268A      1.088243   269A      1.100669   270A      1.106554  
     271A      1.110978   272A      1.123417   273A      1.134548  
     274A      1.138716   275A      1.149505   276A      1.164487  
     277A      1.171476   278A      1.184801   279A      1.190197  
     280A      1.211094   281A      1.221460   282A      1.231863  
     283A      1.251431   284A      1.265686   285A      1.279898  
     286A      1.283437   287A      1.295123   288A      1.296370  
     289A      1.304389   290A      1.312861   291A      1.325696  
     292A      1.337606   293A      1.360010   294A      1.360931  
     295A      1.372163   296A      1.396622   297A      1.400414  
     298A      1.405469   299A      1.424761   300A      1.429335  
     301A      1.450791   302A      1.461906   303A      1.477833  
     304A      1.533695   305A      1.568546   306A      1.584547  
     307A      1.601308   308A      1.606551   309A      1.625105  
     310A      1.633421   311A      1.637382   312A      1.643577  
     313A      1.661924   314A      1.671333   315A      1.690269  
     316A      1.721131   317A      1.737702   318A      1.745757  
     319A      1.773154   320A      1.807433   321A      1.827964  
     322A      1.845434   323A      1.852115   324A      1.860700  
     325A      1.862238   326A      1.875565   327A      1.880587  
     328A      1.883394   329A      1.898201   330A      1.910101  
     331A      1.921198   332A      1.924331   333A      1.933745  
     334A      1.937813   335A      1.946239   336A      1.968307  
     337A      1.984451   338A      1.993505   339A      2.002733  
     340A      2.018008   341A      2.024826   342A      2.035568  
     343A      2.038736   344A      2.046271   345A      2.058114  
     346A      2.073755   347A      2.085954   348A      2.092493  
     349A      2.094501   350A      2.108815   351A      2.121374  
     352A      2.131525   353A      2.180419   354A      2.190364  
     355A      2.274199   356A      2.281066   357A      2.285201  
     358A      2.309972   359A      2.327221   360A      2.336413  
     361A      2.359547   362A      2.366149   363A      2.377481  
     364A      2.387513   365A      2.395644   366A      2.401826  
     367A      2.416772   368A      2.432438   369A      2.439548  
     370A      2.449468   371A      2.465844   372A      2.476305  
     373A      2.498229   374A      2.535644   375A      2.538515  
     376A      2.547343   377A      2.549687   378A      2.567213  
     379A      2.616290   380A      2.648376   381A      2.677333  
     382A      2.735035   383A      2.750137   384A      2.765300  
     385A      2.775712   386A      2.778926   387A      2.786981  
     388A      2.842868   389A      2.856242   390A      2.872019  
     391A      2.875591   392A      2.892351   393A      2.902828  
     394A      2.917114   395A      2.927465   396A      2.933212  
     397A      2.946357   398A      2.975738   399A      2.993935  
     400A      3.014683   401A      3.022290   402A      3.028975  
     403A      3.040498   404A      3.042451   405A      3.054604  
     406A      3.088220   407A      3.113175   408A      3.117402  
     409A      3.155434   410A      3.173092   411A      3.189729  
     412A      3.208696   413A      3.230721   414A      3.272062  
     415A      3.280019   416A      3.309864   417A      3.342325  
     418A      3.399344   419A      3.406636   420A      3.412498  
     421A      3.420985   422A      3.427727   423A      3.433631  
     424A      3.439115   425A      3.444821   426A      3.465595  
     427A      3.476898   428A      3.478400   429A      3.507415  
     430A      3.526553   431A      3.547683   432A      3.586245  
     433A      3.623867   434A      3.639663   435A      3.652370  
     436A      3.678837   437A      3.712208   438A      3.745950  
     439A      3.767040   440A      3.782338   441A      3.792907  
     442A      3.895196   443A      3.924891   444A      3.990442  
     445A      4.019535   446A      4.067264   447A      4.100875  
     448A      4.135392   449A      4.152922   450A      4.160150  
     451A      4.234609   452A      4.357782   453A      4.481641  
     454A      4.609844   455A      4.679722   456A      4.889006  
     457A      4.894218   458A      5.127548   459A      5.222692  
     460A      5.242267   461A      5.423874   462A      5.944177  
     463A     23.499829   464A     23.567835   465A     23.710160  
     466A     23.903468   467A     23.983495   468A     23.997951  
     469A     24.012214   470A     24.017449   471A     24.048437  
     472A     24.151186   473A     24.153714   474A     24.178291  
     475A     24.189877   476A     24.261908   477A     24.275423  
     478A     24.278269   479A     24.326657   480A     35.640985  
     481A     35.705596   482A     50.212604  

    Final Occupation by Irrep:
              A 
    DOCC [    69 ]

  @DF-RKS Final Energy:  -840.84749083492784

   => Energetics <=

    Nuclear Repulsion Energy =           1419.3289499208012785
    One-Electron Energy =               -3957.7448189867855035
    Two-Electron Energy =                1780.2666307607310046
    DFT Exchange-Correlation Energy =     -82.6741687017384947
    Empirical Dispersion Energy =          -0.0240838279360976
    VV10 Nonlocal Energy =                  0.0000000000000000
    Total Energy =                       -840.8474908349278394

Computation Completed


Properties will be evaluated at   0.000000,   0.000000,   0.000000 [a0]

Properties computed using the SCF density matrix

  Nuclear Dipole Moment: [e a0]
     X:     3.4539      Y:    -1.2090      Z:    -6.0697

  Electronic Dipole Moment: [e a0]
     X:    -2.6130      Y:     0.2054      Z:     5.9143

  Dipole Moment: [e a0]
     X:     0.8408      Y:    -1.0036      Z:    -0.1554     Total:     1.3185

  Dipole Moment: [D]
     X:     2.1372      Y:    -2.5509      Z:    -0.3949     Total:     3.3512


*** tstop() called on node74.bme.utexas.edu at Thu Jun  9 06:13:46 2022
Module time:
	user time   =     723.86 seconds =      12.06 minutes
	system time =      30.36 seconds =       0.51 minutes
	total time  =        389 seconds =       6.48 minutes
Total time:
	user time   =     723.86 seconds =      12.06 minutes
	system time =      30.36 seconds =       0.51 minutes
	total time  =        389 seconds =       6.48 minutes


Properties will be evaluated at   0.000000,   0.000000,   0.000000 [a0]
OEProp: No title given, name of density matrix used for the following properties is 'SCF density'


  Wiberg Bond Indices using Orthogonal Lowdin Orbitals:

  Irrep: 1 Size: 34 x 34

                 1                   2                   3                   4                   5

    1     0.00000000000000     1.33342000933404     0.09517647465637     0.02452521868475     0.04386973368680
    2     1.33342000933404     0.00000000000000     1.18547091957937     0.14231937963708     0.78659945118038
    3     0.09517647465637     1.18547091957937     0.00000000000000     1.39323785327792     0.04088113056095
    4     0.02452521868475     0.14231937963708     1.39323785327792     0.00000000000000     0.01492081245684
    5     0.04386973368680     0.78659945118038     0.04088113056095     0.01492081245684     0.00000000000000
    6     0.03041019135551     0.11998238562724     1.40630052664081     0.12735115288132     0.00839768412415
    7     1.50055229193331     0.18259787342959     0.02323022309043     0.00851695501831     0.01349004966221
    8     0.01644150136968     0.00377483518393     0.00060680109710     0.00018518708596     0.00042744101969
    9     0.11322508479493     0.05140510413376     0.00515660531242     0.00145762299324     0.01252803764697
   10     0.12828947832516     0.03396946769034     0.00350808222808     0.00219610071136     0.00091643697051
   11     0.07711687620863     0.01905174282260     0.00172688209335     0.00194782554251     0.00156769872917
   12     0.98771857799378     0.09474805252159     0.02635956999426     0.00430905173924     0.00870576442341
   13     0.12374138012179     0.02171686274949     0.00742281920684     0.00096755207656     0.00092954318251
   14     0.11979300588402     0.02423497429002     0.01347627942774     0.00156582481461     0.00097514734918
   15     0.01682489415140     0.00201851332212     0.00097005562329     0.00012994903017     0.00023830909575
   16     0.01705348974926     0.00255469059046     0.00209568702908     0.00035408105761     0.00017354451682
   17     0.01110324078428     0.00328645833736     0.00104181030128     0.00023810768382     0.00019675837427
   18     0.00318790679677     0.01873546601880     0.13363655053876     1.54099799955957     0.00131321901286
   19     0.00294171759498     0.01674678376369     0.13640683585919     0.14452478870335     0.00088998166144
   20     0.00519038483696     0.01561999392041     0.13320170018354     0.13865998711334     0.00118767642066
   21     0.00218271628479     0.02162062072754     0.05608920293920     0.81758355861642     0.00201448504484
   22     0.00571700264408     0.01223757410860     0.05388825550018     0.00906317666174     0.00008068193515
   23     0.00142663238961     0.00039736440142     0.00009664735751     0.00002049005717     0.00004326588493
   24     0.07646302471056     0.01823025304529     0.00188112955410     0.00205632199977     0.00024197813339
   25     0.01806338360668     0.00125898296124     0.00051720797433     0.00003215639050     0.00006062526601
   26     0.01676983857961     0.00252224633398     0.00243814554885     0.00012161090653     0.00009766149716
   27     0.00124060451065     0.00020341650459     0.00004996902947     0.00001067557570     0.00001506214561
   28     0.00124951500665     0.00019849341474     0.00006276123175     0.00001193583573     0.00000674460255
   29     0.00027779051462     0.00003615974954     0.00001474465966     0.00000550774221     0.00000983316425
   30     0.00035164849831     0.00088534187510     0.01074476480634     0.06116564377447     0.00002906993605
   31     0.00021897765931     0.00086735084580     0.01077770045080     0.00244697400359     0.00027879451601
   32     0.01179486171366     0.01217082005873     0.00133665286298     0.00034707248744     0.00376779209874
   33     0.00165654542402     0.00024398742671     0.00006214300992     0.00001798446233     0.00012548648494
   34     0.00004780831969     0.00026900907200     0.00285369317890     0.01131535005454     0.00001712858567

                 6                   7                   8                   9                  10

    1     0.03041019135551     1.50055229193331     0.01644150136968     0.11322508479493     0.12828947832516
    2     0.11998238562724     0.18259787342959     0.00377483518393     0.05140510413376     0.03396946769034
    3     1.40630052664081     0.02323022309043     0.00060680109710     0.00515660531242     0.00350808222808
    4     0.12735115288132     0.00851695501831     0.00018518708596     0.00145762299324     0.00219610071136
    5     0.00839768412415     0.01349004966221     0.00042744101969     0.01252803764697     0.00091643697051
    6     0.00000000000000     0.00955086837620     0.00017418972987     0.00138749961844     0.00232729013847
    7     0.00955086837620     0.00000000000000     0.13192462486731     1.12798333727485     1.04686057124189
    8     0.00017418972987     0.13192462486731     0.00000000000000     0.20682021416482     1.29875423306651
    9     0.00138749961844     1.12798333727485     0.20682021416482     0.00000000000000     0.12799615686145
   10     0.00232729013847     1.04686057124189     1.29875423306651     0.12799615686145     0.00000000000000
   11     0.00203642232967     0.15929430378555     1.28679568817867     1.81213960840483     0.12813104993312
   12     0.03135934593682     0.11590836512316     0.00319066347295     0.01475584922352     0.03225997851741
   13     0.00682289483618     0.03835515528994     0.00199529653482     0.00363805449800     0.02041861228805
   14     0.04408083475909     0.03440890235637     0.00113788937924     0.00339517801273     0.01341576743848
   15     0.00295229421058     0.00474696419950     0.00057440302898     0.00053801036118     0.00471368764278
   16     0.01202281912213     0.00456417232200     0.00039153918300     0.00051146339113     0.00323195520154
   17     0.00236978339931     0.00409615812741     0.00029815283364     0.00078784401424     0.00202010908213
   18     0.14034162340904     0.00109909958907     0.00003194467851     0.00018861949121     0.00024750442390
   19     1.51007698078782     0.00090193501109     0.00003230988607     0.00020518175269     0.00020854811455
   20     0.13700997042045     0.00469595575909     0.00005383990925     0.00040014367755     0.00134489976251
   21     0.00975775056357     0.00038174512070     0.00000937163875     0.00020389643514     0.00005655688929
   22     0.79216343401701     0.00045454402298     0.00002052884581     0.00006401077330     0.00008664487502
   23     0.00001854287295     0.01122739423626     0.80925639218358     0.01089746524920     0.04207747156511
   24     0.00257656790574     0.14062844603769     0.22038066099267     0.02302809913164     2.14209678687587
   25     0.00016150665405     0.00584011369814     0.00016139934773     0.00037523338118     0.00375895696711
   26     0.01061557636362     0.00426168331655     0.00005154700012     0.00029754338008     0.00139621579035
   27     0.00004523978151     0.00026063097910     0.00000957911956     0.00002799938726     0.00011343196510
   28     0.00019843660850     0.00030895790565     0.00000876848931     0.00003385537650     0.00009584873273
   29     0.00003641948985     0.00004407512866     0.00000318385739     0.00001255504106     0.00001798005252
   30     0.00259650255264     0.00006231043316     0.00000322067997     0.00001377026927     0.00002120181249
   31     0.06014394756294     0.00007873219315     0.00000220838375     0.00004958546706     0.00001958885519
   32     0.00021218717855     0.04800967679823     0.01129044694037     0.82242327847621     0.00969808811004
   33     0.00002491877350     0.01362421738603     0.05513494059586     0.05877220317288     0.01208832686846
   34     0.01112075162289     0.00001803649945     0.00000086388634     0.00000892153165     0.00000443126347

                11                  12                  13                  14                  15

    1     0.07711687620863     0.98771857799378     0.12374138012179     0.11979300588402     0.01682489415140
    2     0.01905174282260     0.09474805252159     0.02171686274949     0.02423497429002     0.00201851332212
    3     0.00172688209335     0.02635956999426     0.00742281920684     0.01347627942774     0.00097005562329
    4     0.00194782554251     0.00430905173924     0.00096755207656     0.00156582481461     0.00012994903017
    5     0.00156769872917     0.00870576442341     0.00092954318251     0.00097514734918     0.00023830909575
    6     0.00203642232967     0.03135934593682     0.00682289483618     0.04408083475909     0.00295229421058
    7     0.15929430378555     0.11590836512316     0.03835515528994     0.03440890235637     0.00474696419950
    8     1.28679568817867     0.00319066347295     0.00199529653482     0.00113788937924     0.00057440302898
    9     1.81213960840483     0.01475584922352     0.00363805449800     0.00339517801273     0.00053801036118
   10     0.12813104993312     0.03225997851741     0.02041861228805     0.01341576743848     0.00471368764278
   11     0.00000000000000     0.00580773299438     0.00326986767496     0.00280238223568     0.00067352272919
   12     0.00580773299438     0.00000000000000     1.41286609974812     1.39845450627482     0.13493941086924
   13     0.00326986767496     1.41286609974812     0.00000000000000     0.13019170992811     1.50686086631686
   14     0.00280238223568     1.39845450627482     0.13019170992811     0.00000000000000     0.14503931347445
   15     0.00067352272919     0.13493941086924     1.50686086631686     0.14503931347445     0.00000000000000
   16     0.00057383961240     0.13387236563857     0.14438928848308     1.51646153423017     0.13855317040974
   17     0.00036506733491     0.13838815954559     0.13998997126691     0.13994391704370     1.52206967378044
   18     0.00018073532596     0.00118353864966     0.00044018057870     0.00091185031133     0.00013774799733
   19     0.00016993293314     0.00391016906521     0.00085058342530     0.00558397357175     0.00036714605800
   20     0.00148905814423     0.00110216082483     0.00028482249934     0.00103814034316     0.00011358417877
   21     0.00004081303308     0.00027184707804     0.00006858456535     0.00011241262696     0.00002204394761
   22     0.00002444928201     0.01124057593111     0.00186412383883     0.02421344333025     0.00120179333839
   23     0.04228921330654     0.00030938859386     0.00014221857754     0.00007328178536     0.00003539664257
   24     0.02564167297477     0.04512770950515     0.04236932141688     0.02026738678177     0.01622422119473
   25     0.00024619231610     0.05624391109135     0.80927832234199     0.00947739600029     0.05505327922870
   26     0.00016434239557     0.05476062913028     0.00910837185751     0.80607598701183     0.00203171734725
   27     0.00005070913240     0.01056080227619     0.06036511806346     0.00253312098016     0.83260208233567
   28     0.00005742645281     0.01070065261176     0.00251605793484     0.06061378399893     0.01124504495673
   29     0.00000340124458     0.00294225570208     0.01134296725505     0.01134706487418     0.05895909060869
   30     0.00000317595023     0.00005242540709     0.00001096047922     0.00004915324644     0.00000343897080
   31     0.00001133599265     0.00016259645565     0.00001931566048     0.00022702866982     0.00002054667581
   32     0.06126380677007     0.00054205653104     0.00016006820265     0.00013513426593     0.00004728278785
   33     0.83437973447594     0.00052645867041     0.00018044611048     0.00013277813762     0.00005393119587
   34     0.00000273374325     0.00005514189999     0.00001447333262     0.00007731813002     0.00001341306914

                16                  17                  18                  19                  20

    1     0.01705348974926     0.01110324078428     0.00318790679677     0.00294171759498     0.00519038483696
    2     0.00255469059046     0.00328645833736     0.01873546601880     0.01674678376369     0.01561999392041
    3     0.00209568702908     0.00104181030128     0.13363655053876     0.13640683585919     0.13320170018354
    4     0.00035408105761     0.00023810768382     1.54099799955957     0.14452478870335     0.13865998711334
    5     0.00017354451682     0.00019675837427     0.00131321901286     0.00088998166144     0.00118767642066
    6     0.01202281912213     0.00236978339931     0.14034162340904     1.51007698078782     0.13700997042045
    7     0.00456417232200     0.00409615812741     0.00109909958907     0.00090193501109     0.00469595575909
    8     0.00039153918300     0.00029815283364     0.00003194467851     0.00003230988607     0.00005383990925
    9     0.00051146339113     0.00078784401424     0.00018861949121     0.00020518175269     0.00040014367755
   10     0.00323195520154     0.00202010908213     0.00024750442390     0.00020854811455     0.00134489976251
   11     0.00057383961240     0.00036506733491     0.00018073532596     0.00016993293314     0.00148905814423
   12     0.13387236563857     0.13838815954559     0.00118353864966     0.00391016906521     0.00110216082483
   13     0.14438928848308     0.13998997126691     0.00044018057870     0.00085058342530     0.00028482249934
   14     1.51646153423017     0.13994391704370     0.00091185031133     0.00558397357175     0.00103814034316
   15     0.13855317040974     1.52206967378044     0.00013774799733     0.00036714605800     0.00011358417877
   16     0.00000000000000     1.51144487840832     0.00026971974450     0.00119316062535     0.00025690386167
   17     1.51144487840832     0.00000000000000     0.00017942852961     0.00034783589962     0.00007203113085
   18     0.00026971974450     0.00017942852961     0.00000000000000     0.13882012086854     1.50701360340736
   19     0.00119316062535     0.00034783589962     0.13882012086854     0.00000000000000     1.52632460572438
   20     0.00025690386167     0.00007203113085     1.50701360340736     1.52632460572438     0.00000000000000
   21     0.00003755959082     0.00001961336970     0.05689549632520     0.00262969958809     0.01095934407019
   22     0.00492708624478     0.00052518513057     0.00220090511129     0.05464464999314     0.00980276571051
   23     0.00001942076690     0.00001623051214     0.00000569978631     0.00000496484658     0.00000192916535
   24     0.00718584096080     0.00583387713419     0.00022921302400     0.00030291880420     0.00162613097432
   25     0.00208698727770     0.01033581856271     0.00000978262400     0.00001073367720     0.00001814815119
   26     0.05423547310269     0.01023022675040     0.00004792646964     0.00072144944976     0.00015474619855
   27     0.01129337612434     0.05903227969840     0.00000252307558     0.00000670629757     0.00000259451977
   28     0.83266107293934     0.05877499404556     0.00000441216731     0.00001462689245     0.00001252587200
   29     0.05893309168738     0.83553771285721     0.00000309112378     0.00000895139992     0.00000187577112
   30     0.00001430068602     0.00000443659261     0.83353270263586     0.01135932462094     0.05830432732333
   31     0.00004030496842     0.00000955358420     0.01151664390738     0.83291495674174     0.05867042785726
   32     0.00004431904661     0.00003189072694     0.00001142644936     0.00002809174165     0.00005780379721
   33     0.00003631187086     0.00006109677456     0.00000372326459     0.00000527412820     0.00000205558224
   34     0.00003596722907     0.00000682048320     0.05914280782323     0.05946343526290     0.83522608176243

                21                  22                  23                  24                  25

    1     0.00218271628479     0.00571700264408     0.00142663238961     0.07646302471056     0.01806338360668
    2     0.02162062072754     0.01223757410860     0.00039736440142     0.01823025304529     0.00125898296124
    3     0.05608920293920     0.05388825550018     0.00009664735751     0.00188112955410     0.00051720797433
    4     0.81758355861642     0.00906317666174     0.00002049005717     0.00205632199977     0.00003215639050
    5     0.00201448504484     0.00008068193515     0.00004326588493     0.00024197813339     0.00006062526601
    6     0.00975775056357     0.79216343401701     0.00001854287295     0.00257656790574     0.00016150665405
    7     0.00038174512070     0.00045454402298     0.01122739423626     0.14062844603769     0.00584011369814
    8     0.00000937163875     0.00002052884581     0.80925639218358     0.22038066099267     0.00016139934773
    9     0.00020389643514     0.00006401077330     0.01089746524920     0.02302809913164     0.00037523338118
   10     0.00005655688929     0.00008664487502     0.04207747156511     2.14209678687587     0.00375895696711
   11     0.00004081303308     0.00002444928201     0.04228921330654     0.02564167297477     0.00024619231610
   12     0.00027184707804     0.01124057593111     0.00030938859386     0.04512770950515     0.05624391109135
   13     0.00006858456535     0.00186412383883     0.00014221857754     0.04236932141688     0.80927832234199
   14     0.00011241262696     0.02421344333025     0.00007328178536     0.02026738678177     0.00947739600029
   15     0.00002204394761     0.00120179333839     0.00003539664257     0.01622422119473     0.05505327922870
   16     0.00003755959082     0.00492708624478     0.00001942076690     0.00718584096080     0.00208698727770
   17     0.00001961336970     0.00052518513057     0.00001623051214     0.00583387713419     0.01033581856271
   18     0.05689549632520     0.00220090511129     0.00000569978631     0.00022921302400     0.00000978262400
   19     0.00262969958809     0.05464464999314     0.00000496484658     0.00030291880420     0.00001073367720
   20     0.01095934407019     0.00980276571051     0.00000192916535     0.00162613097432     0.00001814815119
   21     0.00000000000000     0.00044308633958     0.00000538207178     0.00004551346008     0.00000525953074
   22     0.00044308633958     0.00000000000000     0.00000417764263     0.00014659978003     0.00000684620514
   23     0.00000538207178     0.00000417764263     0.00000000000000     0.01108315747723     0.00000492270656
   24     0.00004551346008     0.00014659978003     0.01108315747723     0.00000000000000     0.00299466342656
   25     0.00000525953074     0.00000684620514     0.00000492270656     0.00299466342656     0.00000000000000
   26     0.00003196661003     0.00305795609306     0.00000199372132     0.00056182101859     0.00035472780091
   27     0.00000138677988     0.00001318677589     0.00000064678946     0.00024743745258     0.00523043929578
   28     0.00000120971867     0.00010366104232     0.00000060295961     0.00011304174896     0.00025074189492
   29     0.00000012803554     0.00000606129808     0.00000005994431     0.00006366939680     0.00023118419110
   30     0.00536969291039     0.00020295071409     0.00000127134655     0.00000389770801     0.00000109653762
   31     0.00023125709973     0.00561349553085     0.00000111694882     0.00001266297246     0.00000145708958
   32     0.00004129998030     0.00003063612722     0.00045809852248     0.00216394875570     0.00001452926654
   33     0.00000056807922     0.00000180124411     0.00278575469060     0.00175246508604     0.00000203061905
   34     0.00021259725308     0.00020610705316     0.00000011327406     0.00000183567964     0.00000083606549

                26                  27                  28                  29                  30

    1     0.01676983857961     0.00124060451065     0.00124951500665     0.00027779051462     0.00035164849831
    2     0.00252224633398     0.00020341650459     0.00019849341474     0.00003615974954     0.00088534187510
    3     0.00243814554885     0.00004996902947     0.00006276123175     0.00001474465966     0.01074476480634
    4     0.00012161090653     0.00001067557570     0.00001193583573     0.00000550774221     0.06116564377447
    5     0.00009766149716     0.00001506214561     0.00000674460255     0.00000983316425     0.00002906993605
    6     0.01061557636362     0.00004523978151     0.00019843660850     0.00003641948985     0.00259650255264
    7     0.00426168331655     0.00026063097910     0.00030895790565     0.00004407512866     0.00006231043316
    8     0.00005154700012     0.00000957911956     0.00000876848931     0.00000318385739     0.00000322067997
    9     0.00029754338008     0.00002799938726     0.00003385537650     0.00001255504106     0.00001377026927
   10     0.00139621579035     0.00011343196510     0.00009584873273     0.00001798005252     0.00002120181249
   11     0.00016434239557     0.00005070913240     0.00005742645281     0.00000340124458     0.00000317595023
   12     0.05476062913028     0.01056080227619     0.01070065261176     0.00294225570208     0.00005242540709
   13     0.00910837185751     0.06036511806346     0.00251605793484     0.01134296725505     0.00001096047922
   14     0.80607598701183     0.00253312098016     0.06061378399893     0.01134706487418     0.00004915324644
   15     0.00203171734725     0.83260208233567     0.01124504495673     0.05895909060869     0.00000343897080
   16     0.05423547310269     0.01129337612434     0.83266107293934     0.05893309168738     0.00001430068602
   17     0.01023022675040     0.05903227969840     0.05877499404556     0.83553771285721     0.00000443659261
   18     0.00004792646964     0.00000252307558     0.00000441216731     0.00000309112378     0.83353270263586
   19     0.00072144944976     0.00000670629757     0.00001462689245     0.00000895139992     0.01135932462094
   20     0.00015474619855     0.00000259451977     0.00001252587200     0.00000187577112     0.05830432732333
   21     0.00003196661003     0.00000138677988     0.00000120971867     0.00000012803554     0.00536969291039
   22     0.00305795609306     0.00001318677589     0.00010366104232     0.00000606129808     0.00020295071409
   23     0.00000199372132     0.00000064678946     0.00000060295961     0.00000005994431     0.00000127134655
   24     0.00056182101859     0.00024743745258     0.00011304174896     0.00006366939680     0.00000389770801
   25     0.00035472780091     0.00523043929578     0.00025074189492     0.00023118419110     0.00000109653762
   26     0.00000000000000     0.00023980526742     0.00524462344392     0.00023715206615     0.00000704196518
   27     0.00023980526742     0.00000000000000     0.00024814893625     0.00524757296633     0.00000034705911
   28     0.00524462344392     0.00024814893625     0.00000000000000     0.00521115479615     0.00000022945960
   29     0.00023715206615     0.00524757296633     0.00521115479615     0.00000000000000     0.00000015094232
   30     0.00000704196518     0.00000034705911     0.00000022945960     0.00000015094232     0.00000000000000
   31     0.00003339169595     0.00000059477438     0.00000180500404     0.00000105892621     0.00028043089321
   32     0.00000566831638     0.00000150417595     0.00000206619385     0.00000145385139     0.00000291318293
   33     0.00000103881811     0.00000059753532     0.00000073461133     0.00000033317600     0.00000014634860
   34     0.00002157254878     0.00000017166906     0.00000030119650     0.00000006851065     0.00511417434001

                31                  32                  33                  34

    1     0.00021897765931     0.01179486171366     0.00165654542402     0.00004780831969
    2     0.00086735084580     0.01217082005873     0.00024398742671     0.00026900907200
    3     0.01077770045080     0.00133665286298     0.00006214300992     0.00285369317890
    4     0.00244697400359     0.00034707248744     0.00001798446233     0.01131535005454
    5     0.00027879451601     0.00376779209874     0.00012548648494     0.00001712858567
    6     0.06014394756294     0.00021218717855     0.00002491877350     0.01112075162289
    7     0.00007873219315     0.04800967679823     0.01362421738603     0.00001803649945
    8     0.00000220838375     0.01129044694037     0.05513494059586     0.00000086388634
    9     0.00004958546706     0.82242327847621     0.05877220317288     0.00000892153165
   10     0.00001958885519     0.00969808811004     0.01208832686846     0.00000443126347
   11     0.00001133599265     0.06126380677007     0.83437973447594     0.00000273374325
   12     0.00016259645565     0.00054205653104     0.00052645867041     0.00005514189999
   13     0.00001931566048     0.00016006820265     0.00018044611048     0.00001447333262
   14     0.00022702866982     0.00013513426593     0.00013277813762     0.00007731813002
   15     0.00002054667581     0.00004728278785     0.00005393119587     0.00001341306914
   16     0.00004030496842     0.00004431904661     0.00003631187086     0.00003596722907
   17     0.00000955358420     0.00003189072694     0.00006109677456     0.00000682048320
   18     0.01151664390738     0.00001142644936     0.00000372326459     0.05914280782323
   19     0.83291495674174     0.00002809174165     0.00000527412820     0.05946343526290
   20     0.05867042785726     0.00005780379721     0.00000205558224     0.83522608176243
   21     0.00023125709973     0.00004129998030     0.00000056807922     0.00021259725308
   22     0.00561349553085     0.00003063612722     0.00000180124411     0.00020610705316
   23     0.00000111694882     0.00045809852248     0.00278575469060     0.00000011327406
   24     0.00001266297246     0.00216394875570     0.00175246508604     0.00000183567964
   25     0.00000145708958     0.00001452926654     0.00000203061905     0.00000083606549
   26     0.00003339169595     0.00000566831638     0.00000103881811     0.00002157254878
   27     0.00000059477438     0.00000150417595     0.00000059753532     0.00000017166906
   28     0.00000180500404     0.00000206619385     0.00000073461133     0.00000030119650
   29     0.00000105892621     0.00000145385139     0.00000033317600     0.00000006851065
   30     0.00028043089321     0.00000291318293     0.00000014634860     0.00511417434001
   31     0.00000000000000     0.00000411829579     0.00000031681041     0.00514184269886
   32     0.00000411829579     0.00000000000000     0.00281549388086     0.00000220833324
   33     0.00000031681041     0.00281549388086     0.00000000000000     0.00000022806533
   34     0.00514184269886     0.00000220833324     0.00000022806533     0.00000000000000



  Atomic Valences: 

 #  #
 Irrep: 1
      1:    4.788041808124654
      2:    4.129394584657551
      3:    4.750719824804797
      4:    4.452603908635710
      5:    0.944997029369894
      6:    4.484626539650448
      7:    4.637978370213039
      8:    4.049943866631232
      9:    4.400728032700386
     10:    5.062341460261001
     11:    4.469319244082931
     12:    4.743335813440567
     13:    4.502591910342455
     14:    4.532246420964220
     15:    4.459974798779577
     16:    4.461519415672558
     17:    4.458659122100115
     18:    4.452523212719020
     19:    4.452618374750524
     20:    4.449900218873833
     21:    0.987346666324334
     22:    0.994257397140925
     23:    0.932706708276331
     24:    2.811582275120240
     25:    0.982088872148173
     26:    0.985901697796151
     27:    0.989657760979495
     28:    0.989954236081942
     29:    0.990537800024806
     30:    0.990192063957956
     31:    0.989800119191295
     32:    0.988916695926918
     33:    0.984494072780398
     34:    0.990396243438303


    Psi4 stopped on: Thursday, 09 June 2022 06:13AM
    Psi4 wall time for execution: 0:06:30.08

*** Psi4 exiting successfully. Buy a developer a beer!
