
    -----------------------------------------------------------------------
          Psi4: An Open-Source Ab Initio Electronic Structure Package
                               Psi4 1.5 release

                         Git: Rev {HEAD} e9f4d6d 


    D. G. A. Smith, L. A. Burns, A. C. Simmonett, R. M. Parrish,
    M. C. Schieber, R. Galvelis, P. Kraus, H. Kruse, R. Di Remigio,
    A. Alenaizan, A. M. James, S. Lehtola, J. P. Misiewicz, M. Scheurer,
    R. A. Shaw, J. B. Schriber, Y. Xie, Z. L. Glick, D. A. Sirianni,
    J. S. O'Brien, J. M. Waldrop, A. Kumar, E. G. Hohenstein,
    B. P. Pritchard, B. R. Brooks, H. F. Schaefer III, A. Yu. Sokolov,
    K. Patkowski, A. E. DePrince III, U. Bozkaya, R. A. King,
    F. A. Evangelista, J. M. Turney, T. D. Crawford, C. D. Sherrill,
    J. Chem. Phys. 152(18) 184108 (2020). https://doi.org/10.1063/5.0006002

                            Additional Code Authors
    E. T. Seidl, C. L. Janssen, E. F. Valeev, M. L. Leininger,
    J. F. Gonthier, R. M. Richard, H. R. McAlexander, M. Saitow, X. Wang,
    P. Verma, M. H. Lechner, and A. Jiang

             Previous Authors, Complete List of Code Contributors,
                       and Citations for Specific Modules
    https://github.com/psi4/psi4/blob/master/codemeta.json
    https://github.com/psi4/psi4/graphs/contributors
    http://psicode.org/psi4manual/master/introduction.html#citing-psifour

    -----------------------------------------------------------------------


    Psi4 started on: Thursday, 09 June 2022 07:26AM

    Process ID: 1298675
    Host:       node74.bme.utexas.edu
    PSIDATADIR: /home/bdw2292/miniconda3/envs/newamoebamdpoltype/share/psi4
    Memory:     500.0 MiB
    Threads:    1
    
  ==> Input File <==

--------------------------------------------------------------------------
molecule { 
0 1
 C   -0.606035   -0.308247    0.245064
 N    0.508033   -1.084054    0.155947
 C    1.789340   -0.687408   -0.346461
 C    2.719967   -0.124586    0.526582
 H    0.452408   -1.957364    0.687359
 C    2.158581   -0.980674   -1.658603
 C   -1.661441   -0.743740    1.021930
 N   -2.807216   -2.065173    2.451757
 C   -2.993845   -0.188415    1.221636
 C   -1.589784   -1.965362    1.812672
 C   -3.646712   -0.996941    2.086846
 C   -0.663748    0.991365   -0.473828
 C   -1.055305    2.142126    0.221639
 C   -0.407041    1.083437   -1.846116
 C   -1.154076    3.365458   -0.434947
 C   -0.512484    2.306138   -2.502351
 C   -0.880605    3.450830   -1.798399
 C    3.996518    0.197662    0.071676
 C    3.435198   -0.659446   -2.112095
 C    4.353827   -0.063584   -1.249557
 H    2.430752    0.062646    1.551480
 H    1.448344   -1.472457   -2.308434
 H   -3.039026   -2.820263    3.067106
 O   -0.632711   -2.787627    1.921070
 H   -1.260945    2.074528    1.280856
 H   -0.146188    0.197552   -2.404166
 H   -1.443597    4.249024    0.117466
 H   -0.312701    2.363283   -3.563638
 H   -0.958253    4.400728   -2.309871
 H    4.711317    0.644796    0.748855
 H    3.715386   -0.884054   -3.132186
 H   -3.392877    0.693805    0.753540
 H   -4.645470   -0.926721    2.478490
 H    5.345647    0.184534   -1.602070
}
memory 8.166666666666666GB
set_num_threads(2)
psi4_io.set_default_path("/scratch/bdw2292/Psi4-1_16_Index_0-farH_in17")
set freeze_core True
E, wfn = energy('wb97x-d/6-311+G*',return_wfn=True)
oeprop(wfn,"WIBERG_LOWDIN_INDICES")
clean()
--------------------------------------------------------------------------

  Memory set to   7.606 GiB by Python driver.
  Threads set to 2 by Python driver.

Scratch directory: /scratch/bdw2292/Psi4-1_16_Index_0-farH_in17/

Scratch directory: /scratch/bdw2292/Psi4-1_16_Index_0-farH_in17/

*** tstart() called on node74.bme.utexas.edu
*** at Thu Jun  9 07:26:46 2022

   => Loading Basis Set <=

    Name: 6-311+G*
    Role: ORBITAL
    Keyword: BASIS
    atoms 1, 3-4, 6-7, 9-20 entry C          line   130 file /home/bdw2292/miniconda3/envs/newamoebamdpoltype/share/psi4/basis/6-311pgs.gbs 
    atoms 2, 8              entry N          line   151 file /home/bdw2292/miniconda3/envs/newamoebamdpoltype/share/psi4/basis/6-311pgs.gbs 
    atoms 5, 21-23, 25-34   entry H          line    47 file /home/bdw2292/miniconda3/envs/newamoebamdpoltype/share/psi4/basis/6-311pgs.gbs 
    atoms 24                entry O          line   172 file /home/bdw2292/miniconda3/envs/newamoebamdpoltype/share/psi4/basis/6-311pgs.gbs 

   => WB97X-D: Empirical Dispersion <=

    Chai and Head-Gordon Dispersion Correction
    Chai, J.-D.; Head-Gordon, M. (2010), J. Chem. Phys., 132: 6615-6620

        s6 =       1.000000


         ---------------------------------------------------------
                                   SCF
               by Justin Turney, Rob Parrish, Andy Simmonett
                          and Daniel G. A. Smith
                              RKS Reference
                        2 Threads,   7788 MiB Core
         ---------------------------------------------------------

  ==> Geometry <==

    Molecular point group: c1
    Full point group: C1

    Geometry (in Angstrom), charge = 0, multiplicity = 1:

       Center              X                  Y                   Z               Mass       
    ------------   -----------------  -----------------  -----------------  -----------------
         C           -0.606034996214    -0.308246874729     0.245064018959    12.000000000000
         N            0.508033003786    -1.084053874729     0.155947018959    14.003074004430
         C            1.789340003786    -0.687407874729    -0.346460981041    12.000000000000
         C            2.719967003786    -0.124585874729     0.526582018959    12.000000000000
         H            0.452408003786    -1.957363874729     0.687359018959     1.007825032230
         C            2.158581003786    -0.980673874729    -1.658602981041    12.000000000000
         C           -1.661440996214    -0.743739874729     1.021930018959    12.000000000000
         N           -2.807215996214    -2.065172874729     2.451757018959    14.003074004430
         C           -2.993844996214    -0.188414874729     1.221636018959    12.000000000000
         C           -1.589783996214    -1.965361874729     1.812672018959    12.000000000000
         C           -3.646711996214    -0.996940874729     2.086846018959    12.000000000000
         C           -0.663747996214     0.991365125271    -0.473827981041    12.000000000000
         C           -1.055304996214     2.142126125271     0.221639018959    12.000000000000
         C           -0.407040996214     1.083437125271    -1.846115981041    12.000000000000
         C           -1.154075996214     3.365458125271    -0.434946981041    12.000000000000
         C           -0.512483996214     2.306138125271    -2.502350981041    12.000000000000
         C           -0.880604996214     3.450830125271    -1.798398981041    12.000000000000
         C            3.996518003786     0.197662125271     0.071676018959    12.000000000000
         C            3.435198003786    -0.659445874729    -2.112094981041    12.000000000000
         C            4.353827003786    -0.063583874729    -1.249556981041    12.000000000000
         H            2.430752003786     0.062646125271     1.551480018959     1.007825032230
         H            1.448344003786    -1.472456874729    -2.308433981041     1.007825032230
         H           -3.039025996214    -2.820262874729     3.067106018959     1.007825032230
         O           -0.632710996214    -2.787626874729     1.921070018959    15.994914619570
         H           -1.260944996214     2.074528125271     1.280856018959     1.007825032230
         H           -0.146187996214     0.197552125271    -2.404165981041     1.007825032230
         H           -1.443596996214     4.249024125271     0.117466018959     1.007825032230
         H           -0.312700996214     2.363283125271    -3.563637981041     1.007825032230
         H           -0.958252996214     4.400728125271    -2.309870981041     1.007825032230
         H            4.711317003786     0.644796125271     0.748855018959     1.007825032230
         H            3.715386003786    -0.884053874729    -3.132185981041     1.007825032230
         H           -3.392876996214     0.693805125271     0.753540018959     1.007825032230
         H           -4.645469996214    -0.926720874729     2.478490018959     1.007825032230
         H            5.345647003786     0.184534125271    -1.602069981041     1.007825032230

  Running in c1 symmetry.

  Rotational constants: A =      0.01518  B =      0.00943  C =      0.00649 [cm^-1]
  Rotational constants: A =    455.10578  B =    282.83095  C =    194.58918 [MHz]
  Nuclear repulsion = 1424.090568791121996

  Charge       = 0
  Multiplicity = 1
  Electrons    = 138
  Nalpha       = 69
  Nbeta        = 69

  ==> Algorithm <==

  SCF Algorithm Type is DF.
  DIIS enabled.
  MOM disabled.
  Fractional occupation disabled.
  Guess Type is SAD.
  Energy threshold   = 1.00e-06
  Density threshold  = 1.00e-06
  Integral threshold = 1.00e-12

  ==> Primary Basis <==

  Basis Set: 6-311+G*
    Blend: 6-311+G*
    Number of shells: 242
    Number of basis functions: 482
    Number of Cartesian functions: 502
    Spherical Harmonics?: true
    Max angular momentum: 2

  ==> DFT Potential <==

   => LibXC <=

    Version 5.1.5
    S. Lehtola, C. Steigemann, M. J. Oliveira, and M. A. Marques, SoftwareX 7, 1 (2018) (10.1016/j.softx.2017.11.002)

   => Composite Functional: WB97X-D <= 

    wB97X-D Hyb-GGA Exchange-Correlation Functional

    J.-D. Chai and M. Head-Gordon, Phys. Chem. Chem. Phys. 10, 6615 (2008) (10.1039/B810189B)

    Deriv               =              1
    GGA                 =           TRUE
    Meta                =          FALSE

    Exchange Hybrid     =           TRUE
    MP2 Hybrid          =          FALSE

   => Exchange-Correlation Functionals <=

    1.0000   wB97X-D range-separated functional

   => Exact (HF) Exchange <=

    0.7780            HF,LR [omega = 0.2000]
    0.2220               HF 

   => LibXC Density Thresholds  <==

    XC_HYB_GGA_XC_WB97X_D:  1.00E-14 

   => Molecular Quadrature <=

    Radial Scheme          =       TREUTLER
    Pruning Scheme         =           NONE
    Nuclear Scheme         =       TREUTLER

    BS radius alpha        =              1
    Pruning alpha          =              1
    Radial Points          =             75
    Spherical Points       =            302
    Total Points           =         703137
    Total Blocks           =           4998
    Max Points             =            256
    Max Functions          =            385
    Weights Tolerance      =       1.00E-15

   => Loading Basis Set <=

    Name: (6-311+G* AUX)
    Role: JKFIT
    Keyword: DF_BASIS_SCF
    atoms 1, 3-4, 6-7, 9-20 entry C          line   200 file /home/bdw2292/miniconda3/envs/newamoebamdpoltype/share/psi4/basis/heavy-aug-cc-pvtz-jkfit.gbs 
    atoms 2, 8              entry N          line   262 file /home/bdw2292/miniconda3/envs/newamoebamdpoltype/share/psi4/basis/heavy-aug-cc-pvtz-jkfit.gbs 
    atoms 5, 21-23, 25-34   entry H          line   116 file /home/bdw2292/miniconda3/envs/newamoebamdpoltype/share/psi4/basis/heavy-aug-cc-pvtz-jkfit.gbs 
    atoms 24                entry O          line   324 file /home/bdw2292/miniconda3/envs/newamoebamdpoltype/share/psi4/basis/heavy-aug-cc-pvtz-jkfit.gbs 

  ==> Integral Setup <==

  ==> DiskDFJK: Density-Fitted J/K Matrices <==

    J tasked:                  Yes
    K tasked:                  Yes
    wK tasked:                 Yes
    Omega:               2.000E-01
    OpenMP threads:              2
    Integrals threads:           2
    Memory [MiB]:             1964
    Algorithm:                Disk
    Integral Cache:           NONE
    Schwarz Cutoff:          1E-12
    Fitting Condition:       1E-10

   => Auxiliary Basis Set <=

  Basis Set: (6-311+G* AUX)
    Blend: HEAVY-AUG-CC-PVTZ-JKFIT
    Number of shells: 740
    Number of basis functions: 2500
    Number of Cartesian functions: 3110
    Spherical Harmonics?: true
    Max angular momentum: 4

  Cached 50.0% of DFT collocation blocks in 2.726 [GiB].

  Minimum eigenvalue in the overlap matrix is 3.2718196982E-07.
  Reciprocal condition number of the overlap matrix is 1.9255644468E-08.
    Using symmetric orthogonalization.

  ==> Pre-Iterations <==

  SCF Guess: Superposition of Atomic Densities via on-the-fly atomic UHF (no occupation information).

   -------------------------
    Irrep   Nso     Nmo    
   -------------------------
     A        482     482 
   -------------------------
    Total     482     482
   -------------------------

  ==> Iterations <==

                           Total Energy        Delta E     RMS |[F,P]|

   @DF-RKS iter SAD:  -840.34861236005713   -8.40349e+02   0.00000e+00 
   @DF-RKS iter   1:  -840.05981333995726    2.88799e-01   2.63654e-03 DIIS
   @DF-RKS iter   2:  -840.42604027497828   -3.66227e-01   2.08411e-03 DIIS
   @DF-RKS iter   3:  -840.85570745900964   -4.29667e-01   3.51813e-04 DIIS
   @DF-RKS iter   4:  -840.86435733959502   -8.64988e-03   1.69681e-04 DIIS
   @DF-RKS iter   5:  -840.86685197620272   -2.49464e-03   3.89347e-05 DIIS
   @DF-RKS iter   6:  -840.86699705758485   -1.45081e-04   1.20273e-05 DIIS
   @DF-RKS iter   7:  -840.86701299964454   -1.59421e-05   3.01041e-06 DIIS
   @DF-RKS iter   8:  -840.86701421876944   -1.21912e-06   1.47808e-06 DIIS
   @DF-RKS iter   9:  -840.86701461876305   -3.99994e-07   5.18525e-07 DIIS
  Energy and wave function converged.


  ==> Post-Iterations <==

   Electrons on quadrature grid:
      Ntotal   =  138.0000596929 ; deviation = 5.969e-05 

    Orbital Energies [Eh]
    ---------------------

    Doubly Occupied:                                                      

       1A    -19.201077     2A    -14.462567     3A    -14.461517  
       4A    -10.373577     5A    -10.363016     6A    -10.338243  
       7A    -10.315018     8A    -10.312575     9A    -10.303546  
      10A    -10.302202    11A    -10.301743    12A    -10.300646  
      13A    -10.300380    14A    -10.300183    15A    -10.300051  
      16A    -10.299756    17A    -10.299029    18A    -10.298610  
      19A    -10.277827    20A    -10.275984    21A     -1.118619  
      22A     -1.063860    23A     -1.043924    24A     -0.978022  
      25A     -0.965511    26A     -0.905932    27A     -0.868932  
      28A     -0.862084    29A     -0.860046    30A     -0.854282  
      31A     -0.811180    32A     -0.764305    33A     -0.723196  
      34A     -0.721683    35A     -0.714619    36A     -0.692971  
      37A     -0.677709    38A     -0.666313    39A     -0.637420  
      40A     -0.616780    41A     -0.596564    42A     -0.582955  
      43A     -0.577501    44A     -0.564203    45A     -0.555550  
      46A     -0.545816    47A     -0.538445    48A     -0.524773  
      49A     -0.519724    50A     -0.516991    51A     -0.511181  
      52A     -0.507002    53A     -0.493708    54A     -0.478564  
      55A     -0.472865    56A     -0.466618    57A     -0.454324  
      58A     -0.452379    59A     -0.443099    60A     -0.439633  
      61A     -0.423964    62A     -0.401088    63A     -0.350616  
      64A     -0.344772    65A     -0.342971    66A     -0.339191  
      67A     -0.327732    68A     -0.324184    69A     -0.258847  

    Virtual:                                                              

      70A      0.007874    71A      0.036743    72A      0.044176  
      73A      0.051997    74A      0.054643    75A      0.058945  
      76A      0.063536    77A      0.066788    78A      0.071186  
      79A      0.079073    80A      0.082331    81A      0.088034  
      82A      0.091881    83A      0.097840    84A      0.101424  
      85A      0.104199    86A      0.108922    87A      0.110506  
      88A      0.113557    89A      0.120741    90A      0.125131  
      91A      0.127957    92A      0.132744    93A      0.141476  
      94A      0.144664    95A      0.146602    96A      0.150642  
      97A      0.159919    98A      0.166237    99A      0.168956  
     100A      0.171073   101A      0.176521   102A      0.180506  
     103A      0.182389   104A      0.186513   105A      0.187986  
     106A      0.191171   107A      0.195169   108A      0.203351  
     109A      0.204356   110A      0.206726   111A      0.209695  
     112A      0.212640   113A      0.217231   114A      0.217852  
     115A      0.219313   116A      0.221848   117A      0.226555  
     118A      0.228417   119A      0.232338   120A      0.235062  
     121A      0.240919   122A      0.243658   123A      0.246272  
     124A      0.248134   125A      0.252000   126A      0.258210  
     127A      0.260127   128A      0.262648   129A      0.263634  
     130A      0.265490   131A      0.267028   132A      0.270052  
     133A      0.272667   134A      0.276899   135A      0.278071  
     136A      0.280908   137A      0.283168   138A      0.287588  
     139A      0.289739   140A      0.293609   141A      0.295521  
     142A      0.301759   143A      0.303704   144A      0.306202  
     145A      0.308209   146A      0.309217   147A      0.315442  
     148A      0.319986   149A      0.323988   150A      0.325652  
     151A      0.329313   152A      0.335673   153A      0.336602  
     154A      0.338805   155A      0.346332   156A      0.349829  
     157A      0.354340   158A      0.357601   159A      0.361524  
     160A      0.363638   161A      0.366315   162A      0.371371  
     163A      0.375679   164A      0.384050   165A      0.388771  
     166A      0.389670   167A      0.396553   168A      0.401870  
     169A      0.406240   170A      0.408751   171A      0.413520  
     172A      0.416476   173A      0.421114   174A      0.426975  
     175A      0.428778   176A      0.434347   177A      0.437749  
     178A      0.442476   179A      0.446462   180A      0.454147  
     181A      0.459915   182A      0.467031   183A      0.474048  
     184A      0.495240   185A      0.506268   186A      0.516659  
     187A      0.532523   188A      0.546524   189A      0.552297  
     190A      0.567613   191A      0.581917   192A      0.590344  
     193A      0.599575   194A      0.605366   195A      0.610914  
     196A      0.614195   197A      0.619466   198A      0.626711  
     199A      0.632456   200A      0.638473   201A      0.643259  
     202A      0.646903   203A      0.655596   204A      0.660326  
     205A      0.666219   206A      0.669994   207A      0.674274  
     208A      0.685285   209A      0.689602   210A      0.694783  
     211A      0.697872   212A      0.710141   213A      0.715405  
     214A      0.718765   215A      0.729424   216A      0.733473  
     217A      0.744895   218A      0.752530   219A      0.758379  
     220A      0.768482   221A      0.775480   222A      0.779180  
     223A      0.782074   224A      0.790368   225A      0.795084  
     226A      0.798144   227A      0.803354   228A      0.806453  
     229A      0.815285   230A      0.821757   231A      0.824280  
     232A      0.830819   233A      0.835963   234A      0.841131  
     235A      0.844026   236A      0.847585   237A      0.855980  
     238A      0.865987   239A      0.866932   240A      0.879102  
     241A      0.884148   242A      0.884991   243A      0.892503  
     244A      0.904146   245A      0.906805   246A      0.918251  
     247A      0.921477   248A      0.923376   249A      0.929709  
     250A      0.937418   251A      0.940463   252A      0.942018  
     253A      0.948210   254A      0.952261   255A      0.959630  
     256A      0.971881   257A      0.978495   258A      0.990054  
     259A      0.997428   260A      1.008123   261A      1.012093  
     262A      1.028246   263A      1.034650   264A      1.052840  
     265A      1.062895   266A      1.072610   267A      1.088248  
     268A      1.091156   269A      1.102424   270A      1.109126  
     271A      1.113897   272A      1.132821   273A      1.136051  
     274A      1.140586   275A      1.162403   276A      1.170164  
     277A      1.173640   278A      1.186614   279A      1.196365  
     280A      1.221146   281A      1.235795   282A      1.238232  
     283A      1.259555   284A      1.263795   285A      1.276531  
     286A      1.277195   287A      1.284669   288A      1.288929  
     289A      1.291750   290A      1.305098   291A      1.314899  
     292A      1.329704   293A      1.355258   294A      1.364268  
     295A      1.374653   296A      1.382448   297A      1.390691  
     298A      1.402481   299A      1.421376   300A      1.425582  
     301A      1.450842   302A      1.455926   303A      1.493766  
     304A      1.560441   305A      1.575270   306A      1.584319  
     307A      1.586705   308A      1.605009   309A      1.612362  
     310A      1.614714   311A      1.628782   312A      1.639410  
     313A      1.645006   314A      1.670028   315A      1.687481  
     316A      1.726358   317A      1.732565   318A      1.735876  
     319A      1.770104   320A      1.813950   321A      1.837053  
     322A      1.843542   323A      1.849998   324A      1.862539  
     325A      1.868512   326A      1.874750   327A      1.878630  
     328A      1.887935   329A      1.898768   330A      1.908216  
     331A      1.916987   332A      1.924002   333A      1.932477  
     334A      1.940329   335A      1.947878   336A      1.974097  
     337A      1.978810   338A      1.996888   339A      2.006502  
     340A      2.017800   341A      2.020693   342A      2.024583  
     343A      2.040952   344A      2.056195   345A      2.061700  
     346A      2.076819   347A      2.079084   348A      2.083161  
     349A      2.095205   350A      2.103898   351A      2.111207  
     352A      2.145521   353A      2.165973   354A      2.199304  
     355A      2.235584   356A      2.252556   357A      2.307091  
     358A      2.324986   359A      2.332326   360A      2.341719  
     361A      2.352977   362A      2.358639   363A      2.380276  
     364A      2.386118   365A      2.391554   366A      2.404054  
     367A      2.409984   368A      2.423270   369A      2.446592  
     370A      2.471819   371A      2.485732   372A      2.491577  
     373A      2.511583   374A      2.520707   375A      2.530021  
     376A      2.546367   377A      2.557705   378A      2.567667  
     379A      2.626467   380A      2.664764   381A      2.717514  
     382A      2.747423   383A      2.765442   384A      2.778163  
     385A      2.801578   386A      2.805885   387A      2.813168  
     388A      2.828969   389A      2.847217   390A      2.862955  
     391A      2.885212   392A      2.894012   393A      2.904719  
     394A      2.913888   395A      2.918440   396A      2.940402  
     397A      2.958550   398A      2.985351   399A      2.988088  
     400A      2.999902   401A      3.017513   402A      3.028398  
     403A      3.046654   404A      3.062366   405A      3.067840  
     406A      3.073421   407A      3.105261   408A      3.124059  
     409A      3.142833   410A      3.167218   411A      3.183316  
     412A      3.202221   413A      3.240622   414A      3.257715  
     415A      3.289563   416A      3.322028   417A      3.338444  
     418A      3.399059   419A      3.403807   420A      3.406840  
     421A      3.416425   422A      3.420090   423A      3.424883  
     424A      3.432048   425A      3.434126   426A      3.449816  
     427A      3.457274   428A      3.463992   429A      3.502177  
     430A      3.528812   431A      3.558640   432A      3.566588  
     433A      3.603677   434A      3.632710   435A      3.646110  
     436A      3.661927   437A      3.689515   438A      3.737492  
     439A      3.758429   440A      3.769443   441A      3.785784  
     442A      3.881200   443A      3.921249   444A      3.990337  
     445A      4.013876   446A      4.058843   447A      4.124233  
     448A      4.140304   449A      4.147504   450A      4.192798  
     451A      4.208607   452A      4.360638   453A      4.536019  
     454A      4.653738   455A      4.719460   456A      4.883020  
     457A      4.885363   458A      5.129352   459A      5.206824  
     460A      5.219781   461A      5.411333   462A      5.920129  
     463A     23.490741   464A     23.537285   465A     23.717420  
     466A     23.932453   467A     23.979590   468A     23.988281  
     469A     24.013392   470A     24.028331   471A     24.035019  
     472A     24.146557   473A     24.169898   474A     24.172050  
     475A     24.174101   476A     24.235431   477A     24.276270  
     478A     24.280547   479A     24.286969   480A     35.654723  
     481A     35.728868   482A     50.202037  

    Final Occupation by Irrep:
              A 
    DOCC [    69 ]

  @DF-RKS Final Energy:  -840.86701461876305

   => Energetics <=

    Nuclear Repulsion Energy =           1424.0905687911219957
    One-Electron Energy =               -3967.1434847575092135
    Two-Electron Energy =                1784.8904928765389286
    DFT Exchange-Correlation Energy =     -82.6804903093689347
    Empirical Dispersion Energy =          -0.0241012195455799
    VV10 Nonlocal Energy =                  0.0000000000000000
    Total Energy =                       -840.8670146187630507

Computation Completed


Properties will be evaluated at   0.000000,   0.000000,   0.000000 [a0]

Properties computed using the SCF density matrix

  Nuclear Dipole Moment: [e a0]
     X:     2.7268      Y:     6.3800      Z:    -4.3437

  Electronic Dipole Moment: [e a0]
     X:    -2.7356      Y:    -5.1604      Z:     3.7150

  Dipole Moment: [e a0]
     X:    -0.0088      Y:     1.2195      Z:    -0.6287     Total:     1.3720

  Dipole Moment: [D]
     X:    -0.0224      Y:     3.0997      Z:    -1.5979     Total:     3.4874


*** tstop() called on node74.bme.utexas.edu at Thu Jun  9 07:33:17 2022
Module time:
	user time   =     730.37 seconds =      12.17 minutes
	system time =      28.79 seconds =       0.48 minutes
	total time  =        391 seconds =       6.52 minutes
Total time:
	user time   =     730.37 seconds =      12.17 minutes
	system time =      28.79 seconds =       0.48 minutes
	total time  =        391 seconds =       6.52 minutes


Properties will be evaluated at   0.000000,   0.000000,   0.000000 [a0]
OEProp: No title given, name of density matrix used for the following properties is 'SCF density'


  Wiberg Bond Indices using Orthogonal Lowdin Orbitals:

  Irrep: 1 Size: 34 x 34

                 1                   2                   3                   4                   5

    1     0.00000000000000     1.41736573502554     0.10253763075449     0.03189800556591     0.04290588997685
    2     1.41736573502554     0.00000000000000     1.13160072146435     0.12517029444235     0.71743826269864
    3     0.10253763075449     1.13160072146435     0.00000000000000     1.42471718197094     0.03541388495950
    4     0.03189800556591     0.12517029444235     1.42471718197094     0.00000000000000     0.01030709581150
    5     0.04290588997685     0.71743826269864     0.03541388495950     0.01030709581150     0.00000000000000
    6     0.02732630763711     0.12729232692636     1.42038854138401     0.13028153326713     0.00971650592215
    7     1.41525450827731     0.18107993106230     0.02139486561206     0.00590755242636     0.01357150514817
    8     0.01844079861891     0.00584899776080     0.00072974099942     0.00028032429125     0.00125969246024
    9     0.10884788366592     0.02134841916794     0.00277612019505     0.00073835849205     0.00105654290974
   10     0.13127145954718     0.06632753437292     0.00630632550164     0.00226624253977     0.01316066103039
   11     0.06532581631075     0.02669068284061     0.00243325101884     0.00107046327989     0.00037632438292
   12     1.00963763915581     0.09902158265950     0.03390097510531     0.01452568658862     0.00777243395368
   13     0.12027397528414     0.02055623374015     0.00731300872323     0.00443850085420     0.00091335037871
   14     0.11476919237117     0.03539665101489     0.02798194101654     0.00838069059487     0.00111844811361
   15     0.01669316365340     0.00231882546179     0.00164750198312     0.00067272762639     0.00024715617925
   16     0.01672104507352     0.00318538681343     0.00502388456927     0.00133294407735     0.00009394679664
   17     0.01056318221707     0.00433274135529     0.00150314300599     0.00050720765343     0.00015947218437
   18     0.00354881125370     0.01650727089502     0.13666053345767     1.51648429896380     0.00062884703657
   19     0.00330658157425     0.01636719421436     0.13649089396504     0.14594117978061     0.00065277865840
   20     0.00409533686523     0.00886037412434     0.14001903753437     0.13893086235383     0.00277511444928
   21     0.00527563727480     0.01825834598583     0.05662436172678     0.81264677134332     0.00016165796873
   22     0.00363152867912     0.01756922429113     0.05582553970741     0.00921947534127     0.00005052136362
   23     0.00153290692976     0.00028578262507     0.00006783106834     0.00002059438250     0.00010241081638
   24     0.07864301551558     0.11899671897620     0.01174929883337     0.00334767898384     0.06468024640343
   25     0.01676561717050     0.00079679496180     0.00032996735685     0.00020691443811     0.00002000057074
   26     0.01501824133587     0.00601143970708     0.00780668517764     0.00107148535835     0.00010343444807
   27     0.00119785327465     0.00031133980757     0.00005729749070     0.00002294552752     0.00001882825517
   28     0.00118840980790     0.00009571415350     0.00014841323035     0.00002079494745     0.00000445992303
   29     0.00028198922896     0.00005211041876     0.00003008185014     0.00001162423190     0.00000762266157
   30     0.00032836364983     0.00086483974584     0.01061062146263     0.06024375926783     0.00006023864937
   31     0.00028865542668     0.00087688382471     0.01077937558106     0.00242436583632     0.00007752146543
   32     0.01020785308168     0.00019366944093     0.00010967588840     0.00007109766186     0.00005655669041
   33     0.00167278336063     0.00038172133047     0.00011761921289     0.00003819086075     0.00017793316084
   34     0.00004041081813     0.00022838455046     0.00301946823272     0.01134448736990     0.00002177993794

                 6                   7                   8                   9                  10

    1     0.02732630763711     1.41525450827731     0.01844079861891     0.10884788366592     0.13127145954718
    2     0.12729232692636     0.18107993106230     0.00584899776080     0.02134841916794     0.06632753437292
    3     1.42038854138401     0.02139486561206     0.00072974099942     0.00277612019505     0.00630632550164
    4     0.13028153326713     0.00590755242636     0.00028032429125     0.00073835849205     0.00226624253977
    5     0.00971650592215     0.01357150514817     0.00125969246024     0.00105654290974     0.01316066103039
    6     0.00000000000000     0.00481535567718     0.00019410364445     0.00069610247064     0.00167134607257
    7     0.00481535567718     0.00000000000000     0.13571019658911     1.14907154857557     1.10334429797566
    8     0.00019410364445     0.13571019658911     0.00000000000000     0.19579162834657     1.34502946089601
    9     0.00069610247064     1.14907154857557     0.19579162834657     0.00000000000000     0.13448976132550
   10     0.00167134607257     1.10334429797566     1.34502946089601     0.13448976132550     0.00000000000000
   11     0.00086630817591     0.16716030484770     1.26209045984712     1.80309398972848     0.14062979848848
   12     0.01524240055615     0.11276265554842     0.00267820145883     0.03443221164300     0.01505007432778
   13     0.00248951693546     0.05013797797091     0.00207793788976     0.03975540372596     0.00589804732662
   14     0.03543797979373     0.02735334582386     0.00065513266801     0.00624703150908     0.00399103947599
   15     0.00114717525031     0.00499756919441     0.00036633996309     0.00697601600869     0.00066996459043
   16     0.00631821668360     0.00332716187012     0.00015698474221     0.00175208213309     0.00054915820226
   17     0.00105191492780     0.00687741387850     0.00018170116390     0.00161572876461     0.00139206783164
   18     0.14570267543728     0.00098467978710     0.00003514273987     0.00013331247058     0.00036900985941
   19     1.51618881806773     0.00082665496627     0.00003115223740     0.00012403991592     0.00026965031761
   20     0.13876058447053     0.00038488084064     0.00005300641159     0.00012462075229     0.00020072628790
   21     0.00942525767659     0.00084944956883     0.00001698851518     0.00005205200476     0.00030446147067
   22     0.81068696720659     0.00042596898407     0.00001930123622     0.00005277683877     0.00010558587117
   23     0.00002022136438     0.01146679466831     0.80996429915477     0.01062823568804     0.04351705958835
   24     0.00214663784685     0.14277016513732     0.21162125231260     0.02219003123972     2.01260649447536
   25     0.00005047537045     0.00992682027105     0.00047851894653     0.01013131811633     0.00076908018182
   26     0.01327888331867     0.00158681548494     0.00004743314728     0.00016760950147     0.00010269533392
   27     0.00004014490845     0.00018560405289     0.00001203744893     0.00011866933339     0.00002986611926
   28     0.00024315781417     0.00034574203248     0.00001646172056     0.00007903682986     0.00007987148678
   29     0.00004007212193     0.00006826071960     0.00000812109250     0.00003218823039     0.00001692083880
   30     0.00241383804753     0.00014520668795     0.00000417536697     0.00002158000300     0.00006289464714
   31     0.06043545073306     0.00007725908972     0.00000224287716     0.00001902839272     0.00004140980385
   32     0.00006857190085     0.04771548662705     0.01114563931438     0.81414851783056     0.00940087439055
   33     0.00003212531680     0.01386645005483     0.05482033865188     0.05862654283922     0.01213442084468
   34     0.01130825273374     0.00001433412632     0.00000132442055     0.00000282643500     0.00000677343170

                11                  12                  13                  14                  15

    1     0.06532581631075     1.00963763915581     0.12027397528414     0.11476919237117     0.01669316365340
    2     0.02669068284061     0.09902158265950     0.02055623374015     0.03539665101489     0.00231882546179
    3     0.00243325101884     0.03390097510531     0.00731300872323     0.02798194101654     0.00164750198312
    4     0.00107046327989     0.01452568658862     0.00443850085420     0.00838069059487     0.00067272762639
    5     0.00037632438292     0.00777243395368     0.00091335037871     0.00111844811361     0.00024715617925
    6     0.00086630817591     0.01524240055615     0.00248951693546     0.03543797979373     0.00114717525031
    7     0.16716030484770     0.11276265554842     0.05013797797091     0.02735334582386     0.00499756919441
    8     1.26209045984712     0.00267820145883     0.00207793788976     0.00065513266801     0.00036633996309
    9     1.80309398972848     0.03443221164300     0.03975540372596     0.00624703150908     0.00697601600869
   10     0.14062979848848     0.01505007432778     0.00589804732662     0.00399103947599     0.00066996459043
   11     0.00000000000000     0.00583364382013     0.00687873578657     0.00238777383005     0.00087960805101
   12     0.00583364382013     0.00000000000000     1.40419115561935     1.40196914010245     0.13315441849107
   13     0.00687873578657     1.40419115561935     0.00000000000000     0.12775508183936     1.51827933702114
   14     0.00238777383005     1.40196914010245     0.12775508183936     0.00000000000000     0.14395307359292
   15     0.00087960805101     0.13315441849107     1.51827933702114     0.14395307359292     0.00000000000000
   16     0.00042214017920     0.13401662309581     0.14393456147994     1.51550311264810     0.13753790506786
   17     0.00130609709246     0.13599813228188     0.13871164477892     0.13816929895863     1.51758257304876
   18     0.00023078623295     0.00208473485064     0.00055643300800     0.00261962318639     0.00027343308820
   19     0.00015584804025     0.00270584353182     0.00058170377741     0.00817442474266     0.00061897206108
   20     0.00005099922009     0.00129433190823     0.00036491422848     0.00193514091093     0.00025729690918
   21     0.00003677764969     0.00203241833921     0.00054549596779     0.00037544466938     0.00002065525120
   22     0.00005137722484     0.00238462272020     0.00009832398707     0.00803976541351     0.00007866385495
   23     0.04125527752521     0.00044949615661     0.00012610536048     0.00010427256018     0.00002789704872
   24     0.02456643018224     0.00446848465763     0.00308727662741     0.00283544823015     0.00036761131848
   25     0.00102921400999     0.05400806220571     0.80501327610368     0.00921286748200     0.05449345679948
   26     0.00002598407873     0.05387901294445     0.00921835705006     0.80253002844873     0.00204689238276
   27     0.00004024736014     0.01066444181899     0.06021384473911     0.00253484026721     0.83315445937386
   28     0.00005306794585     0.01063864224286     0.00250474156340     0.06023951372454     0.01123965798558
   29     0.00000905612794     0.00282878701214     0.01119043526274     0.01118179206876     0.05889876230088
   30     0.00004606299812     0.00007806556916     0.00001754793323     0.00005583351187     0.00000684099049
   31     0.00001468595756     0.00008238616132     0.00001394900307     0.00016397661361     0.00000810633100
   32     0.05908984454315     0.00833855154542     0.01248436862268     0.00118306239102     0.00226559059878
   33     0.83560509083937     0.00030612694599     0.00020494168761     0.00006532436905     0.00002033435431
   34     0.00000116887217     0.00001924610045     0.00000825147026     0.00004093293302     0.00000345698262

                16                  17                  18                  19                  20

    1     0.01672104507352     0.01056318221707     0.00354881125370     0.00330658157425     0.00409533686523
    2     0.00318538681343     0.00433274135529     0.01650727089502     0.01636719421436     0.00886037412434
    3     0.00502388456927     0.00150314300599     0.13666053345767     0.13649089396504     0.14001903753437
    4     0.00133294407735     0.00050720765343     1.51648429896380     0.14594117978061     0.13893086235383
    5     0.00009394679664     0.00015947218437     0.00062884703657     0.00065277865840     0.00277511444928
    6     0.00631821668360     0.00105191492780     0.14570267543728     1.51618881806773     0.13876058447053
    7     0.00332716187012     0.00687741387850     0.00098467978710     0.00082665496627     0.00038488084064
    8     0.00015698474221     0.00018170116390     0.00003514273987     0.00003115223740     0.00005300641159
    9     0.00175208213309     0.00161572876461     0.00013331247058     0.00012403991592     0.00012462075229
   10     0.00054915820226     0.00139206783164     0.00036900985941     0.00026965031761     0.00020072628790
   11     0.00042214017920     0.00130609709246     0.00023078623295     0.00015584804025     0.00005099922009
   12     0.13401662309581     0.13599813228188     0.00208473485064     0.00270584353182     0.00129433190823
   13     0.14393456147994     0.13871164477892     0.00055643300800     0.00058170377741     0.00036491422848
   14     1.51550311264810     0.13816929895863     0.00261962318639     0.00817442474266     0.00193514091093
   15     0.13753790506786     1.51758257304876     0.00027343308820     0.00061897206108     0.00025729690918
   16     0.00000000000000     1.51643119342016     0.00046996692207     0.00194342898313     0.00041790612433
   17     1.51643119342016     0.00000000000000     0.00018738359370     0.00024129817567     0.00013798058949
   18     0.00046996692207     0.00018738359370     0.00000000000000     0.13763291864396     1.52151191267846
   19     0.00194342898313     0.00024129817567     0.13763291864396     0.00000000000000     1.51891468215974
   20     0.00041790612433     0.00013798058949     1.52151191267846     1.51891468215974     0.00000000000000
   21     0.00002319665146     0.00003398128907     0.05586845390069     0.00240543596141     0.01076413616466
   22     0.00070870630262     0.00010238996404     0.00232440799397     0.05542315537232     0.01067698978995
   23     0.00002863830053     0.00003502980015     0.00000249591863     0.00000302073996     0.00000396754015
   24     0.00030720357616     0.00137165109380     0.00034211736490     0.00035197909628     0.00072508615573
   25     0.00209472977775     0.01022904931822     0.00002405624516     0.00002668750205     0.00001668936010
   26     0.05426608859345     0.01011335455282     0.00054689463926     0.00229076681627     0.00023082198948
   27     0.01125698560082     0.05880511019151     0.00000501312713     0.00000956323135     0.00000413822658
   28     0.83270480761706     0.05880722720825     0.00000825105232     0.00003102959647     0.00000856413849
   29     0.05900480988417     0.83557671373582     0.00000670116553     0.00002074994059     0.00000449081256
   30     0.00000774547739     0.00000476720337     0.83370750019887     0.01132814285173     0.05897003880524
   31     0.00002098070746     0.00001070927690     0.01129657199580     0.83328388130647     0.05893193611890
   32     0.00057296805882     0.00036102607544     0.00002578949250     0.00002296701488     0.00001736186977
   33     0.00001278868343     0.00000823097375     0.00000636105280     0.00000646777655     0.00000877970369
   34     0.00001043014191     0.00000388839512     0.05889503192391     0.05889129246088     0.83551645916277

                21                  22                  23                  24                  25

    1     0.00527563727480     0.00363152867912     0.00153290692976     0.07864301551558     0.01676561717050
    2     0.01825834598583     0.01756922429113     0.00028578262507     0.11899671897620     0.00079679496180
    3     0.05662436172678     0.05582553970741     0.00006783106834     0.01174929883337     0.00032996735685
    4     0.81264677134332     0.00921947534127     0.00002059438250     0.00334767898384     0.00020691443811
    5     0.00016165796873     0.00005052136362     0.00010241081638     0.06468024640343     0.00002000057074
    6     0.00942525767659     0.81068696720659     0.00002022136438     0.00214663784685     0.00005047537045
    7     0.00084944956883     0.00042596898407     0.01146679466831     0.14277016513732     0.00992682027105
    8     0.00001698851518     0.00001930123622     0.80996429915477     0.21162125231260     0.00047851894653
    9     0.00005205200476     0.00005277683877     0.01062823568804     0.02219003123972     0.01013131811633
   10     0.00030446147067     0.00010558587117     0.04351705958835     2.01260649447536     0.00076908018182
   11     0.00003677764969     0.00005137722484     0.04125527752521     0.02456643018224     0.00102921400999
   12     0.00203241833921     0.00238462272020     0.00044949615661     0.00446848465763     0.05400806220571
   13     0.00054549596779     0.00009832398707     0.00012610536048     0.00308727662741     0.80501327610368
   14     0.00037544466938     0.00803976541351     0.00010427256018     0.00283544823015     0.00921286748200
   15     0.00002065525120     0.00007866385495     0.00002789704872     0.00036761131848     0.05449345679948
   16     0.00002319665146     0.00070870630262     0.00002863830053     0.00030720357616     0.00209472977775
   17     0.00003398128907     0.00010238996404     0.00003502980015     0.00137165109380     0.01022904931822
   18     0.05586845390069     0.00232440799397     0.00000249591863     0.00034211736490     0.00002405624516
   19     0.00240543596141     0.05542315537232     0.00000302073996     0.00035197909628     0.00002668750205
   20     0.01076413616466     0.01067698978995     0.00000396754015     0.00072508615573     0.00001668936010
   21     0.00000000000000     0.00037397181704     0.00000066458018     0.00022077300610     0.00001501042386
   22     0.00037397181704     0.00000000000000     0.00000069047180     0.00005674171915     0.00001465359419
   23     0.00000066458018     0.00000069047180     0.00000000000000     0.00998639234232     0.00000681218283
   24     0.00022077300610     0.00005674171915     0.00998639234232     0.00000000000000     0.00015109306031
   25     0.00001501042386     0.00001465359419     0.00000681218283     0.00015109306031     0.00000000000000
   26     0.00000484808391     0.00194861419893     0.00000272430839     0.00013466195670     0.00033798388845
   27     0.00000354871467     0.00000896166160     0.00000103705594     0.00002715431974     0.00517102709935
   28     0.00000217756826     0.00002531130081     0.00000082803927     0.00004213468406     0.00024037906770
   29     0.00000295482236     0.00001417203822     0.00000039990305     0.00000450643446     0.00024965544167
   30     0.00509409260734     0.00023191686836     0.00000030735780     0.00003473956519     0.00000356376626
   31     0.00023765493796     0.00513028855487     0.00000042447240     0.00002918928052     0.00000047334961
   32     0.00001275416762     0.00001951012030     0.00046436342383     0.00194516449007     0.00132716329930
   33     0.00000280914100     0.00000314199837     0.00272812872177     0.00157166142354     0.00000641032958
   34     0.00023385295102     0.00023504387539     0.00000012925363     0.00000710581875     0.00000090058533

                26                  27                  28                  29                  30

    1     0.01501824133587     0.00119785327465     0.00118840980790     0.00028198922896     0.00032836364983
    2     0.00601143970708     0.00031133980757     0.00009571415350     0.00005211041876     0.00086483974584
    3     0.00780668517764     0.00005729749070     0.00014841323035     0.00003008185014     0.01061062146263
    4     0.00107148535835     0.00002294552752     0.00002079494745     0.00001162423190     0.06024375926783
    5     0.00010343444807     0.00001882825517     0.00000445992303     0.00000762266157     0.00006023864937
    6     0.01327888331867     0.00004014490845     0.00024315781417     0.00004007212193     0.00241383804753
    7     0.00158681548494     0.00018560405289     0.00034574203248     0.00006826071960     0.00014520668795
    8     0.00004743314728     0.00001203744893     0.00001646172056     0.00000812109250     0.00000417536697
    9     0.00016760950147     0.00011866933339     0.00007903682986     0.00003218823039     0.00002158000300
   10     0.00010269533392     0.00002986611926     0.00007987148678     0.00001692083880     0.00006289464714
   11     0.00002598407873     0.00004024736014     0.00005306794585     0.00000905612794     0.00004606299812
   12     0.05387901294445     0.01066444181899     0.01063864224286     0.00282878701214     0.00007806556916
   13     0.00921835705006     0.06021384473911     0.00250474156340     0.01119043526274     0.00001754793323
   14     0.80253002844873     0.00253484026721     0.06023951372454     0.01118179206876     0.00005583351187
   15     0.00204689238276     0.83315445937386     0.01123965798558     0.05889876230088     0.00000684099049
   16     0.05426608859345     0.01125698560082     0.83270480761706     0.05900480988417     0.00000774547739
   17     0.01011335455282     0.05880511019151     0.05880722720825     0.83557671373582     0.00000476720337
   18     0.00054689463926     0.00000501312713     0.00000825105232     0.00000670116553     0.83370750019887
   19     0.00229076681627     0.00000956323135     0.00003102959647     0.00002074994059     0.01132814285173
   20     0.00023082198948     0.00000413822658     0.00000856413849     0.00000449081256     0.05897003880524
   21     0.00000484808391     0.00000354871467     0.00000217756826     0.00000295482236     0.00509409260734
   22     0.00194861419893     0.00000896166160     0.00002531130081     0.00001417203822     0.00023191686836
   23     0.00000272430839     0.00000103705594     0.00000082803927     0.00000039990305     0.00000030735780
   24     0.00013466195670     0.00002715431974     0.00004213468406     0.00000450643446     0.00003473956519
   25     0.00033798388845     0.00517102709935     0.00024037906770     0.00024965544167     0.00000356376626
   26     0.00000000000000     0.00023886093368     0.00528749057187     0.00023780969066     0.00001060315642
   27     0.00023886093368     0.00000000000000     0.00025167196509     0.00519835573023     0.00000152680303
   28     0.00528749057187     0.00025167196509     0.00000000000000     0.00520609959295     0.00000092250633
   29     0.00023780969066     0.00519835573023     0.00520609959295     0.00000000000000     0.00000099467493
   30     0.00001060315642     0.00000152680303     0.00000092250633     0.00000099467493     0.00000000000000
   31     0.00003234008223     0.00000012097315     0.00000194787941     0.00000044806130     0.00026811219687
   32     0.00000140897057     0.00003795420040     0.00000236531896     0.00000925074665     0.00000022707894
   33     0.00000629841366     0.00000425461299     0.00000108364030     0.00000067893938     0.00000080977946
   34     0.00000731661887     0.00000018881841     0.00000136789487     0.00000046098084     0.00521509932947

                31                  32                  33                  34

    1     0.00028865542668     0.01020785308168     0.00167278336063     0.00004041081813
    2     0.00087688382471     0.00019366944093     0.00038172133047     0.00022838455046
    3     0.01077937558106     0.00010967588840     0.00011761921289     0.00301946823272
    4     0.00242436583632     0.00007109766186     0.00003819086075     0.01134448736990
    5     0.00007752146543     0.00005655669041     0.00017793316084     0.00002177993794
    6     0.06043545073306     0.00006857190085     0.00003212531680     0.01130825273374
    7     0.00007725908972     0.04771548662705     0.01386645005483     0.00001433412632
    8     0.00000224287716     0.01114563931438     0.05482033865188     0.00000132442055
    9     0.00001902839272     0.81414851783056     0.05862654283922     0.00000282643500
   10     0.00004140980385     0.00940087439055     0.01213442084468     0.00000677343170
   11     0.00001468595756     0.05908984454315     0.83560509083937     0.00000116887217
   12     0.00008238616132     0.00833855154542     0.00030612694599     0.00001924610045
   13     0.00001394900307     0.01248436862268     0.00020494168761     0.00000825147026
   14     0.00016397661361     0.00118306239102     0.00006532436905     0.00004093293302
   15     0.00000810633100     0.00226559059878     0.00002033435431     0.00000345698262
   16     0.00002098070746     0.00057296805882     0.00001278868343     0.00001043014191
   17     0.00001070927690     0.00036102607544     0.00000823097375     0.00000388839512
   18     0.01129657199580     0.00002578949250     0.00000636105280     0.05889503192391
   19     0.83328388130647     0.00002296701488     0.00000646777655     0.05889129246088
   20     0.05893193611890     0.00001736186977     0.00000877970369     0.83551645916277
   21     0.00023765493796     0.00001275416762     0.00000280914100     0.00023385295102
   22     0.00513028855487     0.00001951012030     0.00000314199837     0.00023504387539
   23     0.00000042447240     0.00046436342383     0.00272812872177     0.00000012925363
   24     0.00002918928052     0.00194516449007     0.00157166142354     0.00000710581875
   25     0.00000047334961     0.00132716329930     0.00000641032958     0.00000090058533
   26     0.00003234008223     0.00000140897057     0.00000629841366     0.00000731661887
   27     0.00000012097315     0.00003795420040     0.00000425461299     0.00000018881841
   28     0.00000194787941     0.00000236531896     0.00000108364030     0.00000136789487
   29     0.00000044806130     0.00000925074665     0.00000067893938     0.00000046098084
   30     0.00026811219687     0.00000022707894     0.00000080977946     0.00521509932947
   31     0.00000000000000     0.00000067227055     0.00000126387311     0.00521266575148
   32     0.00000067227055     0.00000000000000     0.00250671777322     0.00000014328019
   33     0.00000126387311     0.00250671777322     0.00000000000000     0.00000021248440
   34     0.00521266575148     0.00000014328019     0.00000021248440     0.00000000000000



  Atomic Valences: 

 #  #
 Irrep: 1
      1:    4.796856228382386
      2:    4.191632135859913
      3:    4.796115420040123
      4:    4.464541336131144
      5:    0.925111125365381
      6:    4.495777769660141
      7:    4.634406763577009
      8:    4.059769136934053
      9:    4.425341215083900
     10:    5.052065034453844
     11:    4.449707316488397
     12:    4.716450229118654
     13:    4.499834435746919
     14:    4.502361224876272
     15:    4.450905442815203
     16:    4.450157728255116
     17:    4.452413304000554
     18:    4.449681420176832
     19:    4.455263203480531
     20:    4.454969168657001
     21:    0.981926092201388
     22:    0.985538310361868
     23:    0.932835239349766
     24:    2.721386146127968
     25:    0.983148722276760
     26:    0.988593885183658
     27:    0.989627893043528
     28:    0.989521345050808
     29:    0.990197076762389
     30:    0.989840978758003
     31:    0.989764978186278
     32:    0.983807168179719
     33:    0.984946043150335
     34:    0.990292688142207


    Psi4 stopped on: Thursday, 09 June 2022 07:33AM
    Psi4 wall time for execution: 0:06:31.99

*** Psi4 exiting successfully. Buy a developer a beer!
