
    -----------------------------------------------------------------------
          Psi4: An Open-Source Ab Initio Electronic Structure Package
                               Psi4 1.5 release

                         Git: Rev {HEAD} e9f4d6d 


    D. G. A. Smith, L. A. Burns, A. C. Simmonett, R. M. Parrish,
    M. C. Schieber, R. Galvelis, P. Kraus, H. Kruse, R. Di Remigio,
    A. Alenaizan, A. M. James, S. Lehtola, J. P. Misiewicz, M. Scheurer,
    R. A. Shaw, J. B. Schriber, Y. Xie, Z. L. Glick, D. A. Sirianni,
    J. S. O'Brien, J. M. Waldrop, A. Kumar, E. G. Hohenstein,
    B. P. Pritchard, B. R. Brooks, H. F. Schaefer III, A. Yu. Sokolov,
    K. Patkowski, A. E. DePrince III, U. Bozkaya, R. A. King,
    F. A. Evangelista, J. M. Turney, T. D. Crawford, C. D. Sherrill,
    J. Chem. Phys. 152(18) 184108 (2020). https://doi.org/10.1063/5.0006002

                            Additional Code Authors
    E. T. Seidl, C. L. Janssen, E. F. Valeev, M. L. Leininger,
    J. F. Gonthier, R. M. Richard, H. R. McAlexander, M. Saitow, X. Wang,
    P. Verma, M. H. Lechner, and A. Jiang

             Previous Authors, Complete List of Code Contributors,
                       and Citations for Specific Modules
    https://github.com/psi4/psi4/blob/master/codemeta.json
    https://github.com/psi4/psi4/graphs/contributors
    http://psicode.org/psi4manual/master/introduction.html#citing-psifour

    -----------------------------------------------------------------------


    Psi4 started on: Thursday, 09 June 2022 06:47AM

    Process ID: 1295668
    Host:       node74.bme.utexas.edu
    PSIDATADIR: /home/bdw2292/miniconda3/envs/newamoebamdpoltype/share/psi4
    Memory:     500.0 MiB
    Threads:    1
    
  ==> Input File <==

--------------------------------------------------------------------------
molecule { 
0 1
 C   -0.501261   -0.083674    0.347152
 N    0.741724   -0.613085    0.534664
 C    2.005180   -0.344196   -0.047248
 C    2.238372    0.103911   -1.351303
 H    0.799912   -1.136971    1.414541
 C    3.107884   -0.617439    0.779495
 C   -1.470217   -0.351623    1.294126
 N   -2.385260   -1.118630    3.214519
 C   -2.892370   -0.037881    1.305506
 C   -1.187874   -1.064391    2.537459
 C   -3.406042   -0.505594    2.465096
 C   -0.899241    0.583699   -0.920843
 C   -1.490007    1.849322   -0.897943
 C   -0.870011   -0.134737   -2.122683
 C   -1.986039    2.416186   -2.070117
 C   -1.374530    0.427880   -3.289861
 C   -1.926022    1.708976   -3.267896
 C    3.545903    0.287593   -1.799507
 C    4.405118   -0.442067    0.318987
 C    4.634636    0.015330   -0.978001
 H    1.426495    0.325843   -2.019876
 H    2.932824   -0.959501    1.791705
 H   -2.488501   -1.567148    4.103914
 O   -0.093971   -1.561477    2.936700
 H   -1.547403    2.389863    0.036994
 H   -0.462212   -1.136840   -2.132253
 H   -2.424572    3.404288   -2.044355
 H   -1.348307   -0.135743   -4.212450
 H   -2.316084    2.146358   -4.176760
 H    3.705075    0.640847   -2.809512
 H    5.236042   -0.657370    0.976957
 H   -3.437768    0.463372    0.526052
 H   -4.413427   -0.470457    2.838545
 H    5.643582    0.155864   -1.339755
}
memory 8.166666666666666GB
set_num_threads(2)
psi4_io.set_default_path("/scratch/bdw2292/Psi4-1_16_Index_0-farH_in17")
set freeze_core True
E, wfn = energy('wb97x-d/6-311+G*',return_wfn=True)
oeprop(wfn,"WIBERG_LOWDIN_INDICES")
clean()
--------------------------------------------------------------------------

  Memory set to   7.606 GiB by Python driver.
  Threads set to 2 by Python driver.

Scratch directory: /scratch/bdw2292/Psi4-1_16_Index_0-farH_in17/

Scratch directory: /scratch/bdw2292/Psi4-1_16_Index_0-farH_in17/

*** tstart() called on node74.bme.utexas.edu
*** at Thu Jun  9 06:47:21 2022

   => Loading Basis Set <=

    Name: 6-311+G*
    Role: ORBITAL
    Keyword: BASIS
    atoms 1, 3-4, 6-7, 9-20 entry C          line   130 file /home/bdw2292/miniconda3/envs/newamoebamdpoltype/share/psi4/basis/6-311pgs.gbs 
    atoms 2, 8              entry N          line   151 file /home/bdw2292/miniconda3/envs/newamoebamdpoltype/share/psi4/basis/6-311pgs.gbs 
    atoms 5, 21-23, 25-34   entry H          line    47 file /home/bdw2292/miniconda3/envs/newamoebamdpoltype/share/psi4/basis/6-311pgs.gbs 
    atoms 24                entry O          line   172 file /home/bdw2292/miniconda3/envs/newamoebamdpoltype/share/psi4/basis/6-311pgs.gbs 

   => WB97X-D: Empirical Dispersion <=

    Chai and Head-Gordon Dispersion Correction
    Chai, J.-D.; Head-Gordon, M. (2010), J. Chem. Phys., 132: 6615-6620

        s6 =       1.000000


         ---------------------------------------------------------
                                   SCF
               by Justin Turney, Rob Parrish, Andy Simmonett
                          and Daniel G. A. Smith
                              RKS Reference
                        2 Threads,   7788 MiB Core
         ---------------------------------------------------------

  ==> Geometry <==

    Molecular point group: c1
    Full point group: C1

    Geometry (in Angstrom), charge = 0, multiplicity = 1:

       Center              X                  Y                   Z               Mass       
    ------------   -----------------  -----------------  -----------------  -----------------
         C           -0.501261024576    -0.083674052786     0.347152035818    12.000000000000
         N            0.741723975424    -0.613085052786     0.534664035818    14.003074004430
         C            2.005179975424    -0.344196052786    -0.047247964182    12.000000000000
         C            2.238371975424     0.103910947214    -1.351302964182    12.000000000000
         H            0.799911975424    -1.136971052786     1.414541035818     1.007825032230
         C            3.107883975424    -0.617439052786     0.779495035818    12.000000000000
         C           -1.470217024576    -0.351623052786     1.294126035818    12.000000000000
         N           -2.385260024576    -1.118630052786     3.214519035818    14.003074004430
         C           -2.892370024576    -0.037881052786     1.305506035818    12.000000000000
         C           -1.187874024576    -1.064391052786     2.537459035818    12.000000000000
         C           -3.406042024576    -0.505594052786     2.465096035818    12.000000000000
         C           -0.899241024576     0.583698947214    -0.920842964182    12.000000000000
         C           -1.490007024576     1.849321947214    -0.897942964182    12.000000000000
         C           -0.870011024576    -0.134737052786    -2.122682964182    12.000000000000
         C           -1.986039024576     2.416185947214    -2.070116964182    12.000000000000
         C           -1.374530024576     0.427879947214    -3.289860964182    12.000000000000
         C           -1.926022024576     1.708975947214    -3.267895964182    12.000000000000
         C            3.545902975424     0.287592947214    -1.799506964182    12.000000000000
         C            4.405117975424    -0.442067052786     0.318987035818    12.000000000000
         C            4.634635975424     0.015329947214    -0.978000964182    12.000000000000
         H            1.426494975424     0.325842947214    -2.019875964182     1.007825032230
         H            2.932823975424    -0.959501052786     1.791705035818     1.007825032230
         H           -2.488501024576    -1.567148052786     4.103914035818     1.007825032230
         O           -0.093971024576    -1.561477052786     2.936700035818    15.994914619570
         H           -1.547403024576     2.389862947214     0.036994035818     1.007825032230
         H           -0.462212024576    -1.136840052786    -2.132252964182     1.007825032230
         H           -2.424572024576     3.404287947214    -2.044354964182     1.007825032230
         H           -1.348307024576    -0.135743052786    -4.212449964182     1.007825032230
         H           -2.316084024576     2.146357947214    -4.176759964182     1.007825032230
         H            3.705074975424     0.640846947214    -2.809511964182     1.007825032230
         H            5.236041975424    -0.657370052786     0.976957035818     1.007825032230
         H           -3.437768024576     0.463371947214     0.526052035818     1.007825032230
         H           -4.413427024576    -0.470457052786     2.838545035818     1.007825032230
         H            5.643581975424     0.155863947214    -1.339754964182     1.007825032230

  Running in c1 symmetry.

  Rotational constants: A =      0.01381  B =      0.00991  C =      0.00610 [cm^-1]
  Rotational constants: A =    414.10530  B =    297.15567  C =    182.96962 [MHz]
  Nuclear repulsion = 1416.808533050203550

  Charge       = 0
  Multiplicity = 1
  Electrons    = 138
  Nalpha       = 69
  Nbeta        = 69

  ==> Algorithm <==

  SCF Algorithm Type is DF.
  DIIS enabled.
  MOM disabled.
  Fractional occupation disabled.
  Guess Type is SAD.
  Energy threshold   = 1.00e-06
  Density threshold  = 1.00e-06
  Integral threshold = 1.00e-12

  ==> Primary Basis <==

  Basis Set: 6-311+G*
    Blend: 6-311+G*
    Number of shells: 242
    Number of basis functions: 482
    Number of Cartesian functions: 502
    Spherical Harmonics?: true
    Max angular momentum: 2

  ==> DFT Potential <==

   => LibXC <=

    Version 5.1.5
    S. Lehtola, C. Steigemann, M. J. Oliveira, and M. A. Marques, SoftwareX 7, 1 (2018) (10.1016/j.softx.2017.11.002)

   => Composite Functional: WB97X-D <= 

    wB97X-D Hyb-GGA Exchange-Correlation Functional

    J.-D. Chai and M. Head-Gordon, Phys. Chem. Chem. Phys. 10, 6615 (2008) (10.1039/B810189B)

    Deriv               =              1
    GGA                 =           TRUE
    Meta                =          FALSE

    Exchange Hybrid     =           TRUE
    MP2 Hybrid          =          FALSE

   => Exchange-Correlation Functionals <=

    1.0000   wB97X-D range-separated functional

   => Exact (HF) Exchange <=

    0.7780            HF,LR [omega = 0.2000]
    0.2220               HF 

   => LibXC Density Thresholds  <==

    XC_HYB_GGA_XC_WB97X_D:  1.00E-14 

   => Molecular Quadrature <=

    Radial Scheme          =       TREUTLER
    Pruning Scheme         =           NONE
    Nuclear Scheme         =       TREUTLER

    BS radius alpha        =              1
    Pruning alpha          =              1
    Radial Points          =             75
    Spherical Points       =            302
    Total Points           =         703493
    Total Blocks           =           5008
    Max Points             =            256
    Max Functions          =            378
    Weights Tolerance      =       1.00E-15

   => Loading Basis Set <=

    Name: (6-311+G* AUX)
    Role: JKFIT
    Keyword: DF_BASIS_SCF
    atoms 1, 3-4, 6-7, 9-20 entry C          line   200 file /home/bdw2292/miniconda3/envs/newamoebamdpoltype/share/psi4/basis/heavy-aug-cc-pvtz-jkfit.gbs 
    atoms 2, 8              entry N          line   262 file /home/bdw2292/miniconda3/envs/newamoebamdpoltype/share/psi4/basis/heavy-aug-cc-pvtz-jkfit.gbs 
    atoms 5, 21-23, 25-34   entry H          line   116 file /home/bdw2292/miniconda3/envs/newamoebamdpoltype/share/psi4/basis/heavy-aug-cc-pvtz-jkfit.gbs 
    atoms 24                entry O          line   324 file /home/bdw2292/miniconda3/envs/newamoebamdpoltype/share/psi4/basis/heavy-aug-cc-pvtz-jkfit.gbs 

  ==> Integral Setup <==

  ==> DiskDFJK: Density-Fitted J/K Matrices <==

    J tasked:                  Yes
    K tasked:                  Yes
    wK tasked:                 Yes
    Omega:               2.000E-01
    OpenMP threads:              2
    Integrals threads:           2
    Memory [MiB]:             1953
    Algorithm:                Disk
    Integral Cache:           NONE
    Schwarz Cutoff:          1E-12
    Fitting Condition:       1E-10

   => Auxiliary Basis Set <=

  Basis Set: (6-311+G* AUX)
    Blend: HEAVY-AUG-CC-PVTZ-JKFIT
    Number of shells: 740
    Number of basis functions: 2500
    Number of Cartesian functions: 3110
    Spherical Harmonics?: true
    Max angular momentum: 4

  Cached 50.0% of DFT collocation blocks in 2.690 [GiB].

  Minimum eigenvalue in the overlap matrix is 2.4985532789E-07.
  Reciprocal condition number of the overlap matrix is 1.4880184466E-08.
    Using symmetric orthogonalization.

  ==> Pre-Iterations <==

  SCF Guess: Superposition of Atomic Densities via on-the-fly atomic UHF (no occupation information).

   -------------------------
    Irrep   Nso     Nmo    
   -------------------------
     A        482     482 
   -------------------------
    Total     482     482
   -------------------------

  ==> Iterations <==

                           Total Energy        Delta E     RMS |[F,P]|

   @DF-RKS iter SAD:  -840.40918728282429   -8.40409e+02   0.00000e+00 
   @DF-RKS iter   1:  -840.06356018771226    3.45627e-01   2.62879e-03 DIIS
   @DF-RKS iter   2:  -840.43010371883906   -3.66544e-01   2.07099e-03 DIIS
   @DF-RKS iter   3:  -840.85356571767920   -4.23462e-01   3.62562e-04 DIIS
   @DF-RKS iter   4:  -840.86322237414595   -9.65666e-03   1.68084e-04 DIIS
   @DF-RKS iter   5:  -840.86574560727922   -2.52323e-03   4.00743e-05 DIIS
   @DF-RKS iter   6:  -840.86589922373662   -1.53616e-04   1.26726e-05 DIIS
   @DF-RKS iter   7:  -840.86591711528968   -1.78916e-05   3.67082e-06 DIIS
   @DF-RKS iter   8:  -840.86591885546591   -1.74018e-06   1.51026e-06 DIIS
   @DF-RKS iter   9:  -840.86591935140325   -4.95937e-07   4.78668e-07 DIIS
  Energy and wave function converged.


  ==> Post-Iterations <==

   Electrons on quadrature grid:
      Ntotal   =  138.0000723867 ; deviation = 7.239e-05 

    Orbital Energies [Eh]
    ---------------------

    Doubly Occupied:                                                      

       1A    -19.208377     2A    -14.472544     3A    -14.467252  
       4A    -10.380878     5A    -10.367935     6A    -10.342764  
       7A    -10.320060     8A    -10.318328     9A    -10.308147  
      10A    -10.307372    11A    -10.306636    12A    -10.305879  
      13A    -10.305366    14A    -10.293096    15A    -10.292680  
      16A    -10.290433    17A    -10.289772    18A    -10.287157  
      19A    -10.285951    20A    -10.280457    21A     -1.125939  
      22A     -1.069941    23A     -1.050478    24A     -0.983191  
      25A     -0.961365    26A     -0.911797    27A     -0.874734  
      28A     -0.866748    29A     -0.854232    30A     -0.853314  
      31A     -0.813675    32A     -0.770457    33A     -0.727240  
      34A     -0.725632    35A     -0.712130    36A     -0.695927  
      37A     -0.680466    38A     -0.663525    39A     -0.639111  
      40A     -0.615883    41A     -0.600912    42A     -0.584292  
      43A     -0.581718    44A     -0.563855    45A     -0.554172  
      46A     -0.538752    47A     -0.534161    48A     -0.527971  
      49A     -0.522413    50A     -0.516282    51A     -0.513665  
      52A     -0.511643    53A     -0.498290    54A     -0.491889  
      55A     -0.478055    56A     -0.474531    57A     -0.450473  
      58A     -0.449933    59A     -0.445555    60A     -0.437657  
      61A     -0.429734    62A     -0.407329    63A     -0.366763  
      64A     -0.349588    65A     -0.341774    66A     -0.337720  
      67A     -0.334962    68A     -0.309533    69A     -0.258870  

    Virtual:                                                              

      70A     -0.002045    71A      0.037415    72A      0.041145  
      73A      0.052796    74A      0.055283    75A      0.062009  
      76A      0.066677    77A      0.071405    78A      0.075176  
      79A      0.081673    80A      0.082464    81A      0.083997  
      82A      0.094684    83A      0.097350    84A      0.099890  
      85A      0.104941    86A      0.109319    87A      0.109786  
      88A      0.120348    89A      0.122777    90A      0.124039  
      91A      0.128329    92A      0.134228    93A      0.138291  
      94A      0.142367    95A      0.147518    96A      0.152396  
      97A      0.158729    98A      0.165287    99A      0.169444  
     100A      0.174192   101A      0.174522   102A      0.177373  
     103A      0.183653   104A      0.185914   105A      0.187188  
     106A      0.194061   107A      0.197616   108A      0.201080  
     109A      0.201747   110A      0.205848   111A      0.210112  
     112A      0.212252   113A      0.214833   114A      0.216714  
     115A      0.219793   116A      0.220880   117A      0.226665  
     118A      0.227766   119A      0.236167   120A      0.236638  
     121A      0.243297   122A      0.244409   123A      0.247180  
     124A      0.250001   125A      0.255011   126A      0.256498  
     127A      0.261359   128A      0.263093   129A      0.265218  
     130A      0.266699   131A      0.268444   132A      0.271361  
     133A      0.273757   134A      0.276616   135A      0.278590  
     136A      0.279750   137A      0.286312   138A      0.290394  
     139A      0.292493   140A      0.294541   141A      0.296478  
     142A      0.300564   143A      0.305062   144A      0.307837  
     145A      0.309866   146A      0.310764   147A      0.311927  
     148A      0.320489   149A      0.325145   150A      0.327967  
     151A      0.329565   152A      0.334709   153A      0.338292  
     154A      0.342081   155A      0.344724   156A      0.345631  
     157A      0.351387   158A      0.354714   159A      0.362665  
     160A      0.363853   161A      0.370423   162A      0.371385  
     163A      0.381402   164A      0.382175   165A      0.386273  
     166A      0.388064   167A      0.395209   168A      0.399249  
     169A      0.408273   170A      0.411018   171A      0.411916  
     172A      0.416496   173A      0.419750   174A      0.422179  
     175A      0.426242   176A      0.432556   177A      0.439007  
     178A      0.448766   179A      0.450240   180A      0.459595  
     181A      0.479191   182A      0.480893   183A      0.483990  
     184A      0.501054   185A      0.510211   186A      0.514803  
     187A      0.534941   188A      0.541457   189A      0.557897  
     190A      0.565829   191A      0.584152   192A      0.596319  
     193A      0.599016   194A      0.606042   195A      0.607247  
     196A      0.615716   197A      0.621293   198A      0.629004  
     199A      0.629132   200A      0.633876   201A      0.634923  
     202A      0.643710   203A      0.650204   204A      0.654829  
     205A      0.662422   206A      0.668662   207A      0.675766  
     208A      0.687483   209A      0.692695   210A      0.695770  
     211A      0.701519   212A      0.704689   213A      0.710263  
     214A      0.721795   215A      0.730127   216A      0.741169  
     217A      0.743809   218A      0.751457   219A      0.756090  
     220A      0.761490   221A      0.764983   222A      0.773870  
     223A      0.774843   224A      0.784434   225A      0.792536  
     226A      0.795056   227A      0.801408   228A      0.805712  
     229A      0.811275   230A      0.817177   231A      0.822377  
     232A      0.826100   233A      0.828965   234A      0.833138  
     235A      0.838393   236A      0.844482   237A      0.860848  
     238A      0.865649   239A      0.870217   240A      0.874311  
     241A      0.884898   242A      0.894139   243A      0.901614  
     244A      0.904609   245A      0.914445   246A      0.917313  
     247A      0.923014   248A      0.929898   249A      0.932024  
     250A      0.941251   251A      0.945164   252A      0.949927  
     253A      0.956950   254A      0.959385   255A      0.970558  
     256A      0.984274   257A      0.990215   258A      1.011357  
     259A      1.012636   260A      1.017041   261A      1.022537  
     262A      1.036072   263A      1.041881   264A      1.050831  
     265A      1.055631   266A      1.063614   267A      1.082428  
     268A      1.093000   269A      1.099492   270A      1.103719  
     271A      1.109991   272A      1.122947   273A      1.131138  
     274A      1.146476   275A      1.164198   276A      1.165561  
     277A      1.172777   278A      1.181255   279A      1.204864  
     280A      1.210091   281A      1.222808   282A      1.247524  
     283A      1.251158   284A      1.257455   285A      1.267655  
     286A      1.277292   287A      1.287796   288A      1.292603  
     289A      1.299242   290A      1.310291   291A      1.315271  
     292A      1.327777   293A      1.333171   294A      1.350107  
     295A      1.362852   296A      1.377131   297A      1.386442  
     298A      1.400724   299A      1.413976   300A      1.434428  
     301A      1.443286   302A      1.467566   303A      1.481741  
     304A      1.519369   305A      1.569946   306A      1.584262  
     307A      1.601239   308A      1.605607   309A      1.617410  
     310A      1.627649   311A      1.634558   312A      1.637819  
     313A      1.655934   314A      1.667439   315A      1.675034  
     316A      1.685866   317A      1.729706   318A      1.744710  
     319A      1.762928   320A      1.801720   321A      1.823358  
     322A      1.840645   323A      1.848635   324A      1.858015  
     325A      1.862545   326A      1.869812   327A      1.881458  
     328A      1.886792   329A      1.893394   330A      1.903075  
     331A      1.907616   332A      1.926610   333A      1.932411  
     334A      1.939155   335A      1.946638   336A      1.967042  
     337A      1.978368   338A      1.980844   339A      2.005709  
     340A      2.008690   341A      2.017410   342A      2.029441  
     343A      2.032027   344A      2.049209   345A      2.054804  
     346A      2.068224   347A      2.077361   348A      2.086540  
     349A      2.098256   350A      2.102514   351A      2.123811  
     352A      2.144793   353A      2.180086   354A      2.195966  
     355A      2.232072   356A      2.278793   357A      2.304796  
     358A      2.315837   359A      2.325207   360A      2.337492  
     361A      2.353363   362A      2.369206   363A      2.373453  
     364A      2.387730   365A      2.395374   366A      2.400857  
     367A      2.414624   368A      2.424559   369A      2.431881  
     370A      2.453519   371A      2.477027   372A      2.483179  
     373A      2.506061   374A      2.519200   375A      2.540648  
     376A      2.544601   377A      2.559412   378A      2.572396  
     379A      2.630723   380A      2.667647   381A      2.683603  
     382A      2.736143   383A      2.740299   384A      2.759433  
     385A      2.776950   386A      2.791432   387A      2.803666  
     388A      2.846212   389A      2.857231   390A      2.864744  
     391A      2.880546   392A      2.891454   393A      2.895613  
     394A      2.904187   395A      2.922178   396A      2.935227  
     397A      2.953369   398A      2.968585   399A      2.972596  
     400A      2.994381   401A      3.023141   402A      3.030086  
     403A      3.052065   404A      3.060950   405A      3.067863  
     406A      3.085859   407A      3.117540   408A      3.119131  
     409A      3.144475   410A      3.165634   411A      3.182624  
     412A      3.197076   413A      3.239417   414A      3.257755  
     415A      3.292271   416A      3.320599   417A      3.329005  
     418A      3.397849   419A      3.403738   420A      3.409785  
     421A      3.414806   422A      3.422715   423A      3.425793  
     424A      3.429646   425A      3.439226   426A      3.443413  
     427A      3.455811   428A      3.473128   429A      3.518657  
     430A      3.521058   431A      3.550133   432A      3.567342  
     433A      3.613047   434A      3.630402   435A      3.642595  
     436A      3.672526   437A      3.697293   438A      3.746693  
     439A      3.770428   440A      3.774740   441A      3.792287  
     442A      3.888588   443A      3.915969   444A      3.982579  
     445A      4.014524   446A      4.039970   447A      4.116038  
     448A      4.138289   449A      4.150371   450A      4.172853  
     451A      4.237291   452A      4.351742   453A      4.513574  
     454A      4.649921   455A      4.680476   456A      4.877912  
     457A      4.895170   458A      5.126742   459A      5.193917  
     460A      5.251943   461A      5.416393   462A      5.915185  
     463A     23.502742   464A     23.523870   465A     23.717731  
     466A     23.932228   467A     23.981843   468A     23.993473  
     469A     24.010936   470A     24.022571   471A     24.033424  
     472A     24.135433   473A     24.155742   474A     24.171200  
     475A     24.187218   476A     24.230461   477A     24.276097  
     478A     24.281546   479A     24.289640   480A     35.648887  
     481A     35.737235   482A     50.193364  

    Final Occupation by Irrep:
              A 
    DOCC [    69 ]

  @DF-RKS Final Energy:  -840.86591935140325

   => Energetics <=

    Nuclear Repulsion Energy =           1416.8085330502035504
    One-Electron Energy =               -3952.2773661946657739
    Two-Electron Energy =                1777.3109104371135345
    DFT Exchange-Correlation Energy =     -82.6840365819459748
    Empirical Dispersion Energy =          -0.0239600621085961
    VV10 Nonlocal Energy =                  0.0000000000000000
    Total Energy =                       -840.8659193514032495

Computation Completed


Properties will be evaluated at   0.000000,   0.000000,   0.000000 [a0]

Properties computed using the SCF density matrix

  Nuclear Dipole Moment: [e a0]
     X:     1.2283      Y:     3.2434      Z:    -6.6024

  Electronic Dipole Moment: [e a0]
     X:    -1.9844      Y:    -2.6066      Z:     5.7016

  Dipole Moment: [e a0]
     X:    -0.7561      Y:     0.6368      Z:    -0.9008     Total:     1.3374

  Dipole Moment: [D]
     X:    -1.9217      Y:     1.6186      Z:    -2.2896     Total:     3.3993


*** tstop() called on node74.bme.utexas.edu at Thu Jun  9 06:53:52 2022
Module time:
	user time   =     729.00 seconds =      12.15 minutes
	system time =      28.88 seconds =       0.48 minutes
	total time  =        391 seconds =       6.52 minutes
Total time:
	user time   =     729.00 seconds =      12.15 minutes
	system time =      28.88 seconds =       0.48 minutes
	total time  =        391 seconds =       6.52 minutes


Properties will be evaluated at   0.000000,   0.000000,   0.000000 [a0]
OEProp: No title given, name of density matrix used for the following properties is 'SCF density'


  Wiberg Bond Indices using Orthogonal Lowdin Orbitals:

  Irrep: 1 Size: 34 x 34

                 1                   2                   3                   4                   5

    1     0.00000000000000     1.39409134626412     0.09831409562075     0.03312583344530     0.04272488095500
    2     1.39409134626412     0.00000000000000     1.18595100338097     0.11822613197518     0.71768134696878
    3     0.09831409562075     1.18595100338097     0.00000000000000     1.40339941417647     0.03912727232033
    4     0.03312583344530     0.11822613197518     1.40339941417647     0.00000000000000     0.00625449228031
    5     0.04272488095500     0.71768134696878     0.03912727232033     0.00625449228031     0.00000000000000
    6     0.02889370119962     0.13706693532097     1.38720641190852     0.12626140553138     0.01479808651722
    7     1.42562618759280     0.17546047654982     0.02335970482952     0.00870014239126     0.01433426526562
    8     0.01810937341859     0.00563495951368     0.00063169831979     0.00025846610214     0.00129115666412
    9     0.10874349467789     0.02113707166915     0.00278841254642     0.00111699840408     0.00115427453444
   10     0.12900675196877     0.06383705717059     0.00605000967797     0.00340822221899     0.01385836602750
   11     0.06707893347132     0.02482755686038     0.00262596726485     0.00279743811837     0.00038654001729
   12     1.00483634437135     0.09702247921179     0.02409745259290     0.03408780282936     0.00757464727771
   13     0.12047403387175     0.01826110608840     0.00496541240098     0.00875223285364     0.00089772029580
   14     0.11845782041824     0.03288279687420     0.01551912004227     0.04213274390970     0.00087285567594
   15     0.01669642367252     0.00201141584388     0.00078842431787     0.00332580277605     0.00024691745958
   16     0.01755114624468     0.00317262768409     0.00219268351979     0.01379840815574     0.00009551087933
   17     0.01076892336981     0.00327719147434     0.00097491484272     0.00303035308400     0.00013152973316
   18     0.00310226913979     0.01647747349917     0.13623976747054     1.51125922907820     0.00076890207076
   19     0.00333258333995     0.01851728521149     0.13310901349559     0.13990199860814     0.00131987892992
   20     0.00728598865124     0.01452938343122     0.13250193834985     0.13714997584894     0.00048042171426
   21     0.00536185204919     0.01127821355167     0.05346279200921     0.78871535286451     0.00010305459030
   22     0.00213186769802     0.02111602568573     0.05562965400918     0.00958042563357     0.00258260130748
   23     0.00150999824843     0.00028869677815     0.00005693388900     0.00002015004178     0.00010680404169
   24     0.07786674210091     0.11677514391394     0.01078016850330     0.00340996928737     0.06908629614357
   25     0.01687445670715     0.00070711837886     0.00026348089013     0.00018009417948     0.00002624532765
   26     0.01613641366225     0.00572939654840     0.00374685246868     0.00841854116774     0.00011361440064
   27     0.00119407876171     0.00028031386675     0.00005150358422     0.00004354408738     0.00001844280544
   28     0.00121283152856     0.00011572770464     0.00006585849801     0.00019861039891     0.00000524446134
   29     0.00028029583486     0.00004986662705     0.00001937250171     0.00002044834740     0.00000727866402
   30     0.00020519491198     0.00090351976572     0.01088298166625     0.05997041257394     0.00025416427249
   31     0.00034876907405     0.00084515986369     0.01078228471805     0.00261647029101     0.00003079911420
   32     0.01037767193823     0.00015159669618     0.00009048935930     0.00011650799908     0.00004749484666
   33     0.00165103151041     0.00037658234027     0.00012422870917     0.00002526513147     0.00018285026377
   34     0.00005754492455     0.00026679712883     0.00279261720357     0.01111207609360     0.00001415355667

                 6                   7                   8                   9                  10

    1     0.02889370119962     1.42562618759280     0.01810937341859     0.10874349467789     0.12900675196877
    2     0.13706693532097     0.17546047654982     0.00563495951368     0.02113707166915     0.06383705717059
    3     1.38720641190852     0.02335970482952     0.00063169831979     0.00278841254642     0.00605000967797
    4     0.12626140553138     0.00870014239126     0.00025846610214     0.00111699840408     0.00340822221899
    5     0.01479808651722     0.01433426526562     0.00129115666412     0.00115427453444     0.01385836602750
    6     0.00000000000000     0.00856829263340     0.00049910520142     0.00106381760525     0.00448504101360
    7     0.00856829263340     0.00000000000000     0.13510345886093     1.14764083317694     1.09208117787391
    8     0.00049910520142     0.13510345886093     0.00000000000000     0.19522540119022     1.35050661431121
    9     0.00106381760525     1.14764083317694     0.19522540119022     0.00000000000000     0.13411834525397
   10     0.00448504101360     1.09208117787391     1.35050661431121     0.13411834525397     0.00000000000000
   11     0.00277302082394     0.16471568807074     1.25972790802658     1.80365492406295     0.13955987554564
   12     0.00345057318387     0.11656685014175     0.00279033211106     0.03777215869851     0.01502929616128
   13     0.00056982443179     0.04794504376576     0.00189511396502     0.03685889540123     0.00548646050904
   14     0.00183677696991     0.03090421654891     0.00082707469020     0.00946904792338     0.00427391926991
   15     0.00012565939617     0.00498061903918     0.00039937523004     0.00789077264958     0.00070287071003
   16     0.00033942521370     0.00424025622385     0.00022284636643     0.00229771708423     0.00058887330665
   17     0.00020366379141     0.00674710235310     0.00022386635686     0.00200668051051     0.00142566233876
   18     0.14409625771723     0.00078890658322     0.00003322119250     0.00014088516832     0.00034416943044
   19     1.54360632437360     0.00125583806176     0.00004119976373     0.00016464432821     0.00045042314229
   20     0.13893683275742     0.00493122394682     0.00013032563237     0.00048620353227     0.00208078396205
   21     0.00909686980565     0.00020054000434     0.00002854917031     0.00012596285461     0.00007084530217
   22     0.81367397550030     0.00031386573861     0.00005345949686     0.00005104371026     0.00065569880636
   23     0.00002988770711     0.01144360805073     0.80921596291024     0.01059445912898     0.04367733422957
   24     0.01029870663377     0.14012281070741     0.21237819909204     0.02205304053927     2.01423095248970
   25     0.00002001277132     0.00807050923417     0.00030476561706     0.00743441875569     0.00051601351981
   26     0.00023472720170     0.00271524461933     0.00005065398346     0.00040308648288     0.00015212231059
   27     0.00001656047400     0.00018230093953     0.00001144084406     0.00012528024362     0.00002947979530
   28     0.00000928015179     0.00039109663851     0.00001683262816     0.00007979433117     0.00007680154127
   29     0.00000471338524     0.00005601349771     0.00000627357728     0.00002359918077     0.00001236017852
   30     0.00254609791618     0.00004692622223     0.00000378900327     0.00001379288907     0.00004818340024
   31     0.06109385219055     0.00007524133907     0.00000246249212     0.00001847635668     0.00002378272702
   32     0.00004467936407     0.04755860994222     0.01110676025364     0.81129615642091     0.00933810539965
   33     0.00005836321409     0.01380350882700     0.05473898451345     0.05860828715408     0.01216229483489
   34     0.01122880573592     0.00001858226728     0.00000162923307     0.00000375107513     0.00001175130385

                11                  12                  13                  14                  15

    1     0.06707893347132     1.00483634437135     0.12047403387175     0.11845782041824     0.01669642367252
    2     0.02482755686038     0.09702247921179     0.01826110608840     0.03288279687420     0.00201141584388
    3     0.00262596726485     0.02409745259290     0.00496541240098     0.01551912004227     0.00078842431787
    4     0.00279743811837     0.03408780282936     0.00875223285364     0.04213274390970     0.00332580277605
    5     0.00038654001729     0.00757464727771     0.00089772029580     0.00087285567594     0.00024691745958
    6     0.00277302082394     0.00345057318387     0.00056982443179     0.00183677696991     0.00012565939617
    7     0.16471568807074     0.11656685014175     0.04794504376576     0.03090421654891     0.00498061903918
    8     1.25972790802658     0.00279033211106     0.00189511396502     0.00082707469020     0.00039937523004
    9     1.80365492406295     0.03777215869851     0.03685889540123     0.00946904792338     0.00789077264958
   10     0.13955987554564     0.01502929616128     0.00548646050904     0.00427391926991     0.00070287071003
   11     0.00000000000000     0.00632898613911     0.00591995697439     0.00227291922591     0.00084025679380
   12     0.00632898613911     0.00000000000000     1.41754141425710     1.39517106577227     0.13475571637617
   13     0.00591995697439     1.41754141425710     0.00000000000000     0.12822518546624     1.50881747323557
   14     0.00227291922591     1.39517106577227     0.12822518546624     0.00000000000000     0.14488003581188
   15     0.00084025679380     0.13475571637617     1.50881747323557     0.14488003581188     0.00000000000000
   16     0.00045027796745     0.13373732111029     0.14283483275994     1.52321838382642     0.13784048471739
   17     0.00108567142161     0.13759335769352     0.13874478416659     0.13912948953206     1.52457611453604
   18     0.00021662235634     0.00368592432788     0.00095942933879     0.00496321296974     0.00038470186242
   19     0.00032850298500     0.00100940285701     0.00038853056736     0.00100487445146     0.00012707387669
   20     0.00225135837533     0.00114111117691     0.00031511763327     0.00098222138245     0.00011157129903
   21     0.00003853349456     0.01403298693080     0.00309739819562     0.02321154816706     0.00148041913266
   22     0.00004223165158     0.00029819899018     0.00005579915641     0.00012391769654     0.00001852215478
   23     0.04117862649164     0.00044224121638     0.00014240246322     0.00011182988094     0.00003133810028
   24     0.02432380336229     0.00472133129002     0.00286638620044     0.00259500896454     0.00034361625897
   25     0.00062844041890     0.05527512547406     0.80752362328884     0.00934156907122     0.05467247262053
   26     0.00003288378012     0.05446209672704     0.00905843197112     0.80448617167392     0.00200230021956
   27     0.00003234468478     0.01060206738192     0.05997007803866     0.00250584061121     0.83306467968021
   28     0.00006019466217     0.01075617367088     0.00246641750421     0.06035712445160     0.01115327343114
   29     0.00000710673118     0.00290284498567     0.01124535752734     0.01120740969466     0.05893814279377
   30     0.00000454743018     0.00019894882215     0.00002590701720     0.00018672111275     0.00002437405012
   31     0.00001302670524     0.00005762800000     0.00001445195498     0.00004675401766     0.00000593038491
   32     0.05885113408692     0.00961551988511     0.01231367654838     0.00202185793504     0.00278593848067
   33     0.83531451009642     0.00033422361267     0.00019418605819     0.00007417261752     0.00002143683269
   34     0.00000220375415     0.00006957394646     0.00002081992193     0.00007813853173     0.00001358463147

                16                  17                  18                  19                  20

    1     0.01755114624468     0.01076892336981     0.00310226913979     0.00333258333995     0.00728598865124
    2     0.00317262768409     0.00327719147434     0.01647747349917     0.01851728521149     0.01452938343122
    3     0.00219268351979     0.00097491484272     0.13623976747054     0.13310901349559     0.13250193834985
    4     0.01379840815574     0.00303035308400     1.51125922907820     0.13990199860814     0.13714997584894
    5     0.00009551087933     0.00013152973316     0.00076890207076     0.00131987892992     0.00048042171426
    6     0.00033942521370     0.00020366379141     0.14409625771723     1.54360632437360     0.13893683275742
    7     0.00424025622385     0.00674710235310     0.00078890658322     0.00125583806176     0.00493122394682
    8     0.00022284636643     0.00022386635686     0.00003322119250     0.00004119976373     0.00013032563237
    9     0.00229771708423     0.00200668051051     0.00014088516832     0.00016464432821     0.00048620353227
   10     0.00058887330665     0.00142566233876     0.00034416943044     0.00045042314229     0.00208078396205
   11     0.00045027796745     0.00108567142161     0.00021662235634     0.00032850298500     0.00225135837533
   12     0.13373732111029     0.13759335769352     0.00368592432788     0.00100940285701     0.00114111117691
   13     0.14283483275994     0.13874478416659     0.00095942933879     0.00038853056736     0.00031511763327
   14     1.52321838382642     0.13912948953206     0.00496321296974     0.00100487445146     0.00098222138245
   15     0.13784048471739     1.52457611453604     0.00038470186242     0.00012707387669     0.00011157129903
   16     0.00000000000000     1.50846165918713     0.00107751775137     0.00020061842392     0.00029092124518
   17     1.50846165918713     0.00000000000000     0.00034192259273     0.00010855597506     0.00011110961580
   18     0.00107751775137     0.00034192259273     0.00000000000000     0.13861767902563     1.52728846972439
   19     0.00020061842392     0.00010855597506     0.13861767902563     0.00000000000000     1.50450424607075
   20     0.00029092124518     0.00011110961580     1.52728846972439     1.50450424607075     0.00000000000000
   21     0.00584522704599     0.00113292614105     0.05441912919253     0.00214375948570     0.00964316098402
   22     0.00002873891942     0.00001593680434     0.00255295251204     0.05665226768345     0.01079857313185
   23     0.00002527216617     0.00004434124363     0.00000266930876     0.00000608601718     0.00000217313222
   24     0.00037225564355     0.00109695260538     0.00041045999414     0.00079190419865     0.00182563719816
   25     0.00207565421634     0.01028171571473     0.00001373263588     0.00001255699940     0.00001027385060
   26     0.05411223290189     0.01017186828881     0.00062339726686     0.00016182827302     0.00010335954847
   27     0.01124621285309     0.05891334902232     0.00000625485828     0.00000284510585     0.00000300871895
   28     0.83228523983701     0.05866605094459     0.00001344912508     0.00000228180517     0.00000532409487
   29     0.05877698216534     0.83538739114337     0.00000797984094     0.00000345763834     0.00000117928267
   30     0.00004822395515     0.00001202694432     0.83349546263998     0.01151062371361     0.05866426605552
   31     0.00001855294992     0.00000741431064     0.01136091739139     0.83341081840963     0.05832759872122
   32     0.00072407430490     0.00057472653330     0.00003667120139     0.00001533626975     0.00001240774722
   33     0.00001554424319     0.00000825205168     0.00000432720837     0.00000662255570     0.00000509619793
   34     0.00003607713686     0.00000823031402     0.05969205894397     0.05914165159811     0.83540116821295

                21                  22                  23                  24                  25

    1     0.00536185204919     0.00213186769802     0.00150999824843     0.07786674210091     0.01687445670715
    2     0.01127821355167     0.02111602568573     0.00028869677815     0.11677514391394     0.00070711837886
    3     0.05346279200921     0.05562965400918     0.00005693388900     0.01078016850330     0.00026348089013
    4     0.78871535286451     0.00958042563357     0.00002015004178     0.00340996928737     0.00018009417948
    5     0.00010305459030     0.00258260130748     0.00010680404169     0.06908629614357     0.00002624532765
    6     0.00909686980565     0.81367397550030     0.00002988770711     0.01029870663377     0.00002001277132
    7     0.00020054000434     0.00031386573861     0.01144360805073     0.14012281070741     0.00807050923417
    8     0.00002854917031     0.00005345949686     0.80921596291024     0.21237819909204     0.00030476561706
    9     0.00012596285461     0.00005104371026     0.01059445912898     0.02205304053927     0.00743441875569
   10     0.00007084530217     0.00065569880636     0.04367733422957     2.01423095248970     0.00051601351981
   11     0.00003853349456     0.00004223165158     0.04117862649164     0.02432380336229     0.00062844041890
   12     0.01403298693080     0.00029819899018     0.00044224121638     0.00472133129002     0.05527512547406
   13     0.00309739819562     0.00005579915641     0.00014240246322     0.00286638620044     0.80752362328884
   14     0.02321154816706     0.00012391769654     0.00011182988094     0.00259500896454     0.00934156907122
   15     0.00148041913266     0.00001852215478     0.00003133810028     0.00034361625897     0.05467247262053
   16     0.00584522704599     0.00002873891942     0.00002527216617     0.00037225564355     0.00207565421634
   17     0.00113292614105     0.00001593680434     0.00004434124363     0.00109695260538     0.01028171571473
   18     0.05441912919253     0.00255295251204     0.00000266930876     0.00041045999414     0.00001373263588
   19     0.00214375948570     0.05665226768345     0.00000608601718     0.00079190419865     0.00001255699940
   20     0.00964316098402     0.01079857313185     0.00000217313222     0.00182563719816     0.00001027385060
   21     0.00000000000000     0.00044514237153     0.00000136334510     0.00011628645376     0.00001216340990
   22     0.00044514237153     0.00000000000000     0.00000409724112     0.00153393625627     0.00000759194402
   23     0.00000136334510     0.00000409724112     0.00000000000000     0.00999362615408     0.00000650792660
   24     0.00011628645376     0.00153393625627     0.00999362615408     0.00000000000000     0.00015889756898
   25     0.00001216340990     0.00000759194402     0.00000650792660     0.00015889756898     0.00000000000000
   26     0.00170903570835     0.00004482790857     0.00000189995423     0.00014187593062     0.00032772132261
   27     0.00000195769422     0.00000115217540     0.00000109328249     0.00002372453099     0.00514118010438
   28     0.00011493160232     0.00000168570599     0.00000055079618     0.00005720719251     0.00024656911035
   29     0.00000392084107     0.00000026910059     0.00000050444172     0.00000377997871     0.00024514462079
   30     0.00570351041917     0.00021587641447     0.00000075737352     0.00006040358914     0.00000183112621
   31     0.00020331142473     0.00536516519527     0.00000010828930     0.00003458731011     0.00000070535424
   32     0.00006625684833     0.00000374659866     0.00046763041172     0.00193229146301     0.00107075629395
   33     0.00000457758051     0.00000894637934     0.00272983292287     0.00154224254220     0.00000910033735
   34     0.00020534401909     0.00022180899718     0.00000016041583     0.00002487270802     0.00000091530326

                26                  27                  28                  29                  30

    1     0.01613641366225     0.00119407876171     0.00121283152856     0.00028029583486     0.00020519491198
    2     0.00572939654840     0.00028031386675     0.00011572770464     0.00004986662705     0.00090351976572
    3     0.00374685246868     0.00005150358422     0.00006585849801     0.00001937250171     0.01088298166625
    4     0.00841854116774     0.00004354408738     0.00019861039891     0.00002044834740     0.05997041257394
    5     0.00011361440064     0.00001844280544     0.00000524446134     0.00000727866402     0.00025416427249
    6     0.00023472720170     0.00001656047400     0.00000928015179     0.00000471338524     0.00254609791618
    7     0.00271524461933     0.00018230093953     0.00039109663851     0.00005601349771     0.00004692622223
    8     0.00005065398346     0.00001144084406     0.00001683262816     0.00000627357728     0.00000378900327
    9     0.00040308648288     0.00012528024362     0.00007979433117     0.00002359918077     0.00001379288907
   10     0.00015212231059     0.00002947979530     0.00007680154127     0.00001236017852     0.00004818340024
   11     0.00003288378012     0.00003234468478     0.00006019466217     0.00000710673118     0.00000454743018
   12     0.05446209672704     0.01060206738192     0.01075617367088     0.00290284498567     0.00019894882215
   13     0.00905843197112     0.05997007803866     0.00246641750421     0.01124535752734     0.00002590701720
   14     0.80448617167392     0.00250584061121     0.06035712445160     0.01120740969466     0.00018672111275
   15     0.00200230021956     0.83306467968021     0.01115327343114     0.05893814279377     0.00002437405012
   16     0.05411223290189     0.01124621285309     0.83228523983701     0.05877698216534     0.00004822395515
   17     0.01017186828881     0.05891334902232     0.05866605094459     0.83538739114337     0.00001202694432
   18     0.00062339726686     0.00000625485828     0.00001344912508     0.00000797984094     0.83349546263998
   19     0.00016182827302     0.00000284510585     0.00000228180517     0.00000345763834     0.01151062371361
   20     0.00010335954847     0.00000300871895     0.00000532409487     0.00000117928267     0.05866426605552
   21     0.00170903570835     0.00000195769422     0.00011493160232     0.00000392084107     0.00570351041917
   22     0.00004482790857     0.00000115217540     0.00000168570599     0.00000026910059     0.00021587641447
   23     0.00000189995423     0.00000109328249     0.00000055079618     0.00000050444172     0.00000075737352
   24     0.00014187593062     0.00002372453099     0.00005720719251     0.00000377997871     0.00006040358914
   25     0.00032772132261     0.00514118010438     0.00024656911035     0.00024514462079     0.00000183112621
   26     0.00000000000000     0.00024263209385     0.00517523919850     0.00024059414168     0.00001581257260
   27     0.00024263209385     0.00000000000000     0.00025017860551     0.00522616184039     0.00000061918381
   28     0.00517523919850     0.00025017860551     0.00000000000000     0.00519466215265     0.00000256334251
   29     0.00024059414168     0.00522616184039     0.00519466215265     0.00000000000000     0.00000104590329
   30     0.00001581257260     0.00000061918381     0.00000256334251     0.00000104590329     0.00000000000000
   31     0.00000469013505     0.00000024286834     0.00000028717445     0.00000005916518     0.00028312748644
   32     0.00002023804944     0.00005846777496     0.00000117714810     0.00000393916047     0.00000090626713
   33     0.00000628202948     0.00000381438877     0.00000123461465     0.00000064291860     0.00000094991469
   34     0.00001818194984     0.00000006678540     0.00000053996374     0.00000002820126     0.00514521368991

                31                  32                  33                  34

    1     0.00034876907405     0.01037767193823     0.00165103151041     0.00005754492455
    2     0.00084515986369     0.00015159669618     0.00037658234027     0.00026679712883
    3     0.01078228471805     0.00009048935930     0.00012422870917     0.00279261720357
    4     0.00261647029101     0.00011650799908     0.00002526513147     0.01111207609360
    5     0.00003079911420     0.00004749484666     0.00018285026377     0.00001415355667
    6     0.06109385219055     0.00004467936407     0.00005836321409     0.01122880573592
    7     0.00007524133907     0.04755860994222     0.01380350882700     0.00001858226728
    8     0.00000246249212     0.01110676025364     0.05473898451345     0.00000162923307
    9     0.00001847635668     0.81129615642091     0.05860828715408     0.00000375107513
   10     0.00002378272702     0.00933810539965     0.01216229483489     0.00001175130385
   11     0.00001302670524     0.05885113408692     0.83531451009642     0.00000220375415
   12     0.00005762800000     0.00961551988511     0.00033422361267     0.00006957394646
   13     0.00001445195498     0.01231367654838     0.00019418605819     0.00002081992193
   14     0.00004675401766     0.00202185793504     0.00007417261752     0.00007813853173
   15     0.00000593038491     0.00278593848067     0.00002143683269     0.00001358463147
   16     0.00001855294992     0.00072407430490     0.00001554424319     0.00003607713686
   17     0.00000741431064     0.00057472653330     0.00000825205168     0.00000823031402
   18     0.01136091739139     0.00003667120139     0.00000432720837     0.05969205894397
   19     0.83341081840963     0.00001533626975     0.00000662255570     0.05914165159811
   20     0.05832759872122     0.00001240774722     0.00000509619793     0.83540116821295
   21     0.00020331142473     0.00006625684833     0.00000457758051     0.00020534401909
   22     0.00536516519527     0.00000374659866     0.00000894637934     0.00022180899718
   23     0.00000010828930     0.00046763041172     0.00272983292287     0.00000016041583
   24     0.00003458731011     0.00193229146301     0.00154224254220     0.00002487270802
   25     0.00000070535424     0.00107075629395     0.00000910033735     0.00000091530326
   26     0.00000469013505     0.00002023804944     0.00000628202948     0.00001818194984
   27     0.00000024286834     0.00005846777496     0.00000381438877     0.00000006678540
   28     0.00000028717445     0.00000117714810     0.00000123461465     0.00000053996374
   29     0.00000005916518     0.00000393916047     0.00000064291860     0.00000002820126
   30     0.00028312748644     0.00000090626713     0.00000094991469     0.00514521368991
   31     0.00000000000000     0.00000055445991     0.00000175267096     0.00509716479783
   32     0.00000055445991     0.00000000000000     0.00249910763681     0.00000058323720
   33     0.00000175267096     0.00249910763681     0.00000000000000     0.00000027642570
   34     0.00509716479783     0.00000058323720     0.00000027642570     0.00000000000000



  Atomic Valences: 

 #  #
 Irrep: 1
      1:    4.783428880643801
      2:    4.208949803842099
      3:    4.748591935087876
      4:    4.481414959884486
      5:    0.936578109382968
      6:    4.453137687642111
      7:    4.638949141937454
      8:    4.061471259731912
      9:    4.424561727540664
     10:    5.048299645731518
     11:    4.448371991851147
     12:    4.737961197223144
     13:    4.498847503829196
     14:    4.513371825187515
     15:    4.454057738375647
     16:    4.458221800006395
     17:    4.455263734637399
     18:    4.453426023419084
     19:    4.451850713241132
     20:    4.450312431226179
     21:    0.992076922690041
     22:    0.984230002575394
     23:    0.932138947600867
     24:    2.731973116805855
     25:    0.981461364094459
     26:    0.980864254491299
     27:    0.989250917685800
     28:    0.988984434016518
     29:    0.989878826064234
     30:    0.990478781645234
     31:    0.990092147343855
     32:    0.983205070562299
     33:    0.984518528334871
     34:    0.990686372008384


    Psi4 stopped on: Thursday, 09 June 2022 06:53AM
    Psi4 wall time for execution: 0:06:32.29

*** Psi4 exiting successfully. Buy a developer a beer!
