
    -----------------------------------------------------------------------
          Psi4: An Open-Source Ab Initio Electronic Structure Package
                               Psi4 1.5 release

                         Git: Rev {HEAD} e9f4d6d 


    D. G. A. Smith, L. A. Burns, A. C. Simmonett, R. M. Parrish,
    M. C. Schieber, R. Galvelis, P. Kraus, H. Kruse, R. Di Remigio,
    A. Alenaizan, A. M. James, S. Lehtola, J. P. Misiewicz, M. Scheurer,
    R. A. Shaw, J. B. Schriber, Y. Xie, Z. L. Glick, D. A. Sirianni,
    J. S. O'Brien, J. M. Waldrop, A. Kumar, E. G. Hohenstein,
    B. P. Pritchard, B. R. Brooks, H. F. Schaefer III, A. Yu. Sokolov,
    K. Patkowski, A. E. DePrince III, U. Bozkaya, R. A. King,
    F. A. Evangelista, J. M. Turney, T. D. Crawford, C. D. Sherrill,
    J. Chem. Phys. 152(18) 184108 (2020). https://doi.org/10.1063/5.0006002

                            Additional Code Authors
    E. T. Seidl, C. L. Janssen, E. F. Valeev, M. L. Leininger,
    J. F. Gonthier, R. M. Richard, H. R. McAlexander, M. Saitow, X. Wang,
    P. Verma, M. H. Lechner, and A. Jiang

             Previous Authors, Complete List of Code Contributors,
                       and Citations for Specific Modules
    https://github.com/psi4/psi4/blob/master/codemeta.json
    https://github.com/psi4/psi4/graphs/contributors
    http://psicode.org/psi4manual/master/introduction.html#citing-psifour

    -----------------------------------------------------------------------


    Psi4 started on: Thursday, 09 June 2022 04:28AM

    Process ID: 1285253
    Host:       node74.bme.utexas.edu
    PSIDATADIR: /home/bdw2292/miniconda3/envs/newamoebamdpoltype/share/psi4
    Memory:     500.0 MiB
    Threads:    1
    
  ==> Input File <==

--------------------------------------------------------------------------
molecule { 
0 1
 C   -0.635001   -0.370997    0.206440
 N    0.504249   -1.148758    0.067415
 C    1.768536   -0.803266   -0.466730
 C    2.525480    0.251450    0.098211
 H    0.476632   -2.023646    0.626622
 C    2.275428   -1.503825   -1.587420
 C   -1.668867   -0.825756    1.036824
 N   -2.760511   -2.126868    2.552811
 C   -3.009817   -0.320161    1.227152
 C   -1.558489   -2.024762    1.896778
 C   -3.627481   -1.110574    2.146822
 C   -0.693657    0.958594   -0.468035
 C   -1.082372    2.119300    0.250711
 C   -0.427519    1.075211   -1.858076
 C   -1.179780    3.357858   -0.397059
 C   -0.522590    2.317283   -2.499264
 C   -0.898054    3.465920   -1.773886
 C    3.765907    0.598151   -0.454087
 C    3.516645   -1.148391   -2.133201
 C    4.271153   -0.096336   -1.573123
 H    2.142524    0.796659    0.963234
 H    1.699144   -2.320675   -2.027131
 H   -2.949851   -2.861152    3.219310
 O   -0.586634   -2.813142    2.016839
 H   -1.300504    2.044539    1.317684
 H   -0.149093    0.189246   -2.431529
 H   -1.475977    4.242408    0.169650
 H   -0.308062    2.393538   -3.566751
 H   -0.972781    4.432482   -2.275663
 H    4.339668    1.413111   -0.009838
 H    3.896176   -1.694407   -2.998538
 H   -3.453382    0.534421    0.735297
 H   -4.625190   -1.049754    2.558546
 H    5.237222    0.177642   -2.001127
}
set optking { 
  frozen_dihedral = ("
    1 2 3 4
    2 1 12 13
    7 1 2 3
  ")
}
set {
  geom_maxiter 400
  g_convergence GAU_LOOSE
  dynamic_level 1
}
memory 8.166666666666666GB
set_num_threads(2)
psi4_io.set_default_path("/scratch/bdw2292/Psi4-1_16_Index_0-farH_in17")
for _ in range(1):
  try:
    set opt_coordinates both
    optimize('wb97x-d/6-311G')
    break
  except OptimizationConvergenceError:
    break
  else:
    try:
      set opt_coordinates cartesian
      optimize('wb97x-d/6-311G')
      break
    except OptimizationConvergenceError:
      pass
clean()
--------------------------------------------------------------------------

  Memory set to   7.606 GiB by Python driver.
  Threads set to 2 by Python driver.

Scratch directory: /scratch/bdw2292/Psi4-1_16_Index_0-farH_in17/

Scratch directory: /scratch/bdw2292/Psi4-1_16_Index_0-farH_in17/
gradient() will perform analytic gradient computation.

*** tstart() called on node74.bme.utexas.edu
*** at Thu Jun  9 04:28:21 2022

   => Loading Basis Set <=

    Name: 6-311G
    Role: ORBITAL
    Keyword: BASIS
    atoms 1, 3-4, 6-7, 9-20 entry C          line    92 file /home/bdw2292/miniconda3/envs/newamoebamdpoltype/share/psi4/basis/6-311g.gbs 
    atoms 2, 8              entry N          line   109 file /home/bdw2292/miniconda3/envs/newamoebamdpoltype/share/psi4/basis/6-311g.gbs 
    atoms 5, 21-23, 25-34   entry H          line    21 file /home/bdw2292/miniconda3/envs/newamoebamdpoltype/share/psi4/basis/6-311g.gbs 
    atoms 24                entry O          line   126 file /home/bdw2292/miniconda3/envs/newamoebamdpoltype/share/psi4/basis/6-311g.gbs 

   => WB97X-D: Empirical Dispersion <=

    Chai and Head-Gordon Dispersion Correction
    Chai, J.-D.; Head-Gordon, M. (2010), J. Chem. Phys., 132: 6615-6620

        s6 =       1.000000


         ---------------------------------------------------------
                                   SCF
               by Justin Turney, Rob Parrish, Andy Simmonett
                          and Daniel G. A. Smith
                              RKS Reference
                        2 Threads,   7788 MiB Core
         ---------------------------------------------------------

  ==> Geometry <==

    Molecular point group: c1
    Full point group: C1

    Geometry (in Angstrom), charge = 0, multiplicity = 1:

       Center              X                  Y                   Z               Mass       
    ------------   -----------------  -----------------  -----------------  -----------------
         C           -0.617577174424    -0.320388969445     0.255998942578    12.000000000000
         N            0.521672825576    -1.098149969445     0.116973942578    14.003074004430
         C            1.785959825576    -0.752657969445    -0.417171057422    12.000000000000
         C            2.542903825576     0.302058030555     0.147769942578    12.000000000000
         H            0.494055825576    -1.973037969445     0.676180942578     1.007825032230
         C            2.292851825576    -1.453216969445    -1.537861057422    12.000000000000
         C           -1.651443174424    -0.775147969445     1.086382942578    12.000000000000
         N           -2.743087174424    -2.076259969445     2.602369942578    14.003074004430
         C           -2.992393174424    -0.269552969445     1.276710942578    12.000000000000
         C           -1.541065174424    -1.974153969445     1.946336942578    12.000000000000
         C           -3.610057174424    -1.059965969445     2.196380942578    12.000000000000
         C           -0.676233174424     1.009202030555    -0.418476057422    12.000000000000
         C           -1.064948174424     2.169908030555     0.300269942578    12.000000000000
         C           -0.410095174424     1.125819030555    -1.808517057422    12.000000000000
         C           -1.162356174424     3.408466030555    -0.347500057422    12.000000000000
         C           -0.505166174424     2.367891030555    -2.449705057422    12.000000000000
         C           -0.880630174424     3.516528030555    -1.724327057422    12.000000000000
         C            3.783330825576     0.648759030555    -0.404528057422    12.000000000000
         C            3.534068825576    -1.097782969445    -2.083642057422    12.000000000000
         C            4.288576825576    -0.045727969445    -1.523564057422    12.000000000000
         H            2.159947825576     0.847267030555     1.012792942578     1.007825032230
         H            1.716567825576    -2.270066969445    -1.977572057422     1.007825032230
         H           -2.932427174424    -2.810543969445     3.268868942578     1.007825032230
         O           -0.569210174424    -2.762533969445     2.066397942578    15.994914619570
         H           -1.283080174424     2.095147030555     1.367242942578     1.007825032230
         H           -0.131669174424     0.239854030555    -2.381970057422     1.007825032230
         H           -1.458553174424     4.293016030555     0.219208942578     1.007825032230
         H           -0.290638174424     2.444146030555    -3.517192057422     1.007825032230
         H           -0.955357174424     4.483090030555    -2.226104057422     1.007825032230
         H            4.357091825576     1.463719030555     0.039720942578     1.007825032230
         H            3.913599825576    -1.643798969445    -2.948979057422     1.007825032230
         H           -3.435958174424     0.585029030555     0.784855942578     1.007825032230
         H           -4.607766174424    -0.999145969445     2.608104942578     1.007825032230
         H            5.254645825576     0.228250030555    -1.951568057422     1.007825032230

  Running in c1 symmetry.

  Rotational constants: A =      0.01513  B =      0.00926  C =      0.00636 [cm^-1]
  Rotational constants: A =    453.51883  B =    277.69286  C =    190.58519 [MHz]
  Nuclear repulsion = 1413.378980097149679

  Charge       = 0
  Multiplicity = 1
  Electrons    = 138
  Nalpha       = 69
  Nbeta        = 69

  ==> Algorithm <==

  SCF Algorithm Type is DF.
  DIIS enabled.
  MOM disabled.
  Fractional occupation disabled.
  Guess Type is SAD.
  Energy threshold   = 1.00e-08
  Density threshold  = 1.00e-08
  Integral threshold = 1.00e-12

  ==> Primary Basis <==

  Basis Set: 6-311G
    Blend: 6-311G
    Number of shells: 182
    Number of basis functions: 302
    Number of Cartesian functions: 302
    Spherical Harmonics?: true
    Max angular momentum: 1

  ==> DFT Potential <==

   => LibXC <=

    Version 5.1.5
    S. Lehtola, C. Steigemann, M. J. Oliveira, and M. A. Marques, SoftwareX 7, 1 (2018) (10.1016/j.softx.2017.11.002)

   => Composite Functional: WB97X-D <= 

    wB97X-D Hyb-GGA Exchange-Correlation Functional

    J.-D. Chai and M. Head-Gordon, Phys. Chem. Chem. Phys. 10, 6615 (2008) (10.1039/B810189B)

    Deriv               =              1
    GGA                 =           TRUE
    Meta                =          FALSE

    Exchange Hybrid     =           TRUE
    MP2 Hybrid          =          FALSE

   => Exchange-Correlation Functionals <=

    1.0000   wB97X-D range-separated functional

   => Exact (HF) Exchange <=

    0.7780            HF,LR [omega = 0.2000]
    0.2220               HF 

   => LibXC Density Thresholds  <==

    XC_HYB_GGA_XC_WB97X_D:  1.00E-14 

   => Molecular Quadrature <=

    Radial Scheme          =       TREUTLER
    Pruning Scheme         =           NONE
    Nuclear Scheme         =       TREUTLER

    BS radius alpha        =              1
    Pruning alpha          =              1
    Radial Points          =             75
    Spherical Points       =            302
    Total Points           =         700296
    Total Blocks           =           4985
    Max Points             =            256
    Max Functions          =            219
    Weights Tolerance      =       1.00E-15

   => Loading Basis Set <=

    Name: (6-311G AUX)
    Role: JKFIT
    Keyword: DF_BASIS_SCF
    atoms 1, 3-4, 6-7, 9-20 entry C          line   125 file /home/bdw2292/miniconda3/envs/newamoebamdpoltype/share/psi4/basis/cc-pvtz-jkfit.gbs 
    atoms 2, 8              entry N          line   177 file /home/bdw2292/miniconda3/envs/newamoebamdpoltype/share/psi4/basis/cc-pvtz-jkfit.gbs 
    atoms 5, 21-23, 25-34   entry H          line    51 file /home/bdw2292/miniconda3/envs/newamoebamdpoltype/share/psi4/basis/cc-pvtz-jkfit.gbs 
    atoms 24                entry O          line   229 file /home/bdw2292/miniconda3/envs/newamoebamdpoltype/share/psi4/basis/cc-pvtz-jkfit.gbs 

  ==> Integral Setup <==

  DFHelper Memory: AOs need 3.150 GiB; user supplied 3.150 GiB. Using in-core AOs.

  ==> MemDFJK: Density-Fitted J/K Matrices <==

    J tasked:                   Yes
    K tasked:                   Yes
    wK tasked:                  Yes
    Omega:                2.000E-01
    OpenMP threads:               2
    Memory [MiB]:              3225
    Algorithm:                 Core
    Schwarz Cutoff:           1E-12
    Mask sparsity (%):      23.9463
    Fitting Condition:        1E-10

   => Auxiliary Basis Set <=

  Basis Set: (6-311G AUX)
    Blend: CC-PVTZ-JKFIT
    Number of shells: 640
    Number of basis functions: 2000
    Number of Cartesian functions: 2410
    Spherical Harmonics?: true
    Max angular momentum: 4

  Cached 50.0% of DFT collocation blocks in 1.492 [GiB].

  Minimum eigenvalue in the overlap matrix is 2.6694740301E-04.
  Reciprocal condition number of the overlap matrix is 4.0385444936E-05.
    Using symmetric orthogonalization.

  ==> Pre-Iterations <==

  SCF Guess: Superposition of Atomic Densities via on-the-fly atomic UHF (no occupation information).

   -------------------------
    Irrep   Nso     Nmo    
   -------------------------
     A        302     302 
   -------------------------
    Total     302     302
   -------------------------

  ==> Iterations <==

                           Total Energy        Delta E     RMS |[F,P]|

   @DF-RKS iter SAD:  -839.82527178155601   -8.39825e+02   0.00000e+00 
   @DF-RKS iter   1:  -840.09315903287700   -2.67887e-01   3.52082e-03 DIIS
   @DF-RKS iter   2:  -840.30851659417999   -2.15358e-01   3.01764e-03 DIIS
   @DF-RKS iter   3:  -840.62256512837337   -3.14049e-01   8.18442e-04 DIIS
   @DF-RKS iter   4:  -840.64523607673095   -2.26709e-02   1.87747e-04 DIIS
   @DF-RKS iter   5:  -840.64649103074169   -1.25495e-03   6.26957e-05 DIIS
   @DF-RKS iter   6:  -840.64665765731036   -1.66627e-04   1.18600e-05 DIIS
   @DF-RKS iter   7:  -840.64666538512802   -7.72782e-06   7.25346e-06 DIIS
   @DF-RKS iter   8:  -840.64666827398150   -2.88885e-06   1.66916e-06 DIIS
   @DF-RKS iter   9:  -840.64666868482402   -4.10843e-07   1.01172e-06 DIIS
   @DF-RKS iter  10:  -840.64666878467858   -9.98546e-08   2.13061e-07 DIIS
   @DF-RKS iter  11:  -840.64666879142624   -6.74765e-09   1.28457e-07 DIIS
   @DF-RKS iter  12:  -840.64666879245567   -1.02943e-09   3.47101e-08 DIIS
   @DF-RKS iter  13:  -840.64666879257072   -1.15051e-10   1.86060e-08 DIIS
   @DF-RKS iter  14:  -840.64666879259596   -2.52385e-11   4.76893e-09 DIIS
  Energy and wave function converged.


  ==> Post-Iterations <==

   Electrons on quadrature grid:
      Ntotal   =  137.9998440526 ; deviation = -1.559e-04 

    Orbital Energies [Eh]
    ---------------------

    Doubly Occupied:                                                      

       1A    -19.202790     2A    -14.468006     3A    -14.465837  
       4A    -10.384571     5A    -10.374265     6A    -10.347466  
       7A    -10.325382     8A    -10.316666     9A    -10.310527  
      10A    -10.310305    11A    -10.309566    12A    -10.307763  
      13A    -10.307263    14A    -10.305230    15A    -10.304570  
      16A    -10.304465    17A    -10.303938    18A    -10.303696  
      19A    -10.289225    20A    -10.279227    21A     -1.136594  
      22A     -1.063460    23A     -1.056541    24A     -0.975492  
      25A     -0.961189    26A     -0.907667    27A     -0.870653  
      28A     -0.861588    29A     -0.859043    30A     -0.852075  
      31A     -0.811792    32A     -0.768511    33A     -0.724071  
      34A     -0.717458    35A     -0.713708    36A     -0.695048  
      37A     -0.680460    38A     -0.664887    39A     -0.636383  
      40A     -0.614182    41A     -0.595458    42A     -0.581792  
      43A     -0.581368    44A     -0.563502    45A     -0.554845  
      46A     -0.546576    47A     -0.535569    48A     -0.525120  
      49A     -0.521337    50A     -0.520321    51A     -0.513850  
      52A     -0.507900    53A     -0.493040    54A     -0.478161  
      55A     -0.470185    56A     -0.466656    57A     -0.453115  
      58A     -0.449352    59A     -0.444987    60A     -0.439079  
      61A     -0.421017    62A     -0.402076    63A     -0.352959  
      64A     -0.343332    65A     -0.340140    66A     -0.335309  
      67A     -0.330925    68A     -0.314703    69A     -0.252555  

    Virtual:                                                              

      70A      0.005407    71A      0.045100    72A      0.051935  
      73A      0.055704    74A      0.069438    75A      0.115850  
      76A      0.126878    77A      0.131749    78A      0.136071  
      79A      0.146211    80A      0.156204    81A      0.160968  
      82A      0.167995    83A      0.178468    84A      0.184897  
      85A      0.189992    86A      0.194610    87A      0.196231  
      88A      0.205093    89A      0.211793    90A      0.214496  
      91A      0.225555    92A      0.237103    93A      0.257184  
      94A      0.296528    95A      0.305116    96A      0.312903  
      97A      0.320018    98A      0.332327    99A      0.340356  
     100A      0.343606   101A      0.345090   102A      0.353785  
     103A      0.355871   104A      0.368857   105A      0.376886  
     106A      0.384969   107A      0.400163   108A      0.403741  
     109A      0.419338   110A      0.428568   111A      0.437948  
     112A      0.439536   113A      0.452585   114A      0.458820  
     115A      0.465226   116A      0.470809   117A      0.475222  
     118A      0.478002   119A      0.485543   120A      0.488572  
     121A      0.489690   122A      0.497743   123A      0.499166  
     124A      0.503491   125A      0.507276   126A      0.510107  
     127A      0.517049   128A      0.524030   129A      0.529295  
     130A      0.536170   131A      0.540846   132A      0.552413  
     133A      0.554321   134A      0.559531   135A      0.563037  
     136A      0.572443   137A      0.584780   138A      0.594020  
     139A      0.603874   140A      0.620748   141A      0.628028  
     142A      0.631510   143A      0.638485   144A      0.647656  
     145A      0.655820   146A      0.661278   147A      0.671195  
     148A      0.679769   149A      0.686624   150A      0.688452  
     151A      0.692465   152A      0.696500   153A      0.709293  
     154A      0.718295   155A      0.725017   156A      0.726039  
     157A      0.729336   158A      0.734959   159A      0.736774  
     160A      0.749114   161A      0.754315   162A      0.759184  
     163A      0.770382   164A      0.774369   165A      0.791037  
     166A      0.808183   167A      0.824662   168A      0.829200  
     169A      0.838602   170A      0.840655   171A      0.849349  
     172A      0.850369   173A      0.858580   174A      0.867362  
     175A      0.868290   176A      0.871004   177A      0.886041  
     178A      0.913008   179A      0.916346   180A      0.927732  
     181A      0.935872   182A      0.953384   183A      0.967131  
     184A      0.974476   185A      0.981051   186A      0.990675  
     187A      1.002179   188A      1.015915   189A      1.027749  
     190A      1.048898   191A      1.052505   192A      1.067156  
     193A      1.097499   194A      1.120811   195A      1.133930  
     196A      1.139458   197A      1.144432   198A      1.173437  
     199A      1.182715   200A      1.205883   201A      1.246692  
     202A      1.298629   203A      1.342689   204A      1.363182  
     205A      1.393060   206A      1.476889   207A      1.545360  
     208A      1.817102   209A      2.291481   210A      2.307559  
     211A      2.327472   212A      2.342620   213A      2.350593  
     214A      2.385333   215A      2.399741   216A      2.421419  
     217A      2.442333   218A      2.452308   219A      2.472684  
     220A      2.512074   221A      2.608942   222A      2.612377  
     223A      2.623825   224A      2.630444   225A      2.639765  
     226A      2.667215   227A      2.669012   228A      2.681587  
     229A      2.707036   230A      2.728810   231A      2.746126  
     232A      2.771494   233A      2.782073   234A      2.790538  
     235A      2.806677   236A      2.815907   237A      2.830743  
     238A      2.841005   239A      2.848481   240A      2.859210  
     241A      2.861651   242A      2.873556   243A      2.895855  
     244A      2.927840   245A      2.944801   246A      2.954329  
     247A      2.970165   248A      2.981219   249A      3.026018  
     250A      3.041760   251A      3.084692   252A      3.089505  
     253A      3.124393   254A      3.140426   255A      3.170333  
     256A      3.174507   257A      3.212329   258A      3.217368  
     259A      3.240784   260A      3.245385   261A      3.272269  
     262A      3.276164   263A      3.293835   264A      3.308665  
     265A      3.326747   266A      3.332481   267A      3.337536  
     268A      3.352978   269A      3.358131   270A      3.371253  
     271A      3.447498   272A      3.506815   273A      3.536250  
     274A      3.817383   275A      3.938653   276A      4.116688  
     277A      4.199901   278A      4.237375   279A      4.346731  
     280A      4.995269   281A      5.112878   282A      5.175133  
     283A     23.239603   284A     23.264300   285A     23.357876  
     286A     23.461311   287A     23.472377   288A     23.480902  
     289A     23.503647   290A     23.513882   291A     23.579252  
     292A     23.706542   293A     23.714700   294A     23.740812  
     295A     23.748398   296A     23.764319   297A     23.873094  
     298A     23.976056   299A     23.983915   300A     35.529742  
     301A     35.590843   302A     50.087395  

    Final Occupation by Irrep:
              A 
    DOCC [    69 ]

  @DF-RKS Final Energy:  -840.64666879259596

   => Energetics <=

    Nuclear Repulsion Energy =           1413.3789800971496788
    One-Electron Energy =               -3945.1074547520161104
    Two-Electron Energy =                1773.6350633211395689
    DFT Exchange-Correlation Energy =     -82.5293495192207160
    Empirical Dispersion Energy =          -0.0239079396482121
    VV10 Nonlocal Energy =                  0.0000000000000000
    Total Energy =                       -840.6466687925959604

Computation Completed


Properties will be evaluated at   0.000000,   0.000000,   0.000000 [a0]

Properties computed using the SCF density matrix

  Nuclear Dipole Moment: [e a0]
     X:     2.6291      Y:     6.5422      Z:    -4.7101

  Electronic Dipole Moment: [e a0]
     X:    -2.8036      Y:    -5.3542      Z:     4.0964

  Dipole Moment: [e a0]
     X:    -0.1746      Y:     1.1880      Z:    -0.6137     Total:     1.3485

  Dipole Moment: [D]
     X:    -0.4437      Y:     3.0197      Z:    -1.5598     Total:     3.4276


*** tstop() called on node74.bme.utexas.edu at Thu Jun  9 04:30:39 2022
Module time:
	user time   =     265.93 seconds =       4.43 minutes
	system time =       5.34 seconds =       0.09 minutes
	total time  =        138 seconds =       2.30 minutes
Total time:
	user time   =     265.93 seconds =       4.43 minutes
	system time =       5.34 seconds =       0.09 minutes
	total time  =        138 seconds =       2.30 minutes

*** tstart() called on node74.bme.utexas.edu
*** at Thu Jun  9 04:30:39 2022


         ------------------------------------------------------------
                                   SCF GRAD                          
                          Rob Parrish, Justin Turney,                
                       Andy Simmonett, and Alex Sokolov              
         ------------------------------------------------------------

  ==> Geometry <==

    Molecular point group: c1
    Full point group: C1

    Geometry (in Angstrom), charge = 0, multiplicity = 1:

       Center              X                  Y                   Z               Mass       
    ------------   -----------------  -----------------  -----------------  -----------------
         C           -0.617577174424    -0.320388969445     0.255998942578    12.000000000000
         N            0.521672825576    -1.098149969445     0.116973942578    14.003074004430
         C            1.785959825576    -0.752657969445    -0.417171057422    12.000000000000
         C            2.542903825576     0.302058030555     0.147769942578    12.000000000000
         H            0.494055825576    -1.973037969445     0.676180942578     1.007825032230
         C            2.292851825576    -1.453216969445    -1.537861057422    12.000000000000
         C           -1.651443174424    -0.775147969445     1.086382942578    12.000000000000
         N           -2.743087174424    -2.076259969445     2.602369942578    14.003074004430
         C           -2.992393174424    -0.269552969445     1.276710942578    12.000000000000
         C           -1.541065174424    -1.974153969445     1.946336942578    12.000000000000
         C           -3.610057174424    -1.059965969445     2.196380942578    12.000000000000
         C           -0.676233174424     1.009202030555    -0.418476057422    12.000000000000
         C           -1.064948174424     2.169908030555     0.300269942578    12.000000000000
         C           -0.410095174424     1.125819030555    -1.808517057422    12.000000000000
         C           -1.162356174424     3.408466030555    -0.347500057422    12.000000000000
         C           -0.505166174424     2.367891030555    -2.449705057422    12.000000000000
         C           -0.880630174424     3.516528030555    -1.724327057422    12.000000000000
         C            3.783330825576     0.648759030555    -0.404528057422    12.000000000000
         C            3.534068825576    -1.097782969445    -2.083642057422    12.000000000000
         C            4.288576825576    -0.045727969445    -1.523564057422    12.000000000000
         H            2.159947825576     0.847267030555     1.012792942578     1.007825032230
         H            1.716567825576    -2.270066969445    -1.977572057422     1.007825032230
         H           -2.932427174424    -2.810543969445     3.268868942578     1.007825032230
         O           -0.569210174424    -2.762533969445     2.066397942578    15.994914619570
         H           -1.283080174424     2.095147030555     1.367242942578     1.007825032230
         H           -0.131669174424     0.239854030555    -2.381970057422     1.007825032230
         H           -1.458553174424     4.293016030555     0.219208942578     1.007825032230
         H           -0.290638174424     2.444146030555    -3.517192057422     1.007825032230
         H           -0.955357174424     4.483090030555    -2.226104057422     1.007825032230
         H            4.357091825576     1.463719030555     0.039720942578     1.007825032230
         H            3.913599825576    -1.643798969445    -2.948979057422     1.007825032230
         H           -3.435958174424     0.585029030555     0.784855942578     1.007825032230
         H           -4.607766174424    -0.999145969445     2.608104942578     1.007825032230
         H            5.254645825576     0.228250030555    -1.951568057422     1.007825032230

  Nuclear repulsion = 1413.378980097149679

  ==> Basis Set <==

  Basis Set: 6-311G
    Blend: 6-311G
    Number of shells: 182
    Number of basis functions: 302
    Number of Cartesian functions: 302
    Spherical Harmonics?: true
    Max angular momentum: 1

  ==> DFJKGrad: Density-Fitted SCF Gradients <==

    Gradient:                    1
    J tasked:                  Yes
    K tasked:                  Yes
    wK tasked:                 Yes
    Omega:               2.000E-01
    OpenMP threads:              2
    Integrals threads:           2
    Memory [MiB]:             5841
    Schwarz Cutoff:          1E-12
    Fitting Condition:       1E-10

   => Auxiliary Basis Set <=

  Basis Set: (6-311G AUX)
    Blend: CC-PVTZ-JKFIT
    Number of shells: 640
    Number of basis functions: 2000
    Number of Cartesian functions: 2410
    Spherical Harmonics?: true
    Max angular momentum: 4

  ==> DFT Potential <==

   => LibXC <=

    Version 5.1.5
    S. Lehtola, C. Steigemann, M. J. Oliveira, and M. A. Marques, SoftwareX 7, 1 (2018) (10.1016/j.softx.2017.11.002)

   => Composite Functional: WB97X-D <= 

    wB97X-D Hyb-GGA Exchange-Correlation Functional

    J.-D. Chai and M. Head-Gordon, Phys. Chem. Chem. Phys. 10, 6615 (2008) (10.1039/B810189B)

    Deriv               =              1
    GGA                 =           TRUE
    Meta                =          FALSE

    Exchange Hybrid     =           TRUE
    MP2 Hybrid          =          FALSE

   => Exchange-Correlation Functionals <=

    1.0000   wB97X-D range-separated functional

   => Exact (HF) Exchange <=

    0.7780            HF,LR [omega = 0.2000]
    0.2220               HF 

   => LibXC Density Thresholds  <==

    XC_HYB_GGA_XC_WB97X_D:  1.00E-14 

   => Molecular Quadrature <=

    Radial Scheme          =       TREUTLER
    Pruning Scheme         =           NONE
    Nuclear Scheme         =       TREUTLER

    BS radius alpha        =              1
    Pruning alpha          =              1
    Radial Points          =             75
    Spherical Points       =            302
    Total Points           =         700296
    Total Blocks           =           4985
    Max Points             =            256
    Max Functions          =            219
    Weights Tolerance      =       1.00E-15


  -Total Gradient:
     Atom            X                  Y                   Z
    ------   -----------------  -----------------  -----------------
       1       -0.007718595855     0.007539999202    -0.015839071476
       2        0.020389413197     0.011537657408    -0.016604983009
       3       -0.015229856193    -0.015499584922     0.011878422954
       4        0.001403522792     0.006038052968     0.006555735285
       5        0.004050398259    -0.009375715702     0.007410162556
       6       -0.000352847445    -0.005177820538    -0.007405614823
       7       -0.015957501426     0.004357207344     0.009199217489
       8       -0.002879897273     0.007877730022    -0.006755153848
       9        0.010138067113    -0.004183221130    -0.006754385047
      10       -0.003520852902    -0.010103283525     0.012601231780
      11        0.007436712144    -0.008909465855     0.004234186525
      12        0.006750187410    -0.007979836742     0.011713377263
      13       -0.003313365652     0.006773659030     0.004784161077
      14       -0.000168188558    -0.002014735715    -0.008288042319
      15       -0.002089194170     0.001432855844     0.006988040171
      16        0.001824928049    -0.003529325956    -0.005320305963
      17       -0.000527553686     0.007748252287    -0.004459724080
      18       -0.000738347989     0.004337740577     0.005769818145
      19       -0.003304672017    -0.004473045802    -0.004993662084
      20        0.008911366619     0.002209416206    -0.003844894132
      21       -0.000679058087     0.004813468995     0.005924564801
      22       -0.001963977421    -0.006085417923    -0.004034656303
      23       -0.000093693301    -0.005852161581     0.005135946374
      24       -0.006727615963     0.004586738752    -0.000119240347
      25       -0.001692178829     0.000704442535     0.006736811291
      26        0.001326217606    -0.005348891167    -0.004359131879
      27       -0.001913231398     0.005600068006     0.003404119354
      28        0.001553251408     0.000684049820    -0.006701255186
      29       -0.000465881630     0.006216548875    -0.003249957955
      30        0.003101313509     0.004981869316     0.003025090998
      31        0.001827246171    -0.003598337951    -0.005236265511
      32       -0.002048256232     0.003028736323    -0.001369842189
      33       -0.003499291015    -0.000299256083     0.002666345671
      34        0.006413067991     0.001800220682    -0.002722181595


*** tstop() called on node74.bme.utexas.edu at Thu Jun  9 04:31:40 2022
Module time:
	user time   =     117.64 seconds =       1.96 minutes
	system time =       1.75 seconds =       0.03 minutes
	total time  =         61 seconds =       1.02 minutes
Total time:
	user time   =     383.58 seconds =       6.39 minutes
	system time =       7.09 seconds =       0.12 minutes
	total time  =        199 seconds =       3.32 minutes

			-----------------------------------------
			 OPTKING 2.0: for geometry optimizations 
			  - R.A. King,  Bethel University        
			-----------------------------------------
	At level 1: Red. Int., RFO, no backsteps, dynamic trust

	Internal coordinates to be generated automatically.
	Detected frag 1 with atoms:  1 2 3 4 5 6 7 8 9 10 11 12 13 14 15 16 17 18 19 20
	 21 22 23 24 25 26 27 28 29 30 31 32 33 34
	---Fragment 1 Bond Connectivity---
	 1 : 2 7 12
	 2 : 1 3 5
	 3 : 2 4 6
	 4 : 3 18 21
	 5 : 2
	 6 : 3 19 22
	 7 : 1 9 10
	 8 : 10 11 23
	 9 : 7 11 32
	 10 : 7 8 24
	 11 : 8 9 33
	 12 : 1 13 14
	 13 : 12 15 25
	 14 : 12 16 26
	 15 : 13 17 27
	 16 : 14 17 28
	 17 : 15 16 29
	 18 : 4 20 30
	 19 : 6 20 31
	 20 : 18 19 34
	 21 : 4
	 22 : 6
	 23 : 8
	 24 : 10
	 25 : 13
	 26 : 14
	 27 : 15
	 28 : 16
	 29 : 17
	 30 : 18
	 31 : 19
	 32 : 9
	 33 : 11
	 34 : 20

	Assuming in current code that numbering for constraints corresponds to unified fragment.
	Frozen dihedral atom list: 
	     1     2     3     4
	     2     1    12    13
	     7     1     2     3
	---Fragment 1 Geometry and Gradient---
	 C          -1.1670517210       -0.6054474059        0.4837678899
	 N           0.9858187674       -2.0752026869        0.2210487153
	 C           3.3749749414       -1.4223174284       -0.7883390460
	 C           4.8053917937        0.5708069517        0.2792447210
	 H           0.9336302010       -3.7285013974        1.2777967927
	 C           4.3328619966       -2.7461820731       -2.9061362175
	 C          -3.1207753114       -1.4648173690        2.0529662288
	 N          -5.1836834979       -3.9235627075        4.9177664686
	 C          -5.6548035594       -0.5093812886        2.4126340228
	 C          -2.9121911211       -3.7306103317        3.6780437693
	 C          -6.8220193569       -2.0030453846        4.1505584486
	 C          -1.2778954966        1.9071154430       -0.7908051386
	 C          -2.0124603875        4.1005318952        0.5674279552
	 C          -0.7749675650        2.1274896346       -3.4176019317
	 C          -2.1965348299        6.4410673057       -0.6566799371
	 C          -0.9546257175        4.4746655427       -4.6292716467
	 C          -1.6641498475        6.6452748902       -3.2585058892
	 C           7.1494591023        1.2259768892       -0.7644472386
	 C           6.6784221889       -2.0745091574       -3.9375128320
	 C           8.1042356683       -0.0864133385       -2.8791188031
	 H           4.0817098356        1.6011026429        1.9139012833
	 H           3.2438430661       -4.2898048587       -3.7370695819
	 H          -5.5414842425       -5.3111583658        6.1772670415
	 O          -1.0756513375       -5.2204326145        3.9049261777
	 H          -2.4246701267        3.9592540803        2.5837147084
	 H          -0.2488186788        0.4532584278       -4.5012710476
	 H          -2.7562660391        8.1126245499        0.4142448657
	 H          -0.5492265513        4.6187666084       -6.6465297192
	 H          -1.8053634117        8.4718123535       -4.2067269953
	 H           8.2337102538        2.7660280924        0.0750617029
	 H           7.3956318350       -3.1063298576       -5.5727627682
	 H          -6.4930199282        1.1055446432        1.4831627794
	 H          -8.7074161198       -1.8881122416        4.9286040479
	 H           9.9298414966        0.4313300459       -3.6879291437
	            -0.0077185959        0.0075399992       -0.0158390715
	             0.0203894132        0.0115376574       -0.0166049830
	            -0.0152298562       -0.0154995849        0.0118784230
	             0.0014035228        0.0060380530        0.0065557353
	             0.0040503983       -0.0093757157        0.0074101626
	            -0.0003528474       -0.0051778205       -0.0074056148
	            -0.0159575014        0.0043572073        0.0091992175
	            -0.0028798973        0.0078777300       -0.0067551538
	             0.0101380671       -0.0041832211       -0.0067543850
	            -0.0035208529       -0.0101032835        0.0126012318
	             0.0074367121       -0.0089094659        0.0042341865
	             0.0067501874       -0.0079798367        0.0117133773
	            -0.0033133657        0.0067736590        0.0047841611
	            -0.0001681886       -0.0020147357       -0.0082880423
	            -0.0020891942        0.0014328558        0.0069880402
	             0.0018249280       -0.0035293260       -0.0053203060
	            -0.0005275537        0.0077482523       -0.0044597241
	            -0.0007383480        0.0043377406        0.0057698181
	            -0.0033046720       -0.0044730458       -0.0049936621
	             0.0089113666        0.0022094162       -0.0038448941
	            -0.0006790581        0.0048134690        0.0059245648
	            -0.0019639774       -0.0060854179       -0.0040346563
	            -0.0000936933       -0.0058521616        0.0051359464
	            -0.0067276160        0.0045867388       -0.0001192403
	            -0.0016921788        0.0007044425        0.0067368113
	             0.0013262176       -0.0053488912       -0.0043591319
	            -0.0019132314        0.0056000680        0.0034041194
	             0.0015532514        0.0006840498       -0.0067012552
	            -0.0004658816        0.0062165489       -0.0032499580
	             0.0031013135        0.0049818693        0.0030250910
	             0.0018272462       -0.0035983380       -0.0052362655
	            -0.0020482562        0.0030287363       -0.0013698422
	            -0.0034992910       -0.0002992561        0.0026663457
	             0.0064130680        0.0018002207       -0.0027221816

	Previous optimization step data not found.  Starting new optimization.

	---Fragment 1 Intrafragment Coordinates---
	 - Coordinate -           - BOHR/RAD -       - ANG/DEG -
	 H(5,24)          =         3.628344	       1.920037
	 R(1,2)           =         2.619934	       1.386409
	 R(1,7)           =         2.649139	       1.401864
	 R(1,12)          =         2.819538	       1.492035
	 R(2,3)           =         2.674545	       1.415308
	 R(2,5)           =         1.962864	       1.038703
	 R(3,4)           =         2.675513	       1.415821
	 R(3,6)           =         2.674926	       1.415510
	 R(4,18)          =         2.648243	       1.401390
	 R(4,21)          =         2.063329	       1.091867
	 R(6,19)          =         2.648874	       1.401724
	 R(6,22)          =         2.063779	       1.092105
	 R(7,9)           =         2.731944	       1.445683
	 R(7,10)          =         2.796105	       1.479635
	 R(8,10)          =         2.594961	       1.373194
	 R(8,11)          =         2.638397	       1.396180
	 R(8,23)          =         1.907822	       1.009576
	 R(9,11)          =         2.571732	       1.360902
	 R(9,32)          =         2.043162	       1.081195
	 R(10,24)         =         2.375695	       1.257163
	 R(11,33)         =         2.042862	       1.081036
	 R(12,13)         =         2.682435	       1.419484
	 R(12,14)         =         2.683573	       1.420086
	 R(13,15)         =         2.647722	       1.401114
	 R(13,25)         =         2.062835	       1.091605
	 R(14,16)         =         2.647575	       1.401037
	 R(14,26)         =         2.062576	       1.091468
	 R(15,17)         =         2.663575	       1.409503
	 R(15,27)         =         2.062591	       1.091476
	 R(16,17)         =         2.663450	       1.409437
	 R(16,28)         =         2.062630	       1.091497
	 R(17,29)         =         2.062839	       1.091607
	 R(18,20)         =         2.665671	       1.410612
	 R(18,30)         =         2.062070	       1.091201
	 R(19,20)         =         2.665646	       1.410599
	 R(19,31)         =         2.062301	       1.091323
	 R(20,34)         =         2.062782	       1.091577
	 B(1,2,3)         =         2.258735	     129.415962
	 B(1,2,5)         =         1.978695	     113.370849
	 B(1,7,9)         =         2.276539	     130.436088
	 B(1,7,10)        =         2.155702	     123.512630
	 B(1,12,13)       =         2.106612	     120.699990
	 B(1,12,14)       =         2.104003	     120.550508
	 B(2,1,7)         =         2.075370	     118.909944
	 B(2,1,12)        =         2.079318	     119.136127
	 B(2,3,4)         =         2.104636	     120.586755
	 B(2,3,6)         =         2.091941	     119.859384
	 B(3,2,5)         =         2.018112	     115.629281
	 B(3,4,18)        =         2.094704	     120.017694
	 B(3,4,21)        =         2.095073	     120.038850
	 B(3,6,19)        =         2.094241	     119.991155
	 B(3,6,22)        =         2.094376	     119.998928
	 B(4,3,6)         =         2.086503	     119.547820
	 B(4,18,20)       =         2.103516	     120.522601
	 B(4,18,30)       =         2.082580	     119.323024
	 B(6,19,20)       =         2.103840	     120.541167
	 B(6,19,31)       =         2.082678	     119.328677
	 B(7,1,12)        =         2.126868	     121.860535
	 B(7,9,11)        =         1.882657	     107.868276
	 B(7,9,32)        =         2.210639	     126.660267
	 B(7,10,8)        =         1.846907	     105.819961
	 B(7,10,24)       =         2.241255	     128.414428
	 B(8,10,24)       =         2.194981	     125.763148
	 B(8,11,9)        =         1.915000	     109.721437
	 B(8,11,33)       =         2.098209	     120.218494
	 B(9,7,10)        =         1.850505	     106.026152
	 B(9,11,33)       =         2.269964	     130.059368
	 B(10,8,11)       =         1.928911	     110.518461
	 B(10,8,23)       =         2.133697	     122.251852
	 B(11,8,23)       =         2.220482	     127.224260
	 B(11,9,32)       =         2.189885	     125.471145
	 B(12,13,15)      =         2.103391	     120.515439
	 B(12,13,25)      =         2.087063	     119.579908
	 B(12,14,16)      =         2.103722	     120.534370
	 B(12,14,26)      =         2.089125	     119.698044
	 B(13,12,14)      =         2.071226	     118.672505
	 B(13,15,17)      =         2.100738	     120.363432
	 B(13,15,27)      =         2.088877	     119.683828
	 B(14,16,17)      =         2.100221	     120.333773
	 B(14,16,28)      =         2.089995	     119.747883
	 B(15,13,25)      =         2.092712	     119.903560
	 B(15,17,16)      =         2.086896	     119.570346
	 B(15,17,29)      =         2.098110	     120.212825
	 B(16,14,26)      =         2.090336	     119.767413
	 B(16,17,29)      =         2.098176	     120.216628
	 B(17,15,27)      =         2.093570	     119.952737
	 B(17,16,28)      =         2.092963	     119.917961
	 B(18,4,21)       =         2.093406	     119.943349
	 B(18,20,19)      =         2.083559	     119.379161
	 B(18,20,34)      =         2.099565	     120.296229
	 B(19,6,22)       =         2.094568	     120.009904
	 B(19,20,34)      =         2.100060	     120.324602
	 B(20,18,30)      =         2.097089	     120.154371
	 B(20,19,31)      =         2.096667	     120.130156
	*D(1,2,3,4)       =         1.031227	      59.084962
	 D(1,2,3,6)       =        -2.094690	    -120.016916
	 D(1,7,9,11)      =        -3.139503	    -179.880250
	 D(1,7,9,32)      =        -0.001319	      -0.075563
	 D(1,7,10,8)      =         3.133138	     179.515567
	 D(1,7,10,24)     =        -0.018073	      -1.035517
	 D(1,12,13,15)    =        -3.103783	    -177.833672
	 D(1,12,13,25)    =         0.044454	       2.547005
	 D(1,12,14,16)    =         3.107399	     178.040868
	 D(1,12,14,26)    =        -0.031550	      -1.807662
	 D(2,1,7,9)       =        -2.984145	    -170.978900
	 D(2,1,7,10)      =         0.120997	       6.932643
	*D(2,1,12,13)     =        -2.274459	    -130.316879
	 D(2,1,12,14)     =         0.923563	      52.916263
	 D(2,3,4,18)      =        -3.123002	    -178.934851
	 D(2,3,4,21)      =         0.016507	       0.945762
	 D(2,3,6,19)      =         3.122010	     178.877979
	 D(2,3,6,22)      =        -0.018848	      -1.079923
	*D(3,2,1,7)       =        -2.887615	    -165.448176
	 D(3,2,1,12)      =         0.193806	      11.104275
	 D(3,4,18,20)     =         0.000036	       0.002057
	 D(3,4,18,30)     =         3.141245	     179.980065
	 D(3,6,19,20)     =         0.002192	       0.125598
	 D(3,6,19,31)     =        -3.139391	    -179.873879
	 D(4,3,2,5)       =        -1.840439	    -105.449395
	 D(4,3,6,19)      =        -0.004071	      -0.233279
	 D(4,3,6,22)      =         3.138256	     179.808819
	 D(4,18,20,19)    =        -0.001932	      -0.110707
	 D(4,18,20,34)    =         3.140236	     179.922268
	 D(5,2,1,7)       =        -0.011026	      -0.631743
	 D(5,2,1,12)      =         3.070396	     175.920708
	 D(5,2,3,6)       =         1.316829	      75.448727
	 D(6,3,4,18)      =         0.002964	       0.169809
	 D(6,3,4,21)      =        -3.140713	    -179.949578
	 D(6,19,20,18)    =         0.000813	       0.046571
	 D(6,19,20,34)    =        -3.141356	    -179.986413
	 D(7,1,12,13)     =         0.805115	      46.129718
	 D(7,1,12,14)     =        -2.280048	    -130.637140
	 D(7,9,11,8)      =        -0.017557	      -1.005968
	 D(7,9,11,33)     =         3.129451	     179.304325
	 D(7,10,8,11)     =         0.027937	       1.600693
	 D(7,10,8,23)     =        -3.127455	    -179.189984
	 D(8,10,7,9)      =        -0.037318	      -2.138159
	 D(8,11,9,32)     =         3.127393	     179.186415
	 D(9,7,1,12)      =         0.219331	      12.566718
	 D(9,7,10,24)     =         3.094656	     177.310756
	 D(9,11,8,10)     =        -0.007217	      -0.413519
	 D(9,11,8,23)     =        -3.134153	    -179.573749
	 D(10,7,1,12)     =        -2.958712	    -169.521738
	 D(10,7,9,11)     =         0.033708	       1.931340
	 D(10,7,9,32)     =        -3.111293	    -178.263972
	 D(10,8,11,33)    =         3.129579	     179.311643
	 D(11,8,10,24)    =        -3.104368	    -177.867173
	 D(12,13,15,17)   =         0.004707	       0.269720
	 D(12,13,15,27)   =        -3.137257	    -179.751582
	 D(12,14,16,17)   =        -0.011775	      -0.674663
	 D(12,14,16,28)   =         3.133753	     179.550808
	 D(13,12,14,16)   =         0.021107	       1.209367
	 D(13,12,14,26)   =        -3.117842	    -178.639163
	 D(13,15,17,16)   =         0.004990	       0.285886
	 D(13,15,17,29)   =        -3.139445	    -179.876939
	 D(14,12,13,15)   =        -0.017577	      -1.007073
	 D(14,12,13,25)   =         3.130660	     179.373604
	 D(14,16,17,15)   =        -0.001459	      -0.083586
	 D(14,16,17,29)   =        -3.140210	    -179.920755
	 D(15,17,16,28)   =         3.136192	     179.690558
	 D(16,17,15,27)   =        -3.136230	    -179.692756
	 D(17,15,13,25)   =         3.139635	     179.887812
	 D(17,16,14,26)   =         3.127172	     179.173762
	 D(18,20,19,31)   =        -3.140789	    -179.953955
	 D(19,20,18,30)   =         3.140047	     179.911468
	 D(20,18,4,21)    =        -3.139475	    -179.878670
	 D(20,19,6,22)    =        -3.140135	    -179.916505
	 D(21,4,18,30)    =         0.001734	       0.099338
	 D(22,6,19,31)    =         0.001466	       0.084018
	 D(23,8,10,24)    =         0.023425	       1.342150
	 D(23,8,11,33)    =         0.002643	       0.151413
	 D(25,13,15,27)   =        -0.002330	      -0.133489
	 D(26,14,16,28)   =        -0.010485	      -0.600766
	 D(27,15,17,29)   =         0.002521	       0.144420
	 D(28,16,17,29)   =        -0.002559	      -0.146611
	 D(30,18,20,34)   =        -0.000970	      -0.055557
	 D(31,19,20,34)   =         0.000228	       0.013060
	 D(32,9,11,33)    =        -0.008784	      -0.503293
	 R(2,24)          =         5.264322	       2.785759
	 R(3,14)          =         6.061038	       3.207363
	 R(4,12)          =         6.319582	       3.344179
	 R(4,14)          =         6.872434	       3.636735
	 R(6,14)          =         7.078432	       3.745745
	 R(9,13)          =         6.158145	       3.258750

	Current energy   :      -840.6466687926

	Generating empirical Hessian (Schlegel '84) for each fragment.
	Taking RFO optimization step.
	Going to follow RFO solution 1.
	Using RFO vector 1.
	Norm of target step-size    0.33592
	Projected energy change by RFO approximation:        -0.0161357421

	Back-transformation to cartesian coordinates...
	Could not converge backtransformation.
	Using first guess instead.

	Back-transformation to cartesian coordinates to adjust frozen coordinates...
	Successfully converged to displaced geometry.

	--- Internal Coordinate Step in ANG or DEG, aJ/ANG or AJ/DEG ---
	 ---------------------------------------------------------------------------
	   Coordinate                Previous        Force       Change         New 
	   ----------                --------       ------       ------       ------
	    1 H(5,24)         =      1.920037    -0.031355    -0.016417     1.903620
	    2 R(1,2)          =      1.386409    -0.134013    -0.002606     1.383803
	    3 R(1,7)          =      1.401864    -0.120771    -0.022646     1.379218
	    4 R(1,12)         =      1.492035     0.008713     0.019150     1.511186
	    5 R(2,3)          =      1.415308     0.073349     0.008804     1.424112
	    6 R(2,5)          =      1.038703    -0.120554    -0.000070     1.038633
	    7 R(3,4)          =      1.415821    -0.135155     0.000804     1.416624
	    8 R(3,6)          =      1.415510    -0.135388     0.000628     1.416138
	    9 R(4,18)         =      1.401390    -0.078324    -0.010469     1.390921
	   10 R(4,21)         =      1.091867    -0.060525     0.005898     1.097764
	   11 R(6,19)         =      1.401724    -0.076420    -0.009799     1.391925
	   12 R(6,22)         =      1.092105    -0.059363     0.005723     1.097828
	   13 R(7,9)          =      1.445683     0.082617     0.024777     1.470460
	   14 R(7,10)         =      1.479635    -0.037790     0.014746     1.494381
	   15 R(8,10)         =      1.373194     0.034411     0.006404     1.379598
	   16 R(8,11)         =      1.396180     0.046319     0.037541     1.433720
	   17 R(8,23)         =      1.009576    -0.063138     0.004241     1.013817
	   18 R(9,11)         =      1.360902    -0.084429    -0.000594     1.360308
	   19 R(9,32)         =      1.081195    -0.031822     0.018131     1.099326
	   20 R(10,24)        =      1.257163     0.067364     0.028206     1.285370
	   21 R(11,33)        =      1.081036    -0.034884    -0.003119     1.077917
	   22 R(12,13)        =      1.419484    -0.131424     0.006694     1.426178
	   23 R(12,14)        =      1.420086    -0.128263    -0.000237     1.419848
	   24 R(13,15)        =      1.401114    -0.081316     0.012886     1.414000
	   25 R(13,25)        =      1.091605    -0.056659     0.005519     1.097124
	   26 R(14,16)        =      1.401037    -0.087604     0.012068     1.413104
	   27 R(14,26)        =      1.091468    -0.057376     0.011270     1.102739
	   28 R(15,17)        =      1.409503    -0.130700     0.002153     1.411657
	   29 R(15,27)        =      1.091476    -0.056282     0.011739     1.103215
	   30 R(16,17)        =      1.409437    -0.126587     0.010707     1.420144
	   31 R(16,28)        =      1.091497    -0.056884     0.005251     1.096747
	   32 R(17,29)        =      1.091607    -0.057951     0.008366     1.099973
	   33 R(18,20)        =      1.410612    -0.130777     0.003154     1.413766
	   34 R(18,30)        =      1.091201    -0.054294     0.006942     1.098143
	   35 R(19,20)        =      1.410599    -0.130606     0.002766     1.413365
	   36 R(19,31)        =      1.091323    -0.054184     0.007396     1.098719
	   37 R(20,34)        =      1.091577    -0.059244    -0.010232     1.081345
	   38 B(1,2,3)        =    129.415962     0.000019    -2.214260   127.201701
	   39 B(1,2,5)        =    113.370849    -0.000107     1.233345   114.604194
	   40 B(1,7,9)        =    130.436088    -0.000054    -1.085180   129.350908
	   41 B(1,7,10)       =    123.512630     0.000023    -0.776295   122.736335
	   42 B(1,12,13)      =    120.699990    -0.000012    -0.336640   120.363350
	   43 B(1,12,14)      =    120.550508     0.000164     0.288733   120.839241
	   44 B(2,1,7)        =    118.909944    -0.000257    -0.841048   118.068896
	   45 B(2,1,12)       =    119.136127     0.000142     1.239094   120.375220
	   46 B(2,3,4)        =    120.586755     0.000191    -0.100577   120.486178
	   47 B(2,3,6)        =    119.859384    -0.000133    -0.951247   118.908137
	   48 B(3,2,5)        =    115.629281     0.000087     1.100689   116.729971
	   49 B(3,4,18)       =    120.017694     0.000070    -0.356301   119.661393
	   50 B(3,4,21)       =    120.038850    -0.000209     0.210841   120.249690
	   51 B(3,6,19)       =    119.991155     0.000065    -0.379818   119.611337
	   52 B(3,6,22)       =    119.998928    -0.000204     0.218622   120.217550
	   53 B(4,3,6)        =    119.547820    -0.000056     0.994569   120.542389
	   54 B(4,18,20)      =    120.522601    -0.000064    -0.758288   119.764313
	   55 B(4,18,30)      =    119.323024     0.000073    -0.209928   119.113096
	   56 B(6,19,20)      =    120.541167    -0.000066    -0.748594   119.792573
	   57 B(6,19,31)      =    119.328677     0.000076    -0.218519   119.110158
	   58 B(7,1,12)       =    121.860535     0.000129    -0.306211   121.554324
	   59 B(7,9,11)       =    107.868276     0.000176    -1.290920   106.577356
	   60 B(7,9,32)       =    126.660267    -0.000135     0.530942   127.191209
	   61 B(7,10,8)       =    105.819961    -0.000246    -1.472716   104.347245
	   62 B(7,10,24)      =    128.414428     0.000679     2.203787   130.618216
	   63 B(8,10,24)      =    125.763148    -0.000432    -0.729494   125.033654
	   64 B(8,11,9)       =    109.721437    -0.000198     0.283378   110.004816
	   65 B(8,11,33)      =    120.218494     0.000184     0.734641   120.953135
	   66 B(9,7,10)       =    106.026152     0.000030     1.858934   107.885086
	   67 B(9,11,33)      =    130.059368     0.000014    -1.017661   129.041707
	   68 B(10,8,11)      =    110.518461     0.000238     0.624179   111.142640
	   69 B(10,8,23)      =    122.251852    -0.000023    -0.793971   121.457881
	   70 B(11,8,23)      =    127.224260    -0.000215     0.150637   127.374897
	   71 B(11,9,32)      =    125.471145    -0.000042     0.755647   126.226792
	   72 B(12,13,15)     =    120.515439     0.000111     0.325684   120.841123
	   73 B(12,13,25)     =    119.579908    -0.000151    -0.471397   119.108510
	   74 B(12,14,16)     =    120.534370     0.000115    -0.231163   120.303207
	   75 B(12,14,26)     =    119.698044    -0.000114    -0.315716   119.382328
	   76 B(13,12,14)     =    118.672505    -0.000153     0.103140   118.775645
	   77 B(13,15,17)     =    120.363432    -0.000032    -0.390315   119.973116
	   78 B(13,15,27)     =    119.683828     0.000004     0.312670   119.996498
	   79 B(14,16,17)     =    120.333773    -0.000026     0.170978   120.504751
	   80 B(14,16,28)     =    119.747883    -0.000001    -0.249198   119.498685
	   81 B(15,13,25)     =    119.903560     0.000040     0.143957   120.047517
	   82 B(15,17,16)     =    119.570346    -0.000016     0.030029   119.600376
	   83 B(15,17,29)     =    120.212825     0.000007    -0.301668   119.911157
	   84 B(16,14,26)     =    119.767413    -0.000001     0.547044   120.314457
	   85 B(16,17,29)     =    120.216628     0.000009     0.271816   120.488443
	   86 B(17,15,27)     =    119.952737     0.000027     0.077639   120.030375
	   87 B(17,16,28)     =    119.917961     0.000026     0.078579   119.996540
	   88 B(18,4,21)      =    119.943349     0.000138     0.143667   120.087016
	   89 B(18,20,19)     =    119.379161     0.000050     1.227200   120.606361
	   90 B(18,20,34)     =    120.296229    -0.000019    -0.589397   119.706832
	   91 B(19,6,22)      =    120.009904     0.000139     0.160702   120.170606
	   92 B(19,20,34)     =    120.324602    -0.000032    -0.639226   119.685376
	   93 B(20,18,30)     =    120.154371    -0.000009     0.965857   121.120229
	   94 B(20,19,31)     =    120.130156    -0.000010     0.964868   121.095024
	   95 *D(1,2,3,4)     =     59.084962    -0.000000     0.000000    59.084962
	   96 D(1,2,3,6)      =   -120.016916    -0.000050    -3.775592  -123.792508
	   97 D(1,7,9,11)     =   -179.880250    -0.000009    -0.792864  -180.673114
	   98 D(1,7,9,32)     =     -0.075563    -0.000002     0.152219     0.076656
	   99 D(1,7,10,8)     =    179.515567     0.000007     0.244763   179.760330
	  100 D(1,7,10,24)    =     -1.035517     0.000010     0.459809    -0.575708
	  101 D(1,12,13,15)   =   -177.833672    -0.000002    -1.001224  -178.834897
	  102 D(1,12,13,25)   =      2.547005     0.000002    -0.768067     1.778938
	  103 D(1,12,14,16)   =    178.040868    -0.000002     0.688202   178.729070
	  104 D(1,12,14,26)   =     -1.807662    -0.000005     0.504223    -1.303439
	  105 D(2,1,7,9)      =   -170.978900     0.000022    -1.566581  -172.545481
	  106 D(2,1,7,10)     =      6.932643     0.000014    -1.632072     5.300572
	  107 *D(2,1,12,13)   =   -130.316879     0.000000    -0.000000  -130.316879
	  108 D(2,1,12,14)    =     52.916263     0.000003    -1.515383    51.400880
	  109 D(2,3,4,18)     =   -178.934851    -0.000029    -2.318388  -181.253239
	  110 D(2,3,4,21)     =      0.945762    -0.000033    -2.700139    -1.754377
	  111 D(2,3,6,19)     =    178.877979     0.000037     3.141048   182.019027
	  112 D(2,3,6,22)     =     -1.079923     0.000036     2.840471     1.760548
	  113 *D(3,2,1,7)     =   -165.448176    -0.000000     0.000000  -165.448176
	  114 D(3,2,1,12)     =     11.104275     0.000061     3.894838    14.999114
	  115 D(3,4,18,20)    =      0.002057    -0.000014    -1.163968    -1.161911
	  116 D(3,4,18,30)    =    179.980065    -0.000007    -0.589201   179.390865
	  117 D(3,6,19,20)    =      0.125598    -0.000003    -0.567299    -0.441701
	  118 D(3,6,19,31)    =   -179.873879     0.000002    -0.028812  -179.902692
	  119 D(4,3,2,5)      =   -105.449395     0.000005    -0.826124  -106.275519
	  120 D(4,3,6,19)     =     -0.233279    -0.000013    -0.626830    -0.860108
	  121 D(4,3,6,22)     =    179.808819    -0.000015    -0.927407   178.881412
	  122 D(4,18,20,19)   =     -0.110707    -0.000002    -0.022842    -0.133549
	  123 D(4,18,20,34)   =    179.922268     0.000004     0.380680   180.302948
	  124 D(5,2,1,7)      =     -0.631743     0.000001     0.808411     0.176668
	  125 D(5,2,1,12)     =    175.920708     0.000062     4.703249   180.623958
	  126 D(5,2,3,6)      =     75.448727    -0.000045    -4.601716    70.847011
	  127 D(6,3,4,18)     =      0.169809     0.000021     1.501713     1.671522
	  128 D(6,3,4,21)     =   -179.949578     0.000016     1.119962  -178.829616
	  129 D(6,19,20,18)   =      0.046571     0.000010     0.900379     0.946950
	  130 D(6,19,20,34)   =   -179.986413     0.000004     0.496959  -179.489454
	  131 D(7,1,12,13)    =     46.129718     0.000060     4.016565    50.146283
	  132 D(7,1,12,14)    =   -130.637140     0.000063     2.501182  -128.135958
	  133 D(7,9,11,8)     =     -1.005968     0.000008     1.008259     0.002292
	  134 D(7,9,11,33)    =    179.304325     0.000008     0.912786   180.217111
	  135 D(7,10,8,11)    =      1.600693     0.000007     0.427509     2.028203
	  136 D(7,10,8,23)    =   -179.189984    -0.000002    -0.459110  -179.649094
	  137 D(8,10,7,9)     =     -2.138159    -0.000000     0.148453    -1.989706
	  138 D(8,11,9,32)    =    179.186415     0.000000     0.075459   179.261873
	  139 D(9,7,1,12)     =     12.566718    -0.000040    -5.565047     7.001672
	  140 D(9,7,10,24)    =    177.310756     0.000003     0.363499   177.674256
	  141 D(9,11,8,10)    =     -0.413519    -0.000009    -0.950672    -1.364191
	  142 D(9,11,8,23)    =   -179.573749     0.000000     0.010037  -179.563712
	  143 D(10,7,1,12)    =   -169.521738    -0.000049    -5.630538  -175.152276
	  144 D(10,7,9,11)    =      1.931340    -0.000002    -0.700717     1.230623
	  145 D(10,7,9,32)    =   -178.263972     0.000006     0.244366  -178.019606
	  146 D(10,8,11,33)   =    179.311643    -0.000009    -0.870388   178.441255
	  147 D(11,8,10,24)   =   -177.867173     0.000002     0.206892  -177.660281
	  148 D(12,13,15,17)  =      0.269720     0.000004     0.062745     0.332465
	  149 D(12,13,15,27)  =   -179.751582     0.000003     0.047291  -179.704291
	  150 D(12,14,16,17)  =     -0.674663     0.000002     0.532847    -0.141817
	  151 D(12,14,16,28)  =    179.550808     0.000001     0.363999   179.914807
	  152 D(13,12,14,16)  =      1.209367     0.000000    -0.789344     0.420023
	  153 D(13,12,14,26)  =   -178.639163    -0.000003    -0.973323  -179.612486
	  154 D(13,15,17,16)  =      0.285886    -0.000001    -0.330091    -0.044205
	  155 D(13,15,17,29)  =   -179.876939    -0.000002    -0.111413  -179.988352
	  156 D(14,12,13,15)  =     -1.007073    -0.000003     0.489512    -0.517561
	  157 D(14,12,13,25)  =    179.373604     0.000001     0.722670   180.096273
	  158 D(14,16,17,15)  =     -0.083586    -0.000001     0.033089    -0.050496
	  159 D(14,16,17,29)  =   -179.920755    -0.000001    -0.185923  -180.106678
	  160 D(15,17,16,28)  =    179.690558    -0.000001     0.202040   179.892598
	  161 D(16,17,15,27)  =   -179.692756    -0.000000    -0.314681  -180.007437
	  162 D(17,15,13,25)  =    179.887812     0.000000    -0.174918   179.712894
	  163 D(17,16,14,26)  =    179.173762     0.000004     0.717236   179.890998
	  164 D(18,20,19,31)  =   -179.953955     0.000006     0.350960  -179.602996
	  165 D(19,20,18,30)  =    179.911468    -0.000008    -0.609142   179.302326
	  166 D(20,18,4,21)   =   -179.878670    -0.000009    -0.782928  -180.661599
	  167 D(20,19,6,22)   =   -179.916505    -0.000001    -0.266839  -180.183344
	  168 D(21,4,18,30)   =      0.099338    -0.000003    -0.208161    -0.108823
	  169 D(22,6,19,31)   =      0.084018     0.000003     0.271647     0.355665
	  170 D(23,8,10,24)   =      1.342150    -0.000007    -0.679728     0.662422
	  171 D(23,8,11,33)   =      0.151413     0.000000     0.090321     0.241734
	  172 D(25,13,15,27)  =     -0.133489    -0.000001    -0.190373    -0.323862
	  173 D(26,14,16,28)  =     -0.600766     0.000004     0.548388    -0.052379
	  174 D(27,15,17,29)  =      0.144420    -0.000001    -0.096004     0.048416
	  175 D(28,16,17,29)  =     -0.146611    -0.000001    -0.016972    -0.163583
	  176 D(30,18,20,34)  =     -0.055557    -0.000002    -0.205620    -0.261177
	  177 D(31,19,20,34)  =      0.013060     0.000000    -0.052460    -0.039399
	  178 D(32,9,11,33)   =     -0.503293     0.000000    -0.020014    -0.523308
	  179 R(2,24)         =      2.785759    -0.027668    -0.004970     2.780789
	  180 R(3,14)         =      3.207363    -0.012845     0.024738     3.232101
	  181 R(4,12)         =      3.344179    -0.012525     0.012590     3.356769
	  182 R(4,14)         =      3.636735    -0.014844     0.058223     3.694958
	  183 R(6,14)         =      3.745745    -0.025821     0.041277     3.787022
	  184 R(9,13)         =      3.258750    -0.053434    -0.024019     3.234731
	 ---------------------------------------------------------------------------
	Successfully symmetrized geometry.

  ==> Convergence Check <==

  Measures of convergence in internal coordinates in au.
  Criteria marked as inactive (o), active & met (*), and active & unmet ( ).
  --------------------------------------------------------------------------------------------- ~
   Step     Total Energy     Delta E     MAX Force     RMS Force      MAX Disp      RMS Disp    ~
  --------------------------------------------------------------------------------------------- ~
    Convergence Criteria             o    2.50e-03 *    1.70e-03 *    1.00e-02 *    6.70e-03 *  ~
  --------------------------------------------------------------------------------------------- ~
      1    -840.64666879   -8.41e+02 o    1.64e-02      4.96e-03      1.10e-01      2.58e-02    ~
  ---------------------------------------------------------------------------------------------

	Writing optimization data to binary file.
	Structure for next step:
	Cartesian Geometry (in Angstrom)
	    C    -0.6200670413  -0.3229320345   0.2230912708
	    N     0.4089216687  -1.1710916483  -0.1466646081
	    C     1.6709675748  -0.8053945423  -0.6958460044
	    C     2.5452806062   0.0497357640   0.0191041090
	    H     0.3188195032  -2.1419489774   0.2112120130
	    C     2.0630257099  -1.3591917662  -1.9388448784
	    C    -1.6312490889  -0.8338095050   1.0097027954
	    N    -2.7726744841  -2.3265699034   2.2852510179
	    C    -2.8991500698  -0.2114655402   1.4188079397
	    C    -1.5992600230  -2.2197641077   1.5676280425
	    C    -3.5549266776  -1.1298135331   2.1784348550
	    C    -0.6271793447   1.1161793447  -0.2379835638
	    C    -0.8344965160   2.1720557713   0.6980332842
	    C    -0.4647093690   1.4415673090  -1.6104611311
	    C    -0.8674693882   3.5205832460   0.2740261373
	    C    -0.4999449474   2.7896688511  -2.0326513347
	    C    -0.7009135684   3.8345957323  -1.0921472314
	    C     3.7848156776   0.3748703997  -0.5217302098
	    C     3.3111742369  -1.0449074353  -2.4687566825
	    C     4.1716146044  -0.1698373726  -1.7676898863
	    H     2.2440464458   0.4610421174   0.9913034022
	    H     1.3885195628  -2.0358320381  -2.4796085260
	    H    -3.0129620087  -3.1764773133   2.7829907760
	    O    -0.7221227203  -3.1512648520   1.4446990285
	    H    -0.9591008198   1.9269380306   1.7601408790
	    H    -0.3102495162   0.6325327254  -2.3436992426
	    H    -1.0239194960   4.3267240311   1.0107379486
	    H    -0.3715811053   3.0261293002  -3.0958842259
	    H    -0.7265500932   4.8839980983  -1.4208394981
	    H     4.4513028761   1.0465734761   0.0355197334
	    H     3.6062922602  -1.4779106410  -3.4344671184
	    H    -3.2615135761   0.7927561424   1.1566089944
	    H    -4.5166806056  -1.0513909027   2.6588352958
	    H     5.1375017901   0.0796677815  -2.1849613108
			--------------------------
			 OPTKING Finished Execution 
			--------------------------

    Structure for next step:
    Molecular point group: c1
    Full point group: C1

    Geometry (in Angstrom), charge = 0, multiplicity = 1:

    C           -0.609793402747    -0.301541560377     0.265283133703
    N            0.419195311324    -1.149701177537    -0.104472746677
    C            1.681241222330    -0.784004070129    -0.653654145151
    C            2.555554257222     0.071126239601     0.061295971045
    H            0.329093145398    -2.120558510460     0.253403875885
    C            2.073299358946    -1.337801296227    -1.896653023996
    C           -1.620975454360    -0.812419032893     1.051894661430
    N           -2.762400854037    -2.305179437223     2.327442888885
    C           -2.888876440238    -0.190075065666     1.460999807293
    C           -1.588986388327    -2.198373641057     1.609819910677
    C           -3.544653050591    -1.108423062198     2.220626725571
    C           -0.616905706197     1.137569824495    -0.195791702751
    C           -0.824222878293     2.193446255157     0.740225148946
    C           -0.454435729852     1.462957790068    -1.568269275403
    C           -0.857195750607     3.541973735226     0.316218000441
    C           -0.489671308416     2.811059337415    -1.990459480667
    C           -0.690639930160     3.855986222707    -1.049955373719
    C            3.795089333421     0.396260876505    -0.479538349862
    C            3.321447890908    -1.023516964044    -2.426564830147
    C            4.181888261768    -0.148446897912    -1.725498031237
    H            2.254320095572     0.482432594575     1.033495268109
    H            1.398793209278    -2.014441570698    -2.437416673775
    H           -3.002688379531    -3.155086850411     2.825182648925
    O           -0.711849082124    -3.129874389073     1.486890896233
    H           -0.948827182616     1.948328513489     1.802332747897
    H           -0.299975876406     0.653923203238    -2.301507389829
    H           -1.013645859045     4.348114523518     1.052929814577
    H           -0.361307465751     3.047519787455    -3.053692376081
    H           -0.716276455073     4.905388592870    -1.378647641643
    H            4.461576534587     1.067963955542     0.077711595553
    H            3.616565915351    -1.456520171408    -3.392275269932
    H           -3.251239947983     0.814146620859     1.198800861010
    H           -4.506406982395    -1.030000431473     2.701027168301
    H            5.147775451265     0.101058257199    -2.142769457389


Scratch directory: /scratch/bdw2292/Psi4-1_16_Index_0-farH_in17/

Scratch directory: /scratch/bdw2292/Psi4-1_16_Index_0-farH_in17/
gradient() will perform analytic gradient computation.

*** tstart() called on node74.bme.utexas.edu
*** at Thu Jun  9 04:31:41 2022

   => Loading Basis Set <=

    Name: 6-311G
    Role: ORBITAL
    Keyword: BASIS
    atoms 1, 3-4, 6-7, 9-20 entry C          line    92 file /home/bdw2292/miniconda3/envs/newamoebamdpoltype/share/psi4/basis/6-311g.gbs 
    atoms 2, 8              entry N          line   109 file /home/bdw2292/miniconda3/envs/newamoebamdpoltype/share/psi4/basis/6-311g.gbs 
    atoms 5, 21-23, 25-34   entry H          line    21 file /home/bdw2292/miniconda3/envs/newamoebamdpoltype/share/psi4/basis/6-311g.gbs 
    atoms 24                entry O          line   126 file /home/bdw2292/miniconda3/envs/newamoebamdpoltype/share/psi4/basis/6-311g.gbs 

   => WB97X-D: Empirical Dispersion <=

    Chai and Head-Gordon Dispersion Correction
    Chai, J.-D.; Head-Gordon, M. (2010), J. Chem. Phys., 132: 6615-6620

        s6 =       1.000000


         ---------------------------------------------------------
                                   SCF
               by Justin Turney, Rob Parrish, Andy Simmonett
                          and Daniel G. A. Smith
                              RKS Reference
                        2 Threads,   7788 MiB Core
         ---------------------------------------------------------

  ==> Geometry <==

    Molecular point group: c1
    Full point group: C1

    Geometry (in Angstrom), charge = 0, multiplicity = 1:

       Center              X                  Y                   Z               Mass       
    ------------   -----------------  -----------------  -----------------  -----------------
         C           -0.609793402747    -0.301541560377     0.265283133703    12.000000000000
         N            0.419195311324    -1.149701177537    -0.104472746677    14.003074004430
         C            1.681241222330    -0.784004070129    -0.653654145151    12.000000000000
         C            2.555554257222     0.071126239601     0.061295971045    12.000000000000
         H            0.329093145398    -2.120558510460     0.253403875885     1.007825032230
         C            2.073299358946    -1.337801296227    -1.896653023996    12.000000000000
         C           -1.620975454360    -0.812419032893     1.051894661430    12.000000000000
         N           -2.762400854037    -2.305179437223     2.327442888885    14.003074004430
         C           -2.888876440238    -0.190075065666     1.460999807293    12.000000000000
         C           -1.588986388327    -2.198373641057     1.609819910677    12.000000000000
         C           -3.544653050591    -1.108423062198     2.220626725571    12.000000000000
         C           -0.616905706197     1.137569824495    -0.195791702751    12.000000000000
         C           -0.824222878293     2.193446255157     0.740225148946    12.000000000000
         C           -0.454435729852     1.462957790068    -1.568269275403    12.000000000000
         C           -0.857195750607     3.541973735226     0.316218000441    12.000000000000
         C           -0.489671308416     2.811059337415    -1.990459480667    12.000000000000
         C           -0.690639930160     3.855986222707    -1.049955373719    12.000000000000
         C            3.795089333421     0.396260876505    -0.479538349862    12.000000000000
         C            3.321447890908    -1.023516964044    -2.426564830147    12.000000000000
         C            4.181888261768    -0.148446897912    -1.725498031237    12.000000000000
         H            2.254320095572     0.482432594575     1.033495268109     1.007825032230
         H            1.398793209278    -2.014441570698    -2.437416673775     1.007825032230
         H           -3.002688379531    -3.155086850411     2.825182648925     1.007825032230
         O           -0.711849082124    -3.129874389073     1.486890896233    15.994914619570
         H           -0.948827182616     1.948328513489     1.802332747897     1.007825032230
         H           -0.299975876406     0.653923203238    -2.301507389829     1.007825032230
         H           -1.013645859045     4.348114523518     1.052929814577     1.007825032230
         H           -0.361307465751     3.047519787455    -3.053692376081     1.007825032230
         H           -0.716276455073     4.905388592870    -1.378647641643     1.007825032230
         H            4.461576534587     1.067963955542     0.077711595553     1.007825032230
         H            3.616565915351    -1.456520171408    -3.392275269932     1.007825032230
         H           -3.251239947983     0.814146620859     1.198800861010     1.007825032230
         H           -4.506406982395    -1.030000431473     2.701027168301     1.007825032230
         H            5.147775451265     0.101058257199    -2.142769457389     1.007825032230

  Running in c1 symmetry.

  Rotational constants: A =      0.01469  B =      0.00941  C =      0.00637 [cm^-1]
  Rotational constants: A =    440.43712  B =    282.03579  C =    190.82287 [MHz]
  Nuclear repulsion = 1409.402558749467744

  Charge       = 0
  Multiplicity = 1
  Electrons    = 138
  Nalpha       = 69
  Nbeta        = 69

  ==> Algorithm <==

  SCF Algorithm Type is DF.
  DIIS enabled.
  MOM disabled.
  Fractional occupation disabled.
  Guess Type is READ.
  Energy threshold   = 1.00e-08
  Density threshold  = 1.00e-08
  Integral threshold = 1.00e-12

  ==> Primary Basis <==

  Basis Set: 6-311G
    Blend: 6-311G
    Number of shells: 182
    Number of basis functions: 302
    Number of Cartesian functions: 302
    Spherical Harmonics?: true
    Max angular momentum: 1

  ==> DFT Potential <==

   => LibXC <=

    Version 5.1.5
    S. Lehtola, C. Steigemann, M. J. Oliveira, and M. A. Marques, SoftwareX 7, 1 (2018) (10.1016/j.softx.2017.11.002)

   => Composite Functional: WB97X-D <= 

    wB97X-D Hyb-GGA Exchange-Correlation Functional

    J.-D. Chai and M. Head-Gordon, Phys. Chem. Chem. Phys. 10, 6615 (2008) (10.1039/B810189B)

    Deriv               =              1
    GGA                 =           TRUE
    Meta                =          FALSE

    Exchange Hybrid     =           TRUE
    MP2 Hybrid          =          FALSE

   => Exchange-Correlation Functionals <=

    1.0000   wB97X-D range-separated functional

   => Exact (HF) Exchange <=

    0.7780            HF,LR [omega = 0.2000]
    0.2220               HF 

   => LibXC Density Thresholds  <==

    XC_HYB_GGA_XC_WB97X_D:  1.00E-14 

   => Molecular Quadrature <=

    Radial Scheme          =       TREUTLER
    Pruning Scheme         =           NONE
    Nuclear Scheme         =       TREUTLER

    BS radius alpha        =              1
    Pruning alpha          =              1
    Radial Points          =             75
    Spherical Points       =            302
    Total Points           =         700545
    Total Blocks           =           5032
    Max Points             =            256
    Max Functions          =            219
    Weights Tolerance      =       1.00E-15

   => Loading Basis Set <=

    Name: (6-311G AUX)
    Role: JKFIT
    Keyword: DF_BASIS_SCF
    atoms 1, 3-4, 6-7, 9-20 entry C          line   125 file /home/bdw2292/miniconda3/envs/newamoebamdpoltype/share/psi4/basis/cc-pvtz-jkfit.gbs 
    atoms 2, 8              entry N          line   177 file /home/bdw2292/miniconda3/envs/newamoebamdpoltype/share/psi4/basis/cc-pvtz-jkfit.gbs 
    atoms 5, 21-23, 25-34   entry H          line    51 file /home/bdw2292/miniconda3/envs/newamoebamdpoltype/share/psi4/basis/cc-pvtz-jkfit.gbs 
    atoms 24                entry O          line   229 file /home/bdw2292/miniconda3/envs/newamoebamdpoltype/share/psi4/basis/cc-pvtz-jkfit.gbs 

   => Loading Basis Set <=

    Name: 6-311G
    Role: ORBITAL
    Keyword: BASIS
    atoms 1, 3-4, 6-7, 9-20 entry C          line    92 file /home/bdw2292/miniconda3/envs/newamoebamdpoltype/share/psi4/basis/6-311g.gbs 
    atoms 2, 8              entry N          line   109 file /home/bdw2292/miniconda3/envs/newamoebamdpoltype/share/psi4/basis/6-311g.gbs 
    atoms 5, 21-23, 25-34   entry H          line    21 file /home/bdw2292/miniconda3/envs/newamoebamdpoltype/share/psi4/basis/6-311g.gbs 
    atoms 24                entry O          line   126 file /home/bdw2292/miniconda3/envs/newamoebamdpoltype/share/psi4/basis/6-311g.gbs 

  Reading orbitals from file /scratch/bdw2292/Psi4-1_16_Index_0-farH_in17/1_16_Index_0-opt-1_2-3-059.default.1285253.180.npy, no projection.

  ==> Integral Setup <==

  DFHelper Memory: AOs need 3.149 GiB; user supplied 3.149 GiB. Using in-core AOs.

  ==> MemDFJK: Density-Fitted J/K Matrices <==

    J tasked:                   Yes
    K tasked:                   Yes
    wK tasked:                  Yes
    Omega:                2.000E-01
    OpenMP threads:               2
    Memory [MiB]:              3224
    Algorithm:                 Core
    Schwarz Cutoff:           1E-12
    Mask sparsity (%):      23.9726
    Fitting Condition:        1E-10

   => Auxiliary Basis Set <=

  Basis Set: (6-311G AUX)
    Blend: CC-PVTZ-JKFIT
    Number of shells: 640
    Number of basis functions: 2000
    Number of Cartesian functions: 2410
    Spherical Harmonics?: true
    Max angular momentum: 4

  Cached 50.0% of DFT collocation blocks in 1.473 [GiB].

  Minimum eigenvalue in the overlap matrix is 2.6936129473E-04.
  Reciprocal condition number of the overlap matrix is 4.0998947824E-05.
    Using symmetric orthogonalization.

  ==> Pre-Iterations <==

  SCF Guess: Orbitals guess was supplied from a previous computation.

   -------------------------------------------------------
    Irrep   Nso     Nmo     Nalpha   Nbeta   Ndocc  Nsocc
   -------------------------------------------------------
     A        302     302      69      69      69       0
   -------------------------------------------------------
    Total     302     302      69      69      69       0
   -------------------------------------------------------

  ==> Iterations <==

                           Total Energy        Delta E     RMS |[F,P]|

   @DF-RKS iter   0:  -840.22008461615917   -8.40220e+02   3.45938e-03 
   @DF-RKS iter   1:  -840.61084602352116   -3.90761e-01   5.78606e-04 DIIS
   @DF-RKS iter   2:  -840.63141269129142   -2.05667e-02   4.44077e-04 DIIS
   @DF-RKS iter   3:  -840.64116939908649   -9.75671e-03   1.62276e-04 DIIS
   @DF-RKS iter   4:  -840.64258184099674   -1.41244e-03   7.39050e-05 DIIS
   @DF-RKS iter   5:  -840.64287219727987   -2.90356e-04   2.25920e-05 DIIS
   @DF-RKS iter   6:  -840.64289225726111   -2.00600e-05   7.83708e-06 DIIS
   @DF-RKS iter   7:  -840.64289538155856   -3.12430e-06   3.24987e-06 DIIS
   @DF-RKS iter   8:  -840.64289590475028   -5.23192e-07   8.18613e-07 DIIS
   @DF-RKS iter   9:  -840.64289595105538   -4.63051e-08   3.53920e-07 DIIS
   @DF-RKS iter  10:  -840.64289595866546   -7.61008e-09   9.77653e-08 DIIS
   @DF-RKS iter  11:  -840.64289595984610   -1.18064e-09   5.01329e-08 DIIS
[...]
	   20 R(10,24)        =      1.265582    -0.000264    -0.000060     1.265522
	   21 R(11,33)        =      1.075054    -0.000501    -0.000106     1.074948
	   22 R(12,13)        =      1.398538     0.000169     0.000009     1.398547
	   23 R(12,14)        =      1.399212     0.002111     0.000165     1.399377
	   24 R(13,15)        =      1.392344     0.001149     0.000058     1.392402
	   25 R(13,25)        =      1.081354     0.000173    -0.000010     1.081344
	   26 R(14,16)        =      1.390249     0.000461    -0.000026     1.390224
	   27 R(14,26)        =      1.080804    -0.000067    -0.000047     1.080758
	   28 R(15,17)        =      1.392828     0.001489     0.000076     1.392905
	   29 R(15,27)        =      1.081455    -0.000068    -0.000048     1.081407
	   30 R(16,17)        =      1.394145     0.000145    -0.000005     1.394140
	   31 R(16,28)        =      1.081168     0.000319    -0.000004     1.081163
	   32 R(17,29)        =      1.081419     0.000202    -0.000023     1.081396
	   33 R(18,20)        =      1.393918     0.001521     0.000109     1.394027
	   34 R(18,30)        =      1.081333    -0.000242    -0.000064     1.081269
	   35 R(19,20)        =      1.393766    -0.000883    -0.000123     1.393643
	   36 R(19,31)        =      1.081375     0.000298     0.000002     1.081377
	   37 R(20,34)        =      1.081188     0.000314     0.000006     1.081195
	   38 B(1,2,3)        =    125.739520     0.000010     0.053925   125.793445
	   39 B(1,2,5)        =    114.593397    -0.000003    -0.029641   114.563756
	   40 B(1,7,9)        =    131.124991    -0.000008    -0.029524   131.095467
	   41 B(1,7,10)       =    122.035496     0.000004     0.032996   122.068492
	   42 B(1,12,13)      =    120.286560    -0.000004    -0.004768   120.281792
	   43 B(1,12,14)      =    120.429656     0.000005     0.011517   120.441174
	   44 B(2,1,7)        =    119.312036    -0.000005    -0.008307   119.303729
	   45 B(2,1,12)       =    118.775940    -0.000012    -0.023721   118.752218
	   46 B(2,3,4)        =    120.424432     0.000002     0.021660   120.446092
	   47 B(2,3,6)        =    119.540166     0.000000    -0.015123   119.525042
	   48 B(3,2,5)        =    118.786316    -0.000009    -0.074723   118.711593
	   49 B(3,4,18)       =    119.947608    -0.000003    -0.001304   119.946304
	   50 B(3,4,21)       =    119.231782     0.000000    -0.002704   119.229079
	   51 B(3,6,19)       =    119.920599     0.000006     0.014429   119.935028
	   52 B(3,6,22)       =    119.160381    -0.000001    -0.001355   119.159026
	   53 B(4,3,6)        =    119.944744    -0.000002    -0.012949   119.931795
	   54 B(4,18,20)      =    120.184860     0.000006     0.007800   120.192660
	   55 B(4,18,30)      =    119.672683    -0.000005    -0.013529   119.659154
	   56 B(6,19,20)      =    120.178111    -0.000004    -0.006396   120.171714
	   57 B(6,19,31)      =    119.744174     0.000001    -0.005478   119.738696
	   58 B(7,1,12)       =    121.911789     0.000016     0.031717   121.943505
	   59 B(7,9,11)       =    107.570814    -0.000003     0.002695   107.573509
	   60 B(7,9,32)       =    126.298472     0.000005     0.012378   126.310850
	   61 B(7,10,8)       =    105.627786    -0.000007    -0.014062   105.613724
	   62 B(7,10,24)      =    128.785867     0.000005     0.023808   128.809675
	   63 B(8,10,24)      =    125.577929     0.000002    -0.009395   125.568534
	   64 B(8,11,9)       =    109.399203     0.000002    -0.002245   109.396958
	   65 B(8,11,33)      =    120.592452     0.000002     0.011017   120.603468
	   66 B(9,7,10)       =    106.819861     0.000004    -0.007540   106.812321
	   67 B(9,11,33)      =    130.007615    -0.000004    -0.009541   129.998074
	   68 B(10,8,11)      =    110.563399     0.000004     0.007919   110.571318
	   69 B(10,8,23)      =    123.040115    -0.000009    -0.034873   123.005242
	   70 B(11,8,23)      =    126.367894     0.000005     0.021824   126.389718
	   71 B(11,9,32)      =    126.121007    -0.000003    -0.011986   126.109021
	   72 B(12,13,15)     =    120.306563    -0.000002     0.004653   120.311216
	   73 B(12,13,25)     =    119.381211     0.000003     0.005231   119.386443
	   74 B(12,14,16)     =    120.304811     0.000002     0.000430   120.305242
	   75 B(12,14,26)     =    119.640284    -0.000001    -0.004341   119.635942
	   76 B(13,12,14)     =    119.278790    -0.000001    -0.005492   119.273298
	   77 B(13,15,17)     =    120.114645     0.000001    -0.003484   120.111161
	   78 B(13,15,27)     =    119.754101    -0.000001     0.001492   119.755593
	   79 B(14,16,17)     =    120.168929    -0.000001     0.002952   120.171881
	   80 B(14,16,28)     =    119.705844    -0.000001    -0.011217   119.694627
	   81 B(15,13,25)     =    120.304045    -0.000001    -0.010914   120.293131
	   82 B(15,17,16)     =    119.823780     0.000000     0.000997   119.824777
	   83 B(15,17,29)     =    120.107669    -0.000001    -0.011534   120.096136
	   84 B(16,14,26)     =    120.054777    -0.000000     0.003953   120.058730
	   85 B(16,17,29)     =    120.068546     0.000001     0.010511   120.079057
	   86 B(17,15,27)     =    120.130809    -0.000001     0.001892   120.132701
	   87 B(17,16,28)     =    120.125152     0.000001     0.008258   120.133411
	   88 B(18,4,21)      =    120.818847     0.000003     0.002950   120.821797
	   89 B(18,20,19)     =    119.795790    -0.000003    -0.006569   119.789221
	   90 B(18,20,34)     =    120.111753     0.000003     0.007972   120.119725
	   91 B(19,6,22)      =    120.917732    -0.000005    -0.012712   120.905020
	   92 B(19,20,34)     =    120.091939    -0.000001    -0.002205   120.089734
	   93 B(20,18,30)     =    120.137736    -0.000000     0.006153   120.143888
	   94 B(20,19,31)     =    120.077637     0.000003     0.011150   120.088787
	   95 *D(1,2,3,4)     =     59.084962     0.000000    -0.000000    59.084962
	   96 D(1,2,3,6)      =   -124.378764    -0.000001    -0.120737  -124.499500
	   97 D(1,7,9,11)     =    179.352030     0.000003     0.248193   179.600223
	   98 D(1,7,9,32)     =      0.433445    -0.000000     0.059963     0.493407
	   99 D(1,7,10,8)     =   -179.924540    -0.000003    -0.293206  -180.217746
	  100 D(1,7,10,24)    =     -0.946796    -0.000000    -0.271885    -1.218681
	  101 D(1,12,13,15)   =   -179.721916    -0.000001    -0.118858  -179.840773
	  102 D(1,12,13,25)   =      1.315294    -0.000000    -0.055395     1.259898
	  103 D(1,12,14,16)   =    179.382053     0.000001     0.132358   179.514411
	  104 D(1,12,14,26)   =     -0.487831     0.000001     0.108699    -0.379131
	  105 D(2,1,7,9)      =   -175.836386     0.000000     0.050884  -175.785502
	  106 D(2,1,7,10)     =      2.326280    -0.000002    -0.130294     2.195986
	  107 *D(2,1,12,13)   =   -130.316879     0.000000     0.000000  -130.316879
	  108 D(2,1,12,14)    =     50.501839    -0.000001    -0.110451    50.391387
	  109 D(2,3,4,18)     =    178.580689     0.000000     0.002838   178.583527
	  110 D(2,3,4,21)     =     -1.898221    -0.000001    -0.124000    -2.022222
	  111 D(2,3,6,19)     =   -177.849940     0.000001     0.125205  -177.724736
	  112 D(2,3,6,22)     =      2.559091     0.000000     0.063033     2.622124
	  113 *D(3,2,1,7)     =   -165.448176    -0.000000    -0.000000  -165.448176
	  114 D(3,2,1,12)     =     14.724975     0.000000     0.090627    14.815602
	  115 D(3,4,18,20)    =     -1.486161    -0.000000    -0.059876    -1.546037
	  116 D(3,4,18,30)    =    179.303148    -0.000001    -0.096159   179.206989
	  117 D(3,6,19,20)    =     -0.038986    -0.000002    -0.202110    -0.241096
	  118 D(3,6,19,31)    =   -179.937186     0.000000     0.021642  -179.915544
	  119 D(4,3,2,5)      =   -109.558537     0.000002     0.321734  -109.236803
	  120 D(4,3,6,19)     =     -1.296819     0.000000     0.006315    -1.290504
	  121 D(4,3,6,22)     =    179.112213    -0.000000    -0.055857   179.056355
	  122 D(4,18,20,19)   =      0.150928    -0.000001    -0.135342     0.015585
	  123 D(4,18,20,34)   =   -179.587469     0.000000     0.020717  -179.566751
	  124 D(5,2,1,7)      =      3.610919    -0.000002    -0.315109     3.295810
	  125 D(5,2,1,12)     =   -176.215931    -0.000002    -0.224482  -176.440412
	  126 D(5,2,3,6)      =     66.977738     0.000001     0.200997    67.178735
	  127 D(6,3,4,18)     =      2.058434     0.000001     0.124134     2.182569
	  128 D(6,3,4,21)     =   -178.420476    -0.000000    -0.002704  -178.423180
	  129 D(6,19,20,18)   =      0.613287     0.000002     0.266421     0.879708
	  130 D(6,19,20,34)   =   -179.648264     0.000001     0.110436  -179.537828
	  131 D(7,1,12,13)    =     49.860984     0.000000     0.093209    49.954193
	  132 D(7,1,12,14)    =   -129.320298    -0.000000    -0.017242  -129.337540
	  133 D(7,9,11,8)     =     -0.204762    -0.000004    -0.219871    -0.424633
	  134 D(7,9,11,33)    =   -179.889120    -0.000002    -0.083090  -179.972210
	  135 D(7,10,8,11)    =      1.287146     0.000002     0.316011     1.603157
	  136 D(7,10,8,23)    =    179.453829     0.000002     0.158959   179.612788
	  137 D(8,10,7,9)     =     -1.370321    -0.000005    -0.436404    -1.806725
	  138 D(8,11,9,32)    =    178.716273    -0.000001    -0.031790   178.684483
	  139 D(9,7,1,12)     =      3.984824     0.000000    -0.042851     3.941973
	  140 D(9,7,10,24)    =    177.607422    -0.000002    -0.415082   177.192340
	  141 D(9,11,8,10)    =     -0.707723     0.000001    -0.064587    -0.772311
	  142 D(9,11,8,23)    =   -178.799102     0.000001     0.100323  -178.698779
	  143 D(10,7,1,12)    =   -177.852510    -0.000003    -0.224029  -178.076539
	  144 D(10,7,9,11)    =      0.979124     0.000006     0.407910     1.387034
	  145 D(10,7,9,32)    =   -177.939461     0.000002     0.219680  -177.719781
	  146 D(10,8,11,33)   =    179.011414    -0.000001    -0.186398   178.825016
	  147 D(11,8,10,24)   =   -177.733125    -0.000000     0.295144  -177.437981
	  148 D(12,13,15,17)  =      0.443120     0.000000     0.005123     0.448243
	  149 D(12,13,15,27)  =   -179.314440     0.000000     0.030976  -179.283464
	  150 D(12,14,16,17)  =      0.235193    -0.000000    -0.032068     0.203126
	  151 D(12,14,16,28)  =   -179.863870    -0.000000    -0.036580  -179.900451
	  152 D(13,12,14,16)  =      0.192570     0.000000     0.023009     0.215579
	  153 D(13,12,14,26)  =   -179.677314    -0.000000    -0.000649  -179.677963
	  154 D(13,15,17,16)  =     -0.011915    -0.000000    -0.013906    -0.025821
	  155 D(13,15,17,29)  =    179.963321     0.000001     0.073977   180.037297
	  156 D(14,12,13,15)  =     -0.531248    -0.000000    -0.009553    -0.540800
	  157 D(14,12,13,25)  =   -179.494039     0.000001     0.053910  -179.440129
	  158 D(14,16,17,15)  =     -0.326646     0.000000     0.027383    -0.299263
	  159 D(14,16,17,29)  =    179.698108    -0.000000    -0.060479   179.637629
	  160 D(15,17,16,28)  =    179.772835     0.000000     0.031935   179.804770
	  161 D(16,17,15,27)  =    179.744725    -0.000000    -0.039858   179.704867
	  162 D(17,15,13,25)  =    179.396281    -0.000001    -0.058748   179.337533
	  163 D(17,16,14,26)  =   -179.895465    -0.000000    -0.008319  -179.903784
	  164 D(18,20,19,31)  =   -179.488854     0.000000     0.041865  -179.446989
	  165 D(19,20,18,30)  =    179.357926    -0.000001    -0.099039   179.258887
	  166 D(20,18,4,21)   =    179.000479     0.000001     0.069045   179.069523
	  167 D(20,19,6,22)   =    179.544662    -0.000001    -0.138783   179.405880
	  168 D(21,4,18,30)   =     -0.210213     0.000000     0.032762    -0.177451
	  169 D(22,6,19,31)   =     -0.353538     0.000001     0.084969    -0.268569
	  170 D(23,8,10,24)   =      0.433557    -0.000000     0.138092     0.571649
	  171 D(23,8,11,33)   =      0.920036    -0.000000    -0.021488     0.898548
	  172 D(25,13,15,27)  =     -0.361279    -0.000000    -0.032895    -0.394174
	  173 D(26,14,16,28)  =      0.005472    -0.000000    -0.012832    -0.007360
	  174 D(27,15,17,29)  =     -0.280039     0.000000     0.048024    -0.232015
	  175 D(28,16,17,29)  =     -0.202410    -0.000000    -0.055927    -0.258337
	  176 D(30,18,20,34)  =     -0.380471     0.000000     0.057021    -0.323450
	  177 D(31,19,20,34)  =      0.249595    -0.000001    -0.114120     0.135474
	  178 D(32,9,11,33)   =     -0.968085     0.000001     0.104991    -0.863094
	  179 R(2,24)         =      2.706403     0.000852     0.001487     2.707890
	  180 R(3,14)         =      3.085569    -0.000358     0.000028     3.085597
	  181 R(4,12)         =      3.240709     0.000897     0.002431     3.243140
	  182 R(4,14)         =      3.539948     0.000078     0.001336     3.541285
	  183 R(6,14)         =      3.629360     0.000520     0.001559     3.630920
	  184 R(9,13)         =      3.226959     0.000844     0.000972     3.227931
	 ---------------------------------------------------------------------------
	Successfully symmetrized geometry.

  ==> Convergence Check <==

  Measures of convergence in internal coordinates in au.
  Criteria marked as inactive (o), active & met (*), and active & unmet ( ).
  ---------------------------------------------------------------------------------------------
   Step     Total Energy     Delta E     MAX Force     RMS Force      MAX Disp      RMS Disp   
  ---------------------------------------------------------------------------------------------
    Convergence Criteria             o    2.50e-03 *    1.70e-03 *    1.00e-02 *    6.70e-03 *
  ---------------------------------------------------------------------------------------------
      5    -840.65460554   -4.14e-05 o    3.30e-04 *    8.24e-05 *    7.62e-03 *    1.86e-03 *  ~
  ---------------------------------------------------------------------------------------------


  **** Optimization is complete! (in 5 steps) ****

  ==> Optimization Summary <==

  Measures of convergence in internal coordinates in au.
  --------------------------------------------------------------------------------------------------------------- ~
   Step         Total Energy             Delta E       MAX Force       RMS Force        MAX Disp        RMS Disp  ~
  --------------------------------------------------------------------------------------------------------------- ~
      1    -840.654353198003   -840.654353198003      0.00103258      0.00029857      0.03352176      0.00640720  ~
      2    -840.654441629316     -0.000088431313      0.00070472      0.00018251      0.06236153      0.00845187  ~
      3    -840.654547919587     -0.000106290271      0.00040879      0.00013256      0.10562888      0.01474456  ~
      4    -840.654564151548     -0.000016231961      0.00083644      0.00022143      0.02460204      0.00413392  ~
      5    -840.654605542299     -0.000041390750      0.00032997      0.00008238      0.00761668      0.00185764  ~
  --------------------------------------------------------------------------------------------------------------- ~

	Writing optimization data to binary file.
	Final energy is   -840.6546055422989
	Final (previous) structure:
	Cartesian Geometry (in Angstrom)
	    C    -0.6175515069  -0.3300722486   0.2629388630
	    N     0.4306678893  -1.1435715243  -0.0416551262
	    C     1.6892008911  -0.7209388561  -0.5597714257
	    C     2.4803794184   0.1804150552   0.1535757925
	    H     0.3325188706  -2.1068513979   0.2896864952
	    C     2.1610851662  -1.2692488678  -1.7521951297
	    C    -1.6529124463  -0.8215803264   1.0290998141
	    N    -2.8211379469  -2.3080472910   2.2677231750
	    C    -2.9148863302  -0.2178972924   1.4347624742
	    C    -1.6402714489  -2.1758054298   1.5689514305
	    C    -3.5851015538  -1.1307064498   2.1741418682
	    C    -0.6114505205   1.0651029111  -0.2465644468
	    C    -0.8605901959   2.1337336746   0.6205381372
	    C    -0.3736350163   1.3239271872  -1.6009085649
	    C    -0.8606797128   3.4413436630   0.1422299787
	    C    -0.3812048175   2.6299450839  -2.0774095124
	    C    -0.6212879368   3.6920197435  -1.2067785635
	    C     3.7204709236   0.5635741314  -0.3473459881
	    C     3.4097584154  -0.8953817461  -2.2424155186
	    C     4.1890467432   0.0260082082  -1.5450387866
	    H     2.1140616265   0.5785906119   1.0893479182
	    H     1.5433453555  -1.9776252605  -2.2873140188
	    H    -3.0837293858  -3.1501050723   2.7415400997
	    O    -0.7615734975  -3.0761034059   1.4309271418
	    H    -1.0364387457   1.9362635837   1.6690656833
	    H    -0.1856367520   0.5020704420  -2.2771824834
	    H    -1.0434034612   4.2617395235   0.8227506045
	    H    -0.1984479474   2.8186877190  -3.1261705320
	    H    -0.6219705581   4.7076300859  -1.5782661653
	    H     4.3249737771   1.2709692007   0.2035172778
	    H     3.7723965523  -1.3215247052  -3.1677631695
	    H    -3.2608481229   0.7673476167   1.1780197096
	    H    -4.5474318441  -1.0637678983   2.6486744748
	    H     5.1558513512   0.3195750867  -1.9298441102
	Saving final (previous) structure.
	Cleaning optimization helper files.
			--------------------------
			 OPTKING Finished Execution 
			--------------------------

    Final optimized geometry and variables:
    Molecular point group: c1
    Full point group: C1

    Geometry (in Angstrom), charge = 0, multiplicity = 1:

    C           -0.617551509376    -0.330072249888     0.262938864072
    N            0.430667890946    -1.143571528773    -0.041655126372
    C            1.689200897701    -0.720938858919    -0.559771427858
    C            2.480379428107     0.180415055884     0.153575793128
    H            0.332518871909    -2.106851406210     0.289686496295
    C            2.161085174647    -1.269248872784    -1.752195136603
    C           -1.652912452785    -0.821580329625     1.029099818114
    N           -2.821137958031    -2.308047300119     2.267723183937
    C           -2.914886341706    -0.217897293293     1.434762479834
    C           -1.640271455341    -2.175805438398     1.568951436654
    C           -3.585101567875    -1.130706454249     2.174141876791
    C           -0.611450522871     1.065102915310    -0.246564447774
    C           -0.860590199244     2.133733683019     0.620538139596
    C           -0.373635017812     1.323927192451    -1.600908571205
    C           -0.860679716194     3.441343676520     0.142229979239
    C           -0.381204818982     2.629945094220    -2.077409520561
    C           -0.621287939222     3.692019758019    -1.206778568206
    C            3.720470938190     0.563574133647    -0.347345989427
    C            3.409758428777    -0.895381749624    -2.242415527396
    C            4.189046759711     0.026008208348    -1.545038792638
    H            2.114061634824     0.578590614187     1.089347922482
    H            1.543345361534    -1.977625268241    -2.287314027785
    H           -3.083729397937    -3.150105084692     2.741540110463
    O           -0.761573500490    -3.076103418000     1.430927147383
    H           -1.036438749766     1.936263591293     1.669065689908
    H           -0.185636752706     0.502070443983    -2.277182492374
    H           -1.043403465286     4.261739540220     0.822750607737
    H           -0.198447948151     2.818687730114    -3.126170544328
    H           -0.621970560504     4.707630104370    -1.578266171458
    H            4.324973794119     1.270969205731     0.203517278627
    H            3.772396567160    -1.321524710425    -3.167763181906
    H           -3.260848135729     0.767347619715     1.178019714219
    H           -4.547431862002    -1.063767902479     2.648674485205
    H            5.155851371504     0.319575087977    -1.929844117737

	Removing binary optimization data file.
	Cleaning optimization helper files.

    Psi4 stopped on: Thursday, 09 June 2022 05:01AM
    Psi4 wall time for execution: 0:32:54.72

*** Psi4 exiting successfully. Buy a developer a beer!
