
    -----------------------------------------------------------------------
          Psi4: An Open-Source Ab Initio Electronic Structure Package
                               Psi4 1.5 release

                         Git: Rev {HEAD} e9f4d6d 


    D. G. A. Smith, L. A. Burns, A. C. Simmonett, R. M. Parrish,
    M. C. Schieber, R. Galvelis, P. Kraus, H. Kruse, R. Di Remigio,
    A. Alenaizan, A. M. James, S. Lehtola, J. P. Misiewicz, M. Scheurer,
    R. A. Shaw, J. B. Schriber, Y. Xie, Z. L. Glick, D. A. Sirianni,
    J. S. O'Brien, J. M. Waldrop, A. Kumar, E. G. Hohenstein,
    B. P. Pritchard, B. R. Brooks, H. F. Schaefer III, A. Yu. Sokolov,
    K. Patkowski, A. E. DePrince III, U. Bozkaya, R. A. King,
    F. A. Evangelista, J. M. Turney, T. D. Crawford, C. D. Sherrill,
    J. Chem. Phys. 152(18) 184108 (2020). https://doi.org/10.1063/5.0006002

                            Additional Code Authors
    E. T. Seidl, C. L. Janssen, E. F. Valeev, M. L. Leininger,
    J. F. Gonthier, R. M. Richard, H. R. McAlexander, M. Saitow, X. Wang,
    P. Verma, M. H. Lechner, and A. Jiang

             Previous Authors, Complete List of Code Contributors,
                       and Citations for Specific Modules
    https://github.com/psi4/psi4/blob/master/codemeta.json
    https://github.com/psi4/psi4/graphs/contributors
    http://psicode.org/psi4manual/master/introduction.html#citing-psifour

    -----------------------------------------------------------------------


    Psi4 started on: Thursday, 09 June 2022 05:47AM

    Process ID: 1291153
    Host:       node74.bme.utexas.edu
    PSIDATADIR: /home/bdw2292/miniconda3/envs/newamoebamdpoltype/share/psi4
    Memory:     500.0 MiB
    Threads:    1
    
  ==> Input File <==

--------------------------------------------------------------------------
molecule { 
0 1
 C   -0.512019   -0.070304    0.440310
 N    0.630224   -0.822161    0.458578
 C    1.872447   -0.558249   -0.168459
 C    2.653784   -1.649672   -0.558169
 H    0.643469   -1.533023    1.195960
 C    2.359322    0.739385   -0.352284
 C   -1.486507   -0.378938    1.377673
 N   -2.403048   -1.393235    3.190072
 C   -2.886742    0.014629    1.504707
 C   -1.232024   -1.324677    2.468111
 C   -3.395947   -0.601847    2.594646
 C   -0.779208    0.826910   -0.716904
 C   -1.671747    1.901080   -0.605937
 C   -0.317035    0.478701   -1.996593
 C   -2.041101    2.643504   -1.723746
 C   -0.690287    1.217187   -3.112768
 C   -1.551266    2.305240   -2.981854
 C    3.899082   -1.444304   -1.144512
 C    3.596441    0.936852   -0.956874
 C    4.371730   -0.150730   -1.356378
 H    2.273559   -2.650847   -0.405637
 H    1.773338    1.584794   -0.022332
 H   -2.510349   -1.979614    3.994599
 O   -0.188794   -1.993929    2.719313
 H   -2.025598    2.199870    0.369370
 H    0.321966   -0.381744   -2.123152
 H   -2.710011    3.485315   -1.608841
 H   -0.317172    0.934034   -4.087259
 H   -1.840498    2.878845   -3.851727
 H    4.496268   -2.295785   -1.440736
 H    3.962089    1.944320   -1.101311
 H   -3.447231    0.638091    0.834362
 H   -4.390336   -0.568060    3.001482
 H    5.335891    0.008288   -1.818635
}
memory 8.166666666666666GB
set_num_threads(2)
psi4_io.set_default_path("/scratch/bdw2292/Psi4-1_16_Index_0-farH_in17")
set freeze_core True
E, wfn = energy('wb97x-d/6-311+G*',return_wfn=True)
oeprop(wfn,"WIBERG_LOWDIN_INDICES")
clean()
--------------------------------------------------------------------------

  Memory set to   7.606 GiB by Python driver.
  Threads set to 2 by Python driver.

Scratch directory: /scratch/bdw2292/Psi4-1_16_Index_0-farH_in17/

Scratch directory: /scratch/bdw2292/Psi4-1_16_Index_0-farH_in17/

*** tstart() called on node74.bme.utexas.edu
*** at Thu Jun  9 05:47:14 2022

   => Loading Basis Set <=

    Name: 6-311+G*
    Role: ORBITAL
    Keyword: BASIS
    atoms 1, 3-4, 6-7, 9-20 entry C          line   130 file /home/bdw2292/miniconda3/envs/newamoebamdpoltype/share/psi4/basis/6-311pgs.gbs 
    atoms 2, 8              entry N          line   151 file /home/bdw2292/miniconda3/envs/newamoebamdpoltype/share/psi4/basis/6-311pgs.gbs 
    atoms 5, 21-23, 25-34   entry H          line    47 file /home/bdw2292/miniconda3/envs/newamoebamdpoltype/share/psi4/basis/6-311pgs.gbs 
    atoms 24                entry O          line   172 file /home/bdw2292/miniconda3/envs/newamoebamdpoltype/share/psi4/basis/6-311pgs.gbs 

   => WB97X-D: Empirical Dispersion <=

    Chai and Head-Gordon Dispersion Correction
    Chai, J.-D.; Head-Gordon, M. (2010), J. Chem. Phys., 132: 6615-6620

        s6 =       1.000000


         ---------------------------------------------------------
                                   SCF
               by Justin Turney, Rob Parrish, Andy Simmonett
                          and Daniel G. A. Smith
                              RKS Reference
                        2 Threads,   7788 MiB Core
         ---------------------------------------------------------

  ==> Geometry <==

    Molecular point group: c1
    Full point group: C1

    Geometry (in Angstrom), charge = 0, multiplicity = 1:

       Center              X                  Y                   Z               Mass       
    ------------   -----------------  -----------------  -----------------  -----------------
         C           -0.512018926018    -0.070303921694     0.440310033129    12.000000000000
         N            0.630224073982    -0.822160921694     0.458578033129    14.003074004430
         C            1.872447073982    -0.558248921694    -0.168458966871    12.000000000000
         C            2.653784073982    -1.649671921694    -0.558168966871    12.000000000000
         H            0.643469073982    -1.533022921694     1.195960033129     1.007825032230
         C            2.359322073982     0.739385078306    -0.352283966871    12.000000000000
         C           -1.486506926018    -0.378937921694     1.377673033129    12.000000000000
         N           -2.403047926018    -1.393234921694     3.190072033129    14.003074004430
         C           -2.886741926018     0.014629078306     1.504707033129    12.000000000000
         C           -1.232023926018    -1.324676921694     2.468111033129    12.000000000000
         C           -3.395946926018    -0.601846921694     2.594646033129    12.000000000000
         C           -0.779207926018     0.826910078306    -0.716903966871    12.000000000000
         C           -1.671746926018     1.901080078306    -0.605936966871    12.000000000000
         C           -0.317034926018     0.478701078306    -1.996592966871    12.000000000000
         C           -2.041100926018     2.643504078306    -1.723745966871    12.000000000000
         C           -0.690286926018     1.217187078306    -3.112767966871    12.000000000000
         C           -1.551265926018     2.305240078306    -2.981853966871    12.000000000000
         C            3.899082073982    -1.444303921694    -1.144511966871    12.000000000000
         C            3.596441073982     0.936852078306    -0.956873966871    12.000000000000
         C            4.371730073982    -0.150729921694    -1.356377966871    12.000000000000
         H            2.273559073982    -2.650846921694    -0.405636966871     1.007825032230
         H            1.773338073982     1.584794078306    -0.022331966871     1.007825032230
         H           -2.510348926018    -1.979613921694     3.994599033129     1.007825032230
         O           -0.188793926018    -1.993928921694     2.719313033129    15.994914619570
         H           -2.025597926018     2.199870078306     0.369370033129     1.007825032230
         H            0.321966073982    -0.381743921694    -2.123151966871     1.007825032230
         H           -2.710010926018     3.485315078306    -1.608840966871     1.007825032230
         H           -0.317171926018     0.934034078306    -4.087258966871     1.007825032230
         H           -1.840497926018     2.878845078306    -3.851726966871     1.007825032230
         H            4.496268073982    -2.295784921694    -1.440735966871     1.007825032230
         H            3.962089073982     1.944320078306    -1.101310966871     1.007825032230
         H           -3.447230926018     0.638091078306     0.834362033129     1.007825032230
         H           -4.390335926018    -0.568059921694     3.001482033129     1.007825032230
         H            5.335891073982     0.008288078306    -1.818634966871     1.007825032230

  Running in c1 symmetry.

  Rotational constants: A =      0.01474  B =      0.00973  C =      0.00628 [cm^-1]
  Rotational constants: A =    441.77311  B =    291.76029  C =    188.36721 [MHz]
  Nuclear repulsion = 1425.128092563654263

  Charge       = 0
  Multiplicity = 1
  Electrons    = 138
  Nalpha       = 69
  Nbeta        = 69

  ==> Algorithm <==

  SCF Algorithm Type is DF.
  DIIS enabled.
  MOM disabled.
  Fractional occupation disabled.
  Guess Type is SAD.
  Energy threshold   = 1.00e-06
  Density threshold  = 1.00e-06
  Integral threshold = 1.00e-12

  ==> Primary Basis <==

  Basis Set: 6-311+G*
    Blend: 6-311+G*
    Number of shells: 242
    Number of basis functions: 482
    Number of Cartesian functions: 502
    Spherical Harmonics?: true
    Max angular momentum: 2

  ==> DFT Potential <==

   => LibXC <=

    Version 5.1.5
    S. Lehtola, C. Steigemann, M. J. Oliveira, and M. A. Marques, SoftwareX 7, 1 (2018) (10.1016/j.softx.2017.11.002)

   => Composite Functional: WB97X-D <= 

    wB97X-D Hyb-GGA Exchange-Correlation Functional

    J.-D. Chai and M. Head-Gordon, Phys. Chem. Chem. Phys. 10, 6615 (2008) (10.1039/B810189B)

    Deriv               =              1
    GGA                 =           TRUE
    Meta                =          FALSE

    Exchange Hybrid     =           TRUE
    MP2 Hybrid          =          FALSE

   => Exchange-Correlation Functionals <=

    1.0000   wB97X-D range-separated functional

   => Exact (HF) Exchange <=

    0.7780            HF,LR [omega = 0.2000]
    0.2220               HF 

   => LibXC Density Thresholds  <==

    XC_HYB_GGA_XC_WB97X_D:  1.00E-14 

   => Molecular Quadrature <=

    Radial Scheme          =       TREUTLER
    Pruning Scheme         =           NONE
    Nuclear Scheme         =       TREUTLER

    BS radius alpha        =              1
    Pruning alpha          =              1
    Radial Points          =             75
    Spherical Points       =            302
    Total Points           =         703400
    Total Blocks           =           5042
    Max Points             =            256
    Max Functions          =            383
    Weights Tolerance      =       1.00E-15

   => Loading Basis Set <=

    Name: (6-311+G* AUX)
    Role: JKFIT
    Keyword: DF_BASIS_SCF
    atoms 1, 3-4, 6-7, 9-20 entry C          line   200 file /home/bdw2292/miniconda3/envs/newamoebamdpoltype/share/psi4/basis/heavy-aug-cc-pvtz-jkfit.gbs 
    atoms 2, 8              entry N          line   262 file /home/bdw2292/miniconda3/envs/newamoebamdpoltype/share/psi4/basis/heavy-aug-cc-pvtz-jkfit.gbs 
    atoms 5, 21-23, 25-34   entry H          line   116 file /home/bdw2292/miniconda3/envs/newamoebamdpoltype/share/psi4/basis/heavy-aug-cc-pvtz-jkfit.gbs 
    atoms 24                entry O          line   324 file /home/bdw2292/miniconda3/envs/newamoebamdpoltype/share/psi4/basis/heavy-aug-cc-pvtz-jkfit.gbs 

  ==> Integral Setup <==

  ==> DiskDFJK: Density-Fitted J/K Matrices <==

    J tasked:                  Yes
    K tasked:                  Yes
    wK tasked:                 Yes
    Omega:               2.000E-01
    OpenMP threads:              2
    Integrals threads:           2
    Memory [MiB]:             1964
    Algorithm:                Disk
    Integral Cache:           NONE
    Schwarz Cutoff:          1E-12
    Fitting Condition:       1E-10

   => Auxiliary Basis Set <=

  Basis Set: (6-311+G* AUX)
    Blend: HEAVY-AUG-CC-PVTZ-JKFIT
    Number of shells: 740
    Number of basis functions: 2500
    Number of Cartesian functions: 3110
    Spherical Harmonics?: true
    Max angular momentum: 4

  Cached 50.0% of DFT collocation blocks in 2.727 [GiB].

  Minimum eigenvalue in the overlap matrix is 2.7052349474E-07.
  Reciprocal condition number of the overlap matrix is 1.5846261817E-08.
    Using symmetric orthogonalization.

  ==> Pre-Iterations <==

  SCF Guess: Superposition of Atomic Densities via on-the-fly atomic UHF (no occupation information).

   -------------------------
    Irrep   Nso     Nmo    
   -------------------------
     A        482     482 
   -------------------------
    Total     482     482
   -------------------------

  ==> Iterations <==

                           Total Energy        Delta E     RMS |[F,P]|

   @DF-RKS iter SAD:  -840.44389418744561   -8.40444e+02   0.00000e+00 
   @DF-RKS iter   1:  -840.06637280839470    3.77521e-01   2.62491e-03 DIIS
   @DF-RKS iter   2:  -840.43435502775935   -3.67982e-01   2.06512e-03 DIIS
   @DF-RKS iter   3:  -840.85461757579026   -4.20263e-01   3.60602e-04 DIIS
   @DF-RKS iter   4:  -840.86399105121234   -9.37348e-03   1.69284e-04 DIIS
   @DF-RKS iter   5:  -840.86652556722140   -2.53452e-03   3.94761e-05 DIIS
   @DF-RKS iter   6:  -840.86667715990836   -1.51593e-04   1.20772e-05 DIIS
   @DF-RKS iter   7:  -840.86669424653064   -1.70866e-05   3.12165e-06 DIIS
   @DF-RKS iter   8:  -840.86669573480106   -1.48827e-06   1.59250e-06 DIIS
   @DF-RKS iter   9:  -840.86669625584341   -5.21042e-07   5.14272e-07 DIIS
  Energy and wave function converged.


  ==> Post-Iterations <==

   Electrons on quadrature grid:
      Ntotal   =  138.0000816989 ; deviation = 8.170e-05 

    Orbital Energies [Eh]
    ---------------------

    Doubly Occupied:                                                      

       1A    -19.208372     2A    -14.466828     3A    -14.466143  
       4A    -10.380909     5A    -10.367827     6A    -10.339336  
       7A    -10.318813     8A    -10.318223     9A    -10.304119  
      10A    -10.303422    11A    -10.303070    12A    -10.301651  
      13A    -10.300544    14A    -10.296003    15A    -10.295703  
      16A    -10.293724    17A    -10.293384    18A    -10.291034  
      19A    -10.288067    20A    -10.280827    21A     -1.126829  
      22A     -1.068421    23A     -1.050793    24A     -0.978582  
      25A     -0.962624    26A     -0.908794    27A     -0.872970  
      28A     -0.862339    29A     -0.856221    30A     -0.853929  
      31A     -0.814370    32A     -0.768791    33A     -0.727154  
      34A     -0.721672    35A     -0.712418    36A     -0.694411  
      37A     -0.681757    38A     -0.664440    39A     -0.636367  
      40A     -0.616204    41A     -0.600660    42A     -0.583845  
      43A     -0.581782    44A     -0.560275    45A     -0.555010  
      46A     -0.538612    47A     -0.534388    48A     -0.527181  
      49A     -0.523249    50A     -0.517055    51A     -0.512488  
      52A     -0.510677    53A     -0.499279    54A     -0.484265  
      55A     -0.478229    56A     -0.475920    57A     -0.450691  
      58A     -0.448095    59A     -0.444634    60A     -0.437552  
      61A     -0.430456    62A     -0.407823    63A     -0.366980  
      64A     -0.347027    65A     -0.343098    66A     -0.338134  
      67A     -0.332052    68A     -0.307807    69A     -0.260398  

    Virtual:                                                              

      70A     -0.010057    71A      0.036939    72A      0.049090  
      73A      0.054873    74A      0.056839    75A      0.062170  
      76A      0.065235    77A      0.073689    78A      0.075554  
      79A      0.078983    80A      0.081881    81A      0.086339  
      82A      0.093496    83A      0.096416    84A      0.099790  
      85A      0.105801    86A      0.108885    87A      0.112571  
      88A      0.114223    89A      0.120714    90A      0.123904  
      91A      0.132867    92A      0.136498    93A      0.137253  
      94A      0.140570    95A      0.149367    96A      0.150682  
      97A      0.156449    98A      0.167551    99A      0.168919  
     100A      0.175451   101A      0.177292   102A      0.179228  
     103A      0.180934   104A      0.186245   105A      0.192649  
     106A      0.194029   107A      0.197999   108A      0.202887  
     109A      0.205607   110A      0.207533   111A      0.209469  
     112A      0.210480   113A      0.214622   114A      0.217872  
     115A      0.220064   116A      0.227066   117A      0.229241  
     118A      0.231435   119A      0.232616   120A      0.237185  
     121A      0.243864   122A      0.245892   123A      0.246554  
     124A      0.247776   125A      0.255195   126A      0.257415  
     127A      0.260041   128A      0.262232   129A      0.265952  
     130A      0.268100   131A      0.269791   132A      0.270551  
     133A      0.272448   134A      0.275966   135A      0.280910  
     136A      0.283811   137A      0.287402   138A      0.289040  
     139A      0.291930   140A      0.296786   141A      0.299400  
     142A      0.300344   143A      0.304863   144A      0.308711  
     145A      0.309959   146A      0.311845   147A      0.315544  
     148A      0.320595   149A      0.321518   150A      0.328544  
     151A      0.330101   152A      0.332613   153A      0.339044  
     154A      0.341266   155A      0.344149   156A      0.348832  
     157A      0.351941   158A      0.354620   159A      0.357809  
     160A      0.361266   161A      0.366632   162A      0.371309  
     163A      0.377548   164A      0.382646   165A      0.385996  
     166A      0.387968   167A      0.394000   168A      0.398184  
     169A      0.402947   170A      0.407643   171A      0.409075  
     172A      0.412701   173A      0.425620   174A      0.425920  
     175A      0.432260   176A      0.437125   177A      0.445054  
     178A      0.448142   179A      0.451827   180A      0.457542  
     181A      0.463020   182A      0.475264   183A      0.478998  
     184A      0.502853   185A      0.510535   186A      0.524415  
     187A      0.531837   188A      0.547395   189A      0.551160  
     190A      0.570396   191A      0.580311   192A      0.594885  
     193A      0.601250   194A      0.607172   195A      0.613505  
     196A      0.615578   197A      0.620022   198A      0.621355  
     199A      0.627654   200A      0.637780   201A      0.641618  
     202A      0.646356   203A      0.648997   204A      0.659564  
     205A      0.667432   206A      0.670088   207A      0.678326  
     208A      0.683156   209A      0.690637   210A      0.699130  
     211A      0.701284   212A      0.712723   213A      0.716111  
     214A      0.727366   215A      0.733386   216A      0.736537  
     217A      0.742010   218A      0.753596   219A      0.755478  
     220A      0.762711   221A      0.769829   222A      0.778041  
     223A      0.781686   224A      0.786831   225A      0.792429  
     226A      0.797124   227A      0.807282   228A      0.809056  
     229A      0.820151   230A      0.822567   231A      0.824008  
     232A      0.829739   233A      0.832014   234A      0.840324  
     235A      0.846918   236A      0.853452   237A      0.856862  
     238A      0.865152   239A      0.870070   240A      0.877009  
     241A      0.879298   242A      0.887301   243A      0.893366  
     244A      0.901805   245A      0.910247   246A      0.918945  
     247A      0.921427   248A      0.926604   249A      0.938936  
     250A      0.940169   251A      0.946466   252A      0.948327  
     253A      0.956630   254A      0.964013   255A      0.980181  
     256A      0.986260   257A      0.992676   258A      0.996194  
     259A      1.007180   260A      1.012180   261A      1.017969  
     262A      1.028144   263A      1.050629   264A      1.054647  
     265A      1.063237   266A      1.066892   267A      1.076684  
     268A      1.082879   269A      1.088561   270A      1.099527  
     271A      1.101072   272A      1.123855   273A      1.134657  
     274A      1.140114   275A      1.157551   276A      1.161620  
     277A      1.176173   278A      1.183178   279A      1.192566  
     280A      1.205797   281A      1.215893   282A      1.233109  
     283A      1.244236   284A      1.259724   285A      1.269328  
     286A      1.278133   287A      1.281122   288A      1.294577  
     289A      1.298434   290A      1.305624   291A      1.321127  
     292A      1.327457   293A      1.339377   294A      1.366694  
     295A      1.372187   296A      1.380930   297A      1.398100  
     298A      1.398953   299A      1.409814   300A      1.431069  
     301A      1.445375   302A      1.467396   303A      1.490685  
     304A      1.525763   305A      1.557873   306A      1.587462  
     307A      1.600171   308A      1.606611   309A      1.610912  
     310A      1.624953   311A      1.630919   312A      1.643306  
     313A      1.649001   314A      1.660732   315A      1.674152  
     316A      1.682645   317A      1.726720   318A      1.743144  
     319A      1.758447   320A      1.796870   321A      1.829792  
     322A      1.837940   323A      1.845760   324A      1.854115  
     325A      1.872226   326A      1.875587   327A      1.883595  
     328A      1.885197   329A      1.893324   330A      1.906578  
     331A      1.914267   332A      1.918363   333A      1.920872  
     334A      1.939842   335A      1.951080   336A      1.960587  
     337A      1.969869   338A      1.984755   339A      2.000735  
     340A      2.011374   341A      2.019134   342A      2.025341  
     343A      2.038102   344A      2.057041   345A      2.062799  
     346A      2.074085   347A      2.080911   348A      2.086619  
     349A      2.092494   350A      2.098451   351A      2.113975  
     352A      2.136978   353A      2.157378   354A      2.222610  
     355A      2.238879   356A      2.279164   357A      2.304960  
     358A      2.314640   359A      2.327190   360A      2.346475  
     361A      2.359930   362A      2.368561   363A      2.369559  
     364A      2.375769   365A      2.397914   366A      2.408912  
     367A      2.418534   368A      2.423517   369A      2.435719  
     370A      2.459404   371A      2.476977   372A      2.485632  
     373A      2.506193   374A      2.520693   375A      2.529701  
     376A      2.553482   377A      2.564156   378A      2.571116  
     379A      2.597852   380A      2.654335   381A      2.712888  
     382A      2.755441   383A      2.763614   384A      2.781140  
     385A      2.798837   386A      2.802462   387A      2.808018  
     388A      2.819719   389A      2.857156   390A      2.861868  
     391A      2.878067   392A      2.888888   393A      2.905914  
     394A      2.910190   395A      2.926140   396A      2.936485  
     397A      2.948585   398A      2.975491   399A      2.982999  
     400A      3.000170   401A      3.022472   402A      3.030489  
     403A      3.044347   404A      3.050605   405A      3.064891  
     406A      3.079668   407A      3.114824   408A      3.123675  
     409A      3.138839   410A      3.160415   411A      3.192439  
     412A      3.205283   413A      3.226024   414A      3.272841  
     415A      3.277131   416A      3.315660   417A      3.337597  
     418A      3.401818   419A      3.405865   420A      3.410227  
     421A      3.416356   422A      3.424192   423A      3.425556  
     424A      3.431569   425A      3.439823   426A      3.448256  
     427A      3.455804   428A      3.475848   429A      3.490596  
     430A      3.515540   431A      3.555728   432A      3.569693  
     433A      3.620485   434A      3.631642   435A      3.645126  
     436A      3.674388   437A      3.694009   438A      3.746486  
     439A      3.767673   440A      3.777480   441A      3.782970  
     442A      3.884542   443A      3.908703   444A      3.983413  
     445A      4.011195   446A      4.049140   447A      4.103346  
     448A      4.139246   449A      4.147266   450A      4.177464  
     451A      4.191129   452A      4.350925   453A      4.565622  
     454A      4.655592   455A      4.686367   456A      4.883416  
     457A      4.891458   458A      5.128641   459A      5.199337  
     460A      5.251155   461A      5.401185   462A      5.914562  
     463A     23.485470   464A     23.531330   465A     23.713920  
     466A     23.920708   467A     23.982549   468A     23.986636  
     469A     24.009175   470A     24.028821   471A     24.031940  
     472A     24.137261   473A     24.162665   474A     24.177533  
     475A     24.183312   476A     24.217023   477A     24.272031  
     478A     24.276044   479A     24.280096   480A     35.651754  
     481A     35.748057   482A     50.191827  

    Final Occupation by Irrep:
              A 
    DOCC [    69 ]

  @DF-RKS Final Energy:  -840.86669625584341

   => Energetics <=

    Nuclear Repulsion Energy =           1425.1280925636542634
    One-Electron Energy =               -3969.0050794799926734
    Two-Electron Energy =                1785.7204144380846174
    DFT Exchange-Correlation Energy =     -82.6859404729163714
    Empirical Dispersion Energy =          -0.0241833046733246
    VV10 Nonlocal Energy =                  0.0000000000000000
    Total Energy =                       -840.8666962558435216

Computation Completed


Properties will be evaluated at   0.000000,   0.000000,   0.000000 [a0]

Properties computed using the SCF density matrix

  Nuclear Dipole Moment: [e a0]
     X:     1.4717      Y:     3.9947      Z:    -6.6197

  Electronic Dipole Moment: [e a0]
     X:    -2.0541      Y:    -3.2589      Z:     5.7721

  Dipole Moment: [e a0]
     X:    -0.5823      Y:     0.7358      Z:    -0.8476     Total:     1.2645

  Dipole Moment: [D]
     X:    -1.4801      Y:     1.8701      Z:    -2.1543     Total:     3.2139


*** tstop() called on node74.bme.utexas.edu at Thu Jun  9 05:53:58 2022
Module time:
	user time   =     753.49 seconds =      12.56 minutes
	system time =      29.21 seconds =       0.49 minutes
	total time  =        404 seconds =       6.73 minutes
Total time:
	user time   =     753.49 seconds =      12.56 minutes
	system time =      29.21 seconds =       0.49 minutes
	total time  =        404 seconds =       6.73 minutes


Properties will be evaluated at   0.000000,   0.000000,   0.000000 [a0]
OEProp: No title given, name of density matrix used for the following properties is 'SCF density'


  Wiberg Bond Indices using Orthogonal Lowdin Orbitals:

  Irrep: 1 Size: 34 x 34

                 1                   2                   3                   4                   5

    1     0.00000000000000     1.38061242000380     0.10154603479838     0.02529201283414     0.04103287944552
    2     1.38061242000380     0.00000000000000     1.17634283630313     0.13646961379420     0.71373507035405
    3     0.10154603479838     1.17634283630313     0.00000000000000     1.40686709292851     0.03741142854511
    4     0.02529201283414     0.13646961379420     1.40686709292851     0.00000000000000     0.01153380721527
    5     0.04103287944552     0.71373507035405     0.03741142854511     0.01153380721527     0.00000000000000
    6     0.03962291860283     0.12141709505337     1.39134635008105     0.12716849555067     0.00838814647961
    7     1.41896694400338     0.17450941857001     0.02316322362619     0.00736920124584     0.01433739937462
    8     0.01774154174020     0.00571704653652     0.00075139899554     0.00026431498855     0.00141990590108
    9     0.10605905985351     0.02035239135580     0.00275913134517     0.00083355693021     0.00113241449601
   10     0.12949253845266     0.06522709609453     0.00672531411444     0.00295468893720     0.01442871606587
   11     0.06659370208695     0.02472203507961     0.00279232296934     0.00216472980293     0.00041716534630
   12     1.02478516366567     0.09937991635389     0.02970298965774     0.00573485724782     0.00743003166952
   13     0.11477297077961     0.01944833187827     0.00466500093916     0.00118293285405     0.00098839204482
   14     0.11310252552619     0.04305434195390     0.03745590790968     0.01393533099284     0.00107533084337
   15     0.01655035224886     0.00266701679719     0.00149065262614     0.00051938000354     0.00027094715347
   16     0.01722474023413     0.00387305851738     0.00615485169776     0.00129575307181     0.00006848434339
   17     0.01010617752159     0.00419347393716     0.00129870935378     0.00073518626184     0.00006731535089
   18     0.00341322549513     0.01798758182048     0.13632923387698     1.52536233800849     0.00087102034855
   19     0.00434019128219     0.01718129474188     0.13548801579565     0.14281141447188     0.00074315475621
   20     0.00553457225077     0.01372902932816     0.13477916460953     0.13864881689189     0.00174449385461
   21     0.00207463733037     0.01964063471709     0.05731417351904     0.81586632185361     0.00076746000456
   22     0.00876138375370     0.01456682636268     0.05402117327127     0.00873167614715     0.00003488231421
   23     0.00146691403567     0.00030801319209     0.00006706306550     0.00002075978276     0.00009956210592
   24     0.07882430002187     0.12163441818490     0.01270018611425     0.00493482140929     0.07006022775084
   25     0.01495966560725     0.00048173623648     0.00013959387866     0.00002428898903     0.00003775613573
   26     0.01425739166835     0.01048110954951     0.01502166372816     0.00543486209898     0.00008765443187
   27     0.00112496086247     0.00029002998533     0.00006739925084     0.00002833908542     0.00002045421422
   28     0.00116195561147     0.00010160708897     0.00018646266701     0.00004996474391     0.00000624759112
   29     0.00030089506176     0.00008527918836     0.00005088301336     0.00002174840305     0.00000612735608
   30     0.00037242474121     0.00086411704363     0.01077716514780     0.06043924441467     0.00003252692023
   31     0.00023966440259     0.00087331931348     0.01081410116559     0.00240877577960     0.00018474897553
   32     0.00937942985778     0.00019669204047     0.00008454398686     0.00004376524943     0.00004700375428
   33     0.00162249040322     0.00039524308559     0.00011966213550     0.00004464473865     0.00017885796269
   34     0.00005945194507     0.00024090797143     0.00297922146376     0.01129660437239     0.00001729335475

                 6                   7                   8                   9                  10

    1     0.03962291860283     1.41896694400338     0.01774154174020     0.10605905985351     0.12949253845266
    2     0.12141709505337     0.17450941857001     0.00571704653652     0.02035239135580     0.06522709609453
    3     1.39134635008105     0.02316322362619     0.00075139899554     0.00275913134517     0.00672531411444
    4     0.12716849555067     0.00736920124584     0.00026431498855     0.00083355693021     0.00295468893720
    5     0.00838814647961     0.01433739937462     0.00141990590108     0.00113241449601     0.01442871606587
    6     0.00000000000000     0.00923104694728     0.00027820031810     0.00099099598919     0.00302688850742
    7     0.00923104694728     0.00000000000000     0.13396131810994     1.14982952390167     1.09210329790406
    8     0.00027820031810     0.13396131810994     0.00000000000000     0.19755673467004     1.34498626402196
    9     0.00099099598919     1.14982952390167     0.19755673467004     0.00000000000000     0.13432593638435
   10     0.00302688850742     1.09210329790406     1.34498626402196     0.13432593638435     0.00000000000000
   11     0.00239574590672     0.16334118477731     1.26700221744536     1.79937532047617     0.13972574422555
   12     0.03313977325224     0.10934884976807     0.00260667650488     0.03069197626682     0.01497535463522
   13     0.00919451933733     0.04961783790441     0.00220587360550     0.04856729251087     0.00601616617135
   14     0.03831451186496     0.03057608191129     0.00063988053935     0.00454589142558     0.00485829361227
   15     0.00211436482244     0.00471192608508     0.00031083878461     0.00837304879380     0.00055423730286
   16     0.00803341773177     0.00342018341298     0.00013773342139     0.00185434634892     0.00063208245993
   17     0.00199872733258     0.00978106037338     0.00020225156549     0.00164885698098     0.00211479619990
   18     0.14198433495093     0.00105780604526     0.00002859505987     0.00014331523766     0.00032240406198
   19     1.52069957323593     0.00086500377318     0.00004216545922     0.00014048498153     0.00036168558303
   20     0.13844388734792     0.00357993743383     0.00008483525541     0.00028632447559     0.00140940048887
   21     0.00991152150967     0.00037457883014     0.00000736906306     0.00004522707919     0.00020065763211
   22     0.79760369630035     0.00082778674518     0.00004037885504     0.00012196480742     0.00010569539632
   23     0.00002413256231     0.01127582801550     0.80862853163500     0.01071584846578     0.04355414921152
   24     0.00352265577280     0.13867712926306     0.21219305702540     0.02195188671803     2.01835401087112
   25     0.00014139919958     0.00924774144876     0.00059947776480     0.01649715991118     0.00051984028237
   26     0.00828368397393     0.00123104135523     0.00005973480302     0.00011381893646     0.00012777488107
   27     0.00004349440656     0.00016235987384     0.00001535957699     0.00016775957796     0.00002398163660
   28     0.00021561761407     0.00038711133394     0.00001696078889     0.00008062237444     0.00008385813562
   29     0.00003291797959     0.00007047498999     0.00000934919518     0.00005659907331     0.00001658991009
   30     0.00250439867364     0.00006882222074     0.00000174327309     0.00001957394834     0.00001928233545
   31     0.06042715393966     0.00011167876056     0.00000415201916     0.00001578655402     0.00006206399224
   32     0.00007736692266     0.04656354183301     0.01108654033502     0.81354117247682     0.00951881531875
   33     0.00002604968980     0.01378181588563     0.05493361269519     0.05855820485423     0.01224928840326
   34     0.01123116594634     0.00002147725603     0.00000129511074     0.00000356318276     0.00000858933337

                11                  12                  13                  14                  15

    1     0.06659370208695     1.02478516366567     0.11477297077961     0.11310252552619     0.01655035224886
    2     0.02472203507961     0.09937991635389     0.01944833187827     0.04305434195390     0.00266701679719
    3     0.00279232296934     0.02970298965774     0.00466500093916     0.03745590790968     0.00149065262614
    4     0.00216472980293     0.00573485724782     0.00118293285405     0.01393533099284     0.00051938000354
    5     0.00041716534630     0.00743003166952     0.00098839204482     0.00107533084337     0.00027094715347
    6     0.00239574590672     0.03313977325224     0.00919451933733     0.03831451186496     0.00211436482244
    7     0.16334118477731     0.10934884976807     0.04961783790441     0.03057608191129     0.00471192608508
    8     1.26700221744536     0.00260667650488     0.00220587360550     0.00063988053935     0.00031083878461
    9     1.79937532047617     0.03069197626682     0.04856729251087     0.00454589142558     0.00837304879380
   10     0.13972574422555     0.01497535463522     0.00601616617135     0.00485829361227     0.00055423730286
   11     0.00000000000000     0.00560851802564     0.00844213796120     0.00356596670701     0.00094276151377
   12     0.00560851802564     0.00000000000000     1.40378749752710     1.38372360114390     0.13283110368781
   13     0.00844213796120     1.40378749752710     0.00000000000000     0.12718302439066     1.51642391658831
   14     0.00356596670701     1.38372360114390     0.12718302439066     0.00000000000000     0.14220168435709
   15     0.00094276151377     0.13283110368781     1.51642391658831     0.14220168435709     0.00000000000000
   16     0.00047653738952     0.13184679337239     0.14106031497255     1.52369961937176     0.13773346596507
   17     0.00229609866185     0.13498446775093     0.13876722919142     0.13916410603596     1.51901482949182
   18     0.00021706684899     0.00163850277284     0.00047729205604     0.00351793845554     0.00032399368241
   19     0.00021722736501     0.00558787255656     0.00096807673682     0.00877156112664     0.00078720741420
   20     0.00157780257476     0.00140940990690     0.00073852082443     0.00266706902621     0.00031660943314
   21     0.00006510587995     0.00029203452626     0.00002610916401     0.00052770228471     0.00000761347258
   22     0.00002486864744     0.01151743330313     0.00310266978763     0.00752165143395     0.00041185459371
   23     0.04149195799572     0.00043356889380     0.00015266482894     0.00008398009580     0.00003490545590
   24     0.02451786306112     0.00452145625081     0.00378267212380     0.00411290661463     0.00034641684110
   25     0.00155554141648     0.05296957926845     0.80503522091591     0.00947401738596     0.05462530474886
   26     0.00003017258951     0.05141150973148     0.00888841846899     0.79102962619423     0.00198272891467
   27     0.00003205806372     0.01064351326340     0.06020497406770     0.00260540437549     0.83295073832984
   28     0.00006388910119     0.01068887011015     0.00252410017108     0.06049523434809     0.01126014873712
   29     0.00001325707916     0.00273864803039     0.01115613280862     0.01111658498130     0.05910753785933
   30     0.00000480405734     0.00007197005338     0.00002281764744     0.00005739366357     0.00000507900786
   31     0.00003576042256     0.00014309182612     0.00003929375715     0.00022917284418     0.00001276724375
   32     0.05970240304870     0.00692916769205     0.01790198035814     0.00061955247188     0.00296946893939
   33     0.83483102102835     0.00027021327404     0.00026392540770     0.00005663065188     0.00002571306490
   34     0.00000294429824     0.00003791340851     0.00002277740837     0.00003406277623     0.00000236268584

                16                  17                  18                  19                  20

    1     0.01722474023413     0.01010617752159     0.00341322549513     0.00434019128219     0.00553457225077
    2     0.00387305851738     0.00419347393716     0.01798758182048     0.01718129474188     0.01372902932816
    3     0.00615485169776     0.00129870935378     0.13632923387698     0.13548801579565     0.13477916460953
    4     0.00129575307181     0.00073518626184     1.52536233800849     0.14281141447188     0.13864881689189
    5     0.00006848434339     0.00006731535089     0.00087102034855     0.00074315475621     0.00174449385461
    6     0.00803341773177     0.00199872733258     0.14198433495093     1.52069957323593     0.13844388734792
    7     0.00342018341298     0.00978106037338     0.00105780604526     0.00086500377318     0.00357993743383
    8     0.00013773342139     0.00020225156549     0.00002859505987     0.00004216545922     0.00008483525541
    9     0.00185434634892     0.00164885698098     0.00014331523766     0.00014048498153     0.00028632447559
   10     0.00063208245993     0.00211479619990     0.00032240406198     0.00036168558303     0.00140940048887
   11     0.00047653738952     0.00229609866185     0.00021706684899     0.00021722736501     0.00157780257476
   12     0.13184679337239     0.13498446775093     0.00163850277284     0.00558787255656     0.00140940990690
   13     0.14106031497255     0.13876722919142     0.00047729205604     0.00096807673682     0.00073852082443
   14     1.52369961937176     0.13916410603596     0.00351793845554     0.00877156112664     0.00266706902621
   15     0.13773346596507     1.51901482949182     0.00032399368241     0.00078720741420     0.00031660943314
   16     0.00000000000000     1.50879820990654     0.00074750477553     0.00280618512385     0.00047481702956
   17     1.50879820990654     0.00000000000000     0.00025264516129     0.00034886017039     0.00031625369228
   18     0.00074750477553     0.00025264516129     0.00000000000000     0.13813332416215     1.51741688595002
   19     0.00280618512385     0.00034886017039     0.13813332416215     0.00000000000000     1.51402647978618
   20     0.00047481702956     0.00031625369228     1.51741688595002     1.51402647978618     0.00000000000000
   21     0.00002277584043     0.00001020091001     0.05649165983795     0.00248609664020     0.01084083411840
   22     0.00124627596697     0.00053635354749     0.00214185916257     0.05378638371510     0.01009118281189
   23     0.00003299311897     0.00002669149589     0.00000319807558     0.00000316488529     0.00000345860961
   24     0.00039344224937     0.00254827124516     0.00030743170251     0.00041464290625     0.00172490002421
   25     0.00212610395627     0.01013549908968     0.00000681398977     0.00001980007910     0.00000516816085
   26     0.05355501585242     0.00977889359815     0.00093893332937     0.00191118996147     0.00079462721529
   27     0.01130349193584     0.05883197221814     0.00000926361843     0.00000762214012     0.00001316134015
   28     0.83190871471604     0.05867667357674     0.00001407408114     0.00005145686961     0.00001790408086
   29     0.05894563846614     0.83544681460442     0.00000392722262     0.00000659976178     0.00000383444270
   30     0.00000781030148     0.00000668222930     0.83394980915265     0.01135623566329     0.05867869910227
   31     0.00003979141532     0.00001382924795     0.01136277556935     0.83297818323236     0.05870076042282
   32     0.00059384157862     0.00028661982221     0.00001215568449     0.00002568295930     0.00001212584620
   33     0.00001382536095     0.00000949871853     0.00000758376738     0.00000551154186     0.00000309929854
   34     0.00000872612613     0.00000623719221     0.05915089455063     0.05911269314955     0.83553009035245

                21                  22                  23                  24                  25

    1     0.00207463733037     0.00876138375370     0.00146691403567     0.07882430002187     0.01495966560725
    2     0.01964063471709     0.01456682636268     0.00030801319209     0.12163441818490     0.00048173623648
    3     0.05731417351904     0.05402117327127     0.00006706306550     0.01270018611425     0.00013959387866
    4     0.81586632185361     0.00873167614715     0.00002075978276     0.00493482140929     0.00002428898903
    5     0.00076746000456     0.00003488231421     0.00009956210592     0.07006022775084     0.00003775613573
    6     0.00991152150967     0.79760369630035     0.00002413256231     0.00352265577280     0.00014139919958
    7     0.00037457883014     0.00082778674518     0.01127582801550     0.13867712926306     0.00924774144876
    8     0.00000736906306     0.00004037885504     0.80862853163500     0.21219305702540     0.00059947776480
    9     0.00004522707919     0.00012196480742     0.01071584846578     0.02195188671803     0.01649715991118
   10     0.00020065763211     0.00010569539632     0.04355414921152     2.01835401087112     0.00051984028237
   11     0.00006510587995     0.00002486864744     0.04149195799572     0.02451786306112     0.00155554141648
   12     0.00029203452626     0.01151743330313     0.00043356889380     0.00452145625081     0.05296957926845
   13     0.00002610916401     0.00310266978763     0.00015266482894     0.00378267212380     0.80503522091591
   14     0.00052770228471     0.00752165143395     0.00008398009580     0.00411290661463     0.00947401738596
   15     0.00000761347258     0.00041185459371     0.00003490545590     0.00034641684110     0.05462530474886
   16     0.00002277584043     0.00124627596697     0.00003299311897     0.00039344224937     0.00212610395627
   17     0.00001020091001     0.00053635354749     0.00002669149589     0.00254827124516     0.01013549908968
   18     0.05649165983795     0.00214185916257     0.00000319807558     0.00030743170251     0.00000681398977
   19     0.00248609664020     0.05378638371510     0.00000316488529     0.00041464290625     0.00001980007910
   20     0.01084083411840     0.01009118281189     0.00000345860961     0.00172490002421     0.00000516816085
   21     0.00000000000000     0.00040139052966     0.00000080973189     0.00028001879763     0.00000463579109
   22     0.00040139052966     0.00000000000000     0.00000188243400     0.00010683038394     0.00011817419182
   23     0.00000080973189     0.00000188243400     0.00000000000000     0.01029720793351     0.00001779289243
   24     0.00028001879763     0.00010683038394     0.01029720793351     0.00000000000000     0.00011308444119
   25     0.00000463579109     0.00011817419182     0.00001779289243     0.00011308444119     0.00000000000000
   26     0.00029774426239     0.00079267128810     0.00000274738345     0.00020909603505     0.00036471950009
   27     0.00000050546501     0.00000114053206     0.00000138133862     0.00001616333172     0.00538166549250
   28     0.00000359234057     0.00000354871927     0.00000091818306     0.00004888901807     0.00023075639385
   29     0.00000274037180     0.00000338475414     0.00000028073750     0.00000467832913     0.00024348349671
   30     0.00522622422787     0.00021593690775     0.00000024637860     0.00000783399386     0.00000011247767
   31     0.00024015552771     0.00530700017806     0.00000049437253     0.00005518952735     0.00000302406887
   32     0.00000452083655     0.00004184347640     0.00045746514274     0.00198827243407     0.00301406559674
   33     0.00000130050818     0.00000596247061     0.00274571484191     0.00155707639537     0.00001884698459
   34     0.00022444404042     0.00022093641904     0.00000017710191     0.00001016903455     0.00000097956124

                26                  27                  28                  29                  30

    1     0.01425739166835     0.00112496086247     0.00116195561147     0.00030089506176     0.00037242474121
    2     0.01048110954951     0.00029002998533     0.00010160708897     0.00008527918836     0.00086411704363
    3     0.01502166372816     0.00006739925084     0.00018646266701     0.00005088301336     0.01077716514780
    4     0.00543486209898     0.00002833908542     0.00004996474391     0.00002174840305     0.06043924441467
    5     0.00008765443187     0.00002045421422     0.00000624759112     0.00000612735608     0.00003252692023
    6     0.00828368397393     0.00004349440656     0.00021561761407     0.00003291797959     0.00250439867364
    7     0.00123104135523     0.00016235987384     0.00038711133394     0.00007047498999     0.00006882222074
    8     0.00005973480302     0.00001535957699     0.00001696078889     0.00000934919518     0.00000174327309
    9     0.00011381893646     0.00016775957796     0.00008062237444     0.00005659907331     0.00001957394834
   10     0.00012777488107     0.00002398163660     0.00008385813562     0.00001658991009     0.00001928233545
   11     0.00003017258951     0.00003205806372     0.00006388910119     0.00001325707916     0.00000480405734
   12     0.05141150973148     0.01064351326340     0.01068887011015     0.00273864803039     0.00007197005338
   13     0.00888841846899     0.06020497406770     0.00252410017108     0.01115613280862     0.00002281764744
   14     0.79102962619423     0.00260540437549     0.06049523434809     0.01111658498130     0.00005739366357
   15     0.00198272891467     0.83295073832984     0.01126014873712     0.05910753785933     0.00000507900786
   16     0.05355501585242     0.01130349193584     0.83190871471604     0.05894563846614     0.00000781030148
   17     0.00977889359815     0.05883197221814     0.05867667357674     0.83544681460442     0.00000668222930
   18     0.00093893332937     0.00000926361843     0.00001407408114     0.00000392722262     0.83394980915265
   19     0.00191118996147     0.00000762214012     0.00005145686961     0.00000659976178     0.01135623566329
   20     0.00079462721529     0.00001316134015     0.00001790408086     0.00000383444270     0.05867869910227
   21     0.00029774426239     0.00000050546501     0.00000359234057     0.00000274037180     0.00522622422787
   22     0.00079267128810     0.00000114053206     0.00000354871927     0.00000338475414     0.00021593690775
   23     0.00000274738345     0.00000138133862     0.00000091818306     0.00000028073750     0.00000024637860
   24     0.00020909603505     0.00001616333172     0.00004888901807     0.00000467832913     0.00000783399386
   25     0.00036471950009     0.00538166549250     0.00023075639385     0.00024348349671     0.00000011247767
   26     0.00000000000000     0.00021943897186     0.00542669833091     0.00023610082867     0.00000269415447
   27     0.00021943897186     0.00000000000000     0.00026229187778     0.00516449034897     0.00000001533167
   28     0.00542669833091     0.00026229187778     0.00000000000000     0.00514589268924     0.00000119803473
   29     0.00023610082867     0.00516449034897     0.00514589268924     0.00000000000000     0.00000001891544
   30     0.00000269415447     0.00000001533167     0.00000119803473     0.00000001891544     0.00000000000000
   31     0.00000736619919     0.00000078404396     0.00000239103295     0.00000168560778     0.00026994625008
   32     0.00000726067358     0.00007702373350     0.00000843802867     0.00001927729834     0.00000047043472
   33     0.00000600920488     0.00000478912320     0.00000107683043     0.00000076032246     0.00000182545401
   34     0.00000234522216     0.00000000990583     0.00000115043224     0.00000003456934     0.00518212760684

                31                  32                  33                  34

    1     0.00023966440259     0.00937942985778     0.00162249040322     0.00005945194507
    2     0.00087331931348     0.00019669204047     0.00039524308559     0.00024090797143
    3     0.01081410116559     0.00008454398686     0.00011966213550     0.00297922146376
    4     0.00240877577960     0.00004376524943     0.00004464473865     0.01129660437239
    5     0.00018474897553     0.00004700375428     0.00017885796269     0.00001729335475
    6     0.06042715393966     0.00007736692266     0.00002604968980     0.01123116594634
    7     0.00011167876056     0.04656354183301     0.01378181588563     0.00002147725603
    8     0.00000415201916     0.01108654033502     0.05493361269519     0.00000129511074
    9     0.00001578655402     0.81354117247682     0.05855820485423     0.00000356318276
   10     0.00006206399224     0.00951881531875     0.01224928840326     0.00000858933337
   11     0.00003576042256     0.05970240304870     0.83483102102835     0.00000294429824
   12     0.00014309182612     0.00692916769205     0.00027021327404     0.00003791340851
   13     0.00003929375715     0.01790198035814     0.00026392540770     0.00002277740837
   14     0.00022917284418     0.00061955247188     0.00005663065188     0.00003406277623
   15     0.00001276724375     0.00296946893939     0.00002571306490     0.00000236268584
   16     0.00003979141532     0.00059384157862     0.00001382536095     0.00000872612613
   17     0.00001382924795     0.00028661982221     0.00000949871853     0.00000623719221
   18     0.01136277556935     0.00001215568449     0.00000758376738     0.05915089455063
   19     0.83297818323236     0.00002568295930     0.00000551154186     0.05911269314955
   20     0.05870076042282     0.00001212584620     0.00000309929854     0.83553009035245
   21     0.00024015552771     0.00000452083655     0.00000130050818     0.00022444404042
   22     0.00530700017806     0.00004184347640     0.00000596247061     0.00022093641904
   23     0.00000049437253     0.00045746514274     0.00274571484191     0.00000017710191
   24     0.00005518952735     0.00198827243407     0.00155707639537     0.00001016903455
   25     0.00000302406887     0.00301406559674     0.00001884698459     0.00000097956124
   26     0.00000736619919     0.00000726067358     0.00000600920488     0.00000234522216
   27     0.00000078404396     0.00007702373350     0.00000478912320     0.00000000990583
   28     0.00000239103295     0.00000843802867     0.00000107683043     0.00000115043224
   29     0.00000168560778     0.00001927729834     0.00000076032246     0.00000003456934
   30     0.00026994625008     0.00000047043472     0.00000182545401     0.00518212760684
   31     0.00000000000000     0.00000084097285     0.00000046410475     0.00518482432967
   32     0.00000084097285     0.00000000000000     0.00268036454554     0.00000043411823
   33     0.00000046410475     0.00268036454554     0.00000000000000     0.00000020069631
   34     0.00518482432967     0.00000043411823     0.00000020069631     0.00000000000000



  Atomic Valences: 

 #  #
 Irrep: 1
      1:    4.771395536128288
      2:    4.210779002433352
      3:    4.801412952580896
      4:    4.460489341099622
      5:    0.928676906460327
      6:    4.491834247803290
      7:    4.622572632979416
      8:    4.063535355063603
      9:    4.431355790383829
     10:    5.049085502563356
     11:    4.454245931853474
     12:    4.711882325397918
     13:    4.507631085189376
     14:    4.510016587316112
     15:    4.451880976646478
     16:    4.450536546031193
     17:    4.452403492435972
     18:    4.454625388514589
     19:    4.456485042027795
     20:    4.453604155986280
     21:    0.983660796644107
     22:    0.982416699208064
     23:    0.931954503999701
     24:    2.740217205805971
     25:    0.988113049353935
     26:    0.982994743336965
     27:    0.989676037319748
     28:    0.989128315653248
     29:    0.990012667696761
     30:    0.990169249765109
     31:    0.989771037099726
     32:    0.987892147467999
     33:    0.984421283450129
     34:    0.990596104922574


    Psi4 stopped on: Thursday, 09 June 2022 05:53AM
    Psi4 wall time for execution: 0:06:44.35

*** Psi4 exiting successfully. Buy a developer a beer!
