
    -----------------------------------------------------------------------
          Psi4: An Open-Source Ab Initio Electronic Structure Package
                               Psi4 1.5 release

                         Git: Rev {HEAD} e9f4d6d 


    D. G. A. Smith, L. A. Burns, A. C. Simmonett, R. M. Parrish,
    M. C. Schieber, R. Galvelis, P. Kraus, H. Kruse, R. Di Remigio,
    A. Alenaizan, A. M. James, S. Lehtola, J. P. Misiewicz, M. Scheurer,
    R. A. Shaw, J. B. Schriber, Y. Xie, Z. L. Glick, D. A. Sirianni,
    J. S. O'Brien, J. M. Waldrop, A. Kumar, E. G. Hohenstein,
    B. P. Pritchard, B. R. Brooks, H. F. Schaefer III, A. Yu. Sokolov,
    K. Patkowski, A. E. DePrince III, U. Bozkaya, R. A. King,
    F. A. Evangelista, J. M. Turney, T. D. Crawford, C. D. Sherrill,
    J. Chem. Phys. 152(18) 184108 (2020). https://doi.org/10.1063/5.0006002

                            Additional Code Authors
    E. T. Seidl, C. L. Janssen, E. F. Valeev, M. L. Leininger,
    J. F. Gonthier, R. M. Richard, H. R. McAlexander, M. Saitow, X. Wang,
    P. Verma, M. H. Lechner, and A. Jiang

             Previous Authors, Complete List of Code Contributors,
                       and Citations for Specific Modules
    https://github.com/psi4/psi4/blob/master/codemeta.json
    https://github.com/psi4/psi4/graphs/contributors
    http://psicode.org/psi4manual/master/introduction.html#citing-psifour

    -----------------------------------------------------------------------


    Psi4 started on: Wednesday, 08 June 2022 04:49PM

    Process ID: 1156425
    Host:       node74.bme.utexas.edu
    PSIDATADIR: /home/bdw2292/miniconda3/envs/newamoebamdpoltype/share/psi4
    Memory:     500.0 MiB
    Threads:    1
    
  ==> Input File <==

--------------------------------------------------------------------------
molecule { 
0 1
 C   -0.622964   -0.348127    0.021203
 N    0.707057   -0.675959    0.340817
 C    2.041277   -0.357659   -0.054456
 C    2.989966   -1.409150    0.147517
 H    0.719733   -1.371654    1.110307
 C    2.513207    0.829829   -0.669996
 C   -1.595343   -0.752764    0.957785
 N   -2.571606   -1.924101    2.657219
 C   -2.962521   -0.309713    1.135026
 C   -1.380508   -1.798912    1.986646
 C   -3.512541   -1.027096    2.152196
 C   -1.016749    0.802103   -0.844520
 C   -0.431631    2.087227   -0.741512
 C   -1.931599    0.562083   -1.903852
 C   -0.754113    3.099089   -1.654964
 C   -2.257730    1.576511   -2.813326
 C   -1.668015    2.850775   -2.697836
 C    4.337613   -1.251830   -0.199511
 C    3.866362    0.979950   -1.012203
 C    4.790615   -0.053184   -0.776468
 H    2.669698   -2.357540    0.588433
 H    1.857253    1.653996   -0.910122
 H   -2.698753   -2.581830    3.412423
 O   -0.332964   -2.450256    2.230566
 H    0.242086    2.300197    0.089969
 H   -2.376900   -0.429176   -2.011829
 H   -0.297475    4.085143   -1.553070
 H   -2.968526    1.375839   -3.616874
 H   -1.918539    3.639614   -3.409260
 H    5.036092   -2.070108   -0.016204
 H    4.199349    1.913371   -1.470323
 H   -3.473415    0.452799    0.563049
 H   -4.506934   -0.986109    2.574141
 H    5.841678    0.071983   -1.042084
}
set optking { 
  frozen_dihedral = ("
    2 1 12 13
    7 1 2 3
    1 2 3 4
  ")
}
set {
  geom_maxiter 400
  g_convergence GAU_LOOSE
  dynamic_level 1
}
memory 8.166666666666666GB
set_num_threads(2)
psi4_io.set_default_path("/scratch/bdw2292/Psi4-1_16_Index_0-farH_in17")
for _ in range(1):
  try:
    set opt_coordinates both
    optimize('wb97x-d/6-311G')
    break
  except OptimizationConvergenceError:
    break
  else:
    try:
      set opt_coordinates cartesian
      optimize('wb97x-d/6-311G')
      break
    except OptimizationConvergenceError:
      pass
clean()
--------------------------------------------------------------------------

  Memory set to   7.606 GiB by Python driver.
  Threads set to 2 by Python driver.

Scratch directory: /scratch/bdw2292/Psi4-1_16_Index_0-farH_in17/

Scratch directory: /scratch/bdw2292/Psi4-1_16_Index_0-farH_in17/
gradient() will perform analytic gradient computation.

*** tstart() called on node74.bme.utexas.edu
*** at Wed Jun  8 16:49:38 2022

   => Loading Basis Set <=

    Name: 6-311G
    Role: ORBITAL
    Keyword: BASIS
    atoms 1, 3-4, 6-7, 9-20 entry C          line    92 file /home/bdw2292/miniconda3/envs/newamoebamdpoltype/share/psi4/basis/6-311g.gbs 
    atoms 2, 8              entry N          line   109 file /home/bdw2292/miniconda3/envs/newamoebamdpoltype/share/psi4/basis/6-311g.gbs 
    atoms 5, 21-23, 25-34   entry H          line    21 file /home/bdw2292/miniconda3/envs/newamoebamdpoltype/share/psi4/basis/6-311g.gbs 
    atoms 24                entry O          line   126 file /home/bdw2292/miniconda3/envs/newamoebamdpoltype/share/psi4/basis/6-311g.gbs 

   => WB97X-D: Empirical Dispersion <=

    Chai and Head-Gordon Dispersion Correction
    Chai, J.-D.; Head-Gordon, M. (2010), J. Chem. Phys., 132: 6615-6620

        s6 =       1.000000


         ---------------------------------------------------------
                                   SCF
               by Justin Turney, Rob Parrish, Andy Simmonett
                          and Daniel G. A. Smith
                              RKS Reference
                        2 Threads,   7788 MiB Core
         ---------------------------------------------------------

  ==> Geometry <==

    Molecular point group: c1
    Full point group: C1

    Geometry (in Angstrom), charge = 0, multiplicity = 1:

       Center              X                  Y                   Z               Mass       
    ------------   -----------------  -----------------  -----------------  -----------------
         C           -0.622095307712    -0.332447422695     0.065824615646    12.000000000000
         N            0.707925692288    -0.660279422695     0.385438615646    14.003074004430
         C            2.042145692288    -0.341979422695    -0.009834384354    12.000000000000
         C            2.990834692288    -1.393470422695     0.192138615646    12.000000000000
         H            0.720601692288    -1.355974422695     1.154928615646     1.007825032230
         C            2.514075692288     0.845508577305    -0.625374384354    12.000000000000
         C           -1.594474307712    -0.737084422695     1.002406615646    12.000000000000
         N           -2.570737307712    -1.908421422695     2.701840615646    14.003074004430
         C           -2.961652307712    -0.294033422695     1.179647615646    12.000000000000
         C           -1.379639307712    -1.783232422695     2.031267615646    12.000000000000
         C           -3.511672307712    -1.011416422695     2.196817615646    12.000000000000
         C           -1.015880307712     0.817782577305    -0.799898384354    12.000000000000
         C           -0.430762307712     2.102906577305    -0.696890384354    12.000000000000
         C           -1.930730307712     0.577762577305    -1.859230384354    12.000000000000
         C           -0.753244307712     3.114768577305    -1.610342384354    12.000000000000
         C           -2.256861307712     1.592190577305    -2.768704384354    12.000000000000
         C           -1.667146307712     2.866454577305    -2.653214384354    12.000000000000
         C            4.338481692288    -1.236150422695    -0.154889384354    12.000000000000
         C            3.867230692288     0.995629577305    -0.967581384354    12.000000000000
         C            4.791483692288    -0.037504422695    -0.731846384354    12.000000000000
         H            2.670566692288    -2.341860422695     0.633054615646     1.007825032230
         H            1.858121692288     1.669675577305    -0.865500384354     1.007825032230
         H           -2.697884307712    -2.566150422695     3.457044615646     1.007825032230
         O           -0.332095307712    -2.434576422695     2.275187615646    15.994914619570
         H            0.242954692288     2.315876577305     0.134590615646     1.007825032230
         H           -2.376031307712    -0.413496422695    -1.967207384354     1.007825032230
         H           -0.296606307712     4.100822577305    -1.508448384354     1.007825032230
         H           -2.967657307712     1.391518577305    -3.572252384354     1.007825032230
         H           -1.917670307712     3.655293577305    -3.364638384354     1.007825032230
         H            5.036960692288    -2.054428422695     0.028417615646     1.007825032230
         H            4.200217692288     1.929050577305    -1.425701384354     1.007825032230
         H           -3.472546307712     0.468478577305     0.607670615646     1.007825032230
         H           -4.506065307712    -0.970429422695     2.618762615646     1.007825032230
         H            5.842546692288     0.087662577305    -0.997462384354     1.007825032230

  Running in c1 symmetry.

  Rotational constants: A =      0.01335  B =      0.00953  C =      0.00589 [cm^-1]
  Rotational constants: A =    400.12249  B =    285.58893  C =    176.47960 [MHz]
  Nuclear repulsion = 1397.451384164903175

  Charge       = 0
  Multiplicity = 1
  Electrons    = 138
  Nalpha       = 69
  Nbeta        = 69

  ==> Algorithm <==

  SCF Algorithm Type is DF.
  DIIS enabled.
  MOM disabled.
  Fractional occupation disabled.
  Guess Type is SAD.
  Energy threshold   = 1.00e-08
  Density threshold  = 1.00e-08
  Integral threshold = 1.00e-12

  ==> Primary Basis <==

  Basis Set: 6-311G
    Blend: 6-311G
    Number of shells: 182
    Number of basis functions: 302
    Number of Cartesian functions: 302
    Spherical Harmonics?: true
    Max angular momentum: 1

  ==> DFT Potential <==

   => LibXC <=

    Version 5.1.5
    S. Lehtola, C. Steigemann, M. J. Oliveira, and M. A. Marques, SoftwareX 7, 1 (2018) (10.1016/j.softx.2017.11.002)

   => Composite Functional: WB97X-D <= 

    wB97X-D Hyb-GGA Exchange-Correlation Functional

    J.-D. Chai and M. Head-Gordon, Phys. Chem. Chem. Phys. 10, 6615 (2008) (10.1039/B810189B)

    Deriv               =              1
    GGA                 =           TRUE
    Meta                =          FALSE

    Exchange Hybrid     =           TRUE
    MP2 Hybrid          =          FALSE

   => Exchange-Correlation Functionals <=

    1.0000   wB97X-D range-separated functional

   => Exact (HF) Exchange <=

    0.7780            HF,LR [omega = 0.2000]
    0.2220               HF 

   => LibXC Density Thresholds  <==

    XC_HYB_GGA_XC_WB97X_D:  1.00E-14 

   => Molecular Quadrature <=

    Radial Scheme          =       TREUTLER
    Pruning Scheme         =           NONE
    Nuclear Scheme         =       TREUTLER

    BS radius alpha        =              1
    Pruning alpha          =              1
    Radial Points          =             75
    Spherical Points       =            302
    Total Points           =         701036
    Total Blocks           =           5016
    Max Points             =            256
    Max Functions          =            216
    Weights Tolerance      =       1.00E-15

   => Loading Basis Set <=

    Name: (6-311G AUX)
    Role: JKFIT
    Keyword: DF_BASIS_SCF
    atoms 1, 3-4, 6-7, 9-20 entry C          line   125 file /home/bdw2292/miniconda3/envs/newamoebamdpoltype/share/psi4/basis/cc-pvtz-jkfit.gbs 
    atoms 2, 8              entry N          line   177 file /home/bdw2292/miniconda3/envs/newamoebamdpoltype/share/psi4/basis/cc-pvtz-jkfit.gbs 
    atoms 5, 21-23, 25-34   entry H          line    51 file /home/bdw2292/miniconda3/envs/newamoebamdpoltype/share/psi4/basis/cc-pvtz-jkfit.gbs 
    atoms 24                entry O          line   229 file /home/bdw2292/miniconda3/envs/newamoebamdpoltype/share/psi4/basis/cc-pvtz-jkfit.gbs 

  ==> Integral Setup <==

  DFHelper Memory: AOs need 3.104 GiB; user supplied 3.104 GiB. Using in-core AOs.

  ==> MemDFJK: Density-Fitted J/K Matrices <==

    J tasked:                   Yes
    K tasked:                   Yes
    wK tasked:                  Yes
    Omega:                2.000E-01
    OpenMP threads:               2
    Memory [MiB]:              3178
    Algorithm:                 Core
    Schwarz Cutoff:           1E-12
    Mask sparsity (%):      25.0735
    Fitting Condition:        1E-10

   => Auxiliary Basis Set <=

  Basis Set: (6-311G AUX)
    Blend: CC-PVTZ-JKFIT
    Number of shells: 640
    Number of basis functions: 2000
    Number of Cartesian functions: 2410
    Spherical Harmonics?: true
    Max angular momentum: 4

  Cached 50.0% of DFT collocation blocks in 1.475 [GiB].

  Minimum eigenvalue in the overlap matrix is 2.6843209842E-04.
  Reciprocal condition number of the overlap matrix is 4.0426434984E-05.
    Using symmetric orthogonalization.

  ==> Pre-Iterations <==

  SCF Guess: Superposition of Atomic Densities via on-the-fly atomic UHF (no occupation information).

   -------------------------
    Irrep   Nso     Nmo    
   -------------------------
     A        302     302 
   -------------------------
    Total     302     302
   -------------------------

  ==> Iterations <==

                           Total Energy        Delta E     RMS |[F,P]|

   @DF-RKS iter SAD:  -839.84014475243293   -8.39840e+02   0.00000e+00 
   @DF-RKS iter   1:  -840.06736409042719   -2.27219e-01   3.52192e-03 DIIS
   @DF-RKS iter   2:  -840.27066532524691   -2.03301e-01   3.06255e-03 DIIS
   @DF-RKS iter   3:  -840.59674050305273   -3.26075e-01   8.37548e-04 DIIS
   @DF-RKS iter   4:  -840.62105807809814   -2.43176e-02   1.94511e-04 DIIS
   @DF-RKS iter   5:  -840.62240767506796   -1.34960e-03   6.59085e-05 DIIS
   @DF-RKS iter   6:  -840.62259551382965   -1.87839e-04   1.23672e-05 DIIS
   @DF-RKS iter   7:  -840.62260394990244   -8.43607e-06   7.98123e-06 DIIS
   @DF-RKS iter   8:  -840.62260745021251   -3.50031e-06   1.69258e-06 DIIS
   @DF-RKS iter   9:  -840.62260790191306   -4.51701e-07   1.02221e-06 DIIS
   @DF-RKS iter  10:  -840.62260801319587   -1.11283e-07   2.10121e-07 DIIS
   @DF-RKS iter  11:  -840.62260802139872   -8.20285e-09   1.06145e-07 DIIS
   @DF-RKS iter  12:  -840.62260802234835   -9.49626e-10   2.79503e-08 DIIS
   @DF-RKS iter  13:  -840.62260802249716   -1.48816e-10   1.65835e-08 DIIS
   @DF-RKS iter  14:  -840.62260802252160   -2.44427e-11   5.48243e-09 DIIS
  Energy and wave function converged.


  ==> Post-Iterations <==

   Electrons on quadrature grid:
      Ntotal   =  137.9999095275 ; deviation = -9.047e-05 

    Orbital Energies [Eh]
    ---------------------

    Doubly Occupied:                                                      

       1A    -19.210732     2A    -14.477202     3A    -14.470814  
       4A    -10.390594     5A    -10.380796     6A    -10.356622  
       7A    -10.329791     8A    -10.322160     9A    -10.314518  
      10A    -10.312571    11A    -10.312328    12A    -10.311806  
      13A    -10.310350    14A    -10.300411    15A    -10.299658  
      16A    -10.299110    17A    -10.298696    18A    -10.297232  
      19A    -10.295257    20A    -10.282908    21A     -1.143649  
      22A     -1.063254    23A     -1.058026    24A     -0.979977  
      25A     -0.959153    26A     -0.913140    27A     -0.874398  
      28A     -0.866099    29A     -0.854237    30A     -0.852890  
      31A     -0.814177    32A     -0.773348    33A     -0.727376  
      34A     -0.722684    35A     -0.709104    36A     -0.696904  
      37A     -0.683316    38A     -0.660863    39A     -0.640943  
      40A     -0.610985    41A     -0.600377    42A     -0.585468  
      43A     -0.583031    44A     -0.561587    45A     -0.554179  
      46A     -0.542596    47A     -0.536965    48A     -0.527495  
      49A     -0.525264    50A     -0.517575    51A     -0.512818  
      52A     -0.509990    53A     -0.497107    54A     -0.484457  
      55A     -0.477467    56A     -0.471177    57A     -0.451862  
      58A     -0.448522    59A     -0.445293    60A     -0.432898  
      61A     -0.426775    62A     -0.407801    63A     -0.365189  
      64A     -0.346598    65A     -0.339984    66A     -0.335232  
      67A     -0.332812    68A     -0.308160    69A     -0.252029  

    Virtual:                                                              

      70A     -0.007541    71A      0.044694    72A      0.048366  
      73A      0.058370    74A      0.078470    75A      0.115088  
      76A      0.126445    77A      0.130253    78A      0.133545  
      79A      0.148048    80A      0.159116    81A      0.162106  
      82A      0.167819    83A      0.179099    84A      0.184938  
      85A      0.188082    86A      0.192346    87A      0.197509  
      88A      0.203733    89A      0.215066    90A      0.226526  
      91A      0.232068    92A      0.237656    93A      0.250640  
      94A      0.283013    95A      0.297760    96A      0.310626  
      97A      0.317752    98A      0.329652    99A      0.337611  
     100A      0.342763   101A      0.349986   102A      0.353408  
     103A      0.363746   104A      0.368776   105A      0.369946  
     106A      0.383109   107A      0.391046   108A      0.402468  
     109A      0.416186   110A      0.422540   111A      0.431001  
     112A      0.439249   113A      0.446579   114A      0.457759  
     115A      0.465573   116A      0.467906   117A      0.473113  
     118A      0.475314   119A      0.482831   120A      0.484367  
     121A      0.489393   122A      0.495382   123A      0.498142  
     124A      0.499326   125A      0.505296   126A      0.509771  
     127A      0.522990   128A      0.526009   129A      0.537511  
     130A      0.540194   131A      0.541222   132A      0.545013  
     133A      0.551953   134A      0.555507   135A      0.563763  
     136A      0.573463   137A      0.577963   138A      0.588741  
     139A      0.600752   140A      0.616308   141A      0.621142  
     142A      0.631428   143A      0.635112   144A      0.652168  
     145A      0.655920   146A      0.666377   147A      0.671467  
     148A      0.679249   149A      0.684080   150A      0.687070  
     151A      0.691994   152A      0.697450   153A      0.705160  
     154A      0.717473   155A      0.721160   156A      0.725527  
     157A      0.730499   158A      0.735661   159A      0.739707  
     160A      0.747468   161A      0.750342   162A      0.758137  
     163A      0.771996   164A      0.786644   165A      0.795591  
     166A      0.805204   167A      0.811950   168A      0.826333  
     169A      0.834402   170A      0.839699   171A      0.847751  
     172A      0.851538   173A      0.860274   174A      0.866132  
     175A      0.873310   176A      0.885828   177A      0.896457  
     178A      0.902799   179A      0.924841   180A      0.942925  
     181A      0.946525   182A      0.956016   183A      0.963038  
     184A      0.975312   185A      0.979014   186A      0.996418  
     187A      1.000744   188A      1.024437   189A      1.032344  
     190A      1.041352   191A      1.049321   192A      1.074445  
     193A      1.107563   194A      1.118080   195A      1.125266  
     196A      1.142525   197A      1.160737   198A      1.166395  
     199A      1.214615   200A      1.260546   201A      1.273216  
     202A      1.278940   203A      1.307692   204A      1.356442  
     205A      1.381091   206A      1.468468   207A      1.513511  
     208A      1.815866   209A      2.296869   210A      2.304533  
     211A      2.320611   212A      2.348538   213A      2.359665  
     214A      2.383078   215A      2.404481   216A      2.423472  
     217A      2.446414   218A      2.462360   219A      2.493551  
     220A      2.510895   221A      2.605676   222A      2.620079  
     223A      2.625683   224A      2.631931   225A      2.635246  
     226A      2.661367   227A      2.664991   228A      2.674764  
     229A      2.689380   230A      2.712073   231A      2.745265  
     232A      2.760623   233A      2.772694   234A      2.792511  
     235A      2.800314   236A      2.808303   237A      2.825911  
     238A      2.829358   239A      2.837083   240A      2.841829  
     241A      2.864050   242A      2.890090   243A      2.907846  
     244A      2.925051   245A      2.949622   246A      2.956470  
     247A      2.968147   248A      3.009269   249A      3.012434  
     250A      3.028411   251A      3.077400   252A      3.099378  
     253A      3.116807   254A      3.147972   255A      3.160881  
     256A      3.186253   257A      3.197391   258A      3.216238  
     259A      3.225870   260A      3.251535   261A      3.266344  
     262A      3.279599   263A      3.294696   264A      3.308982  
     265A      3.318002   266A      3.328497   267A      3.353625  
     268A      3.358049   269A      3.374684   270A      3.395819  
     271A      3.431775   272A      3.509296   273A      3.549145  
     274A      3.815126   275A      3.928884   276A      4.113545  
     277A      4.232190   278A      4.262098   279A      4.316283  
     280A      4.989555   281A      5.104049   282A      5.179886  
     283A     23.239765   284A     23.256390   285A     23.333211  
     286A     23.467009   287A     23.475818   288A     23.478824  
     289A     23.499490   290A     23.514728   291A     23.579693  
     292A     23.708203   293A     23.720005   294A     23.748609  
     295A     23.757202   296A     23.769533   297A     23.862803  
     298A     23.975562   299A     23.983778   300A     35.521962  
     301A     35.561931   302A     50.081198  

    Final Occupation by Irrep:
              A 
    DOCC [    69 ]

  @DF-RKS Final Energy:  -840.62260802252160

   => Energetics <=

    Nuclear Repulsion Energy =           1397.4513841649031747
    One-Electron Energy =               -3912.9500183026302693
    Two-Electron Energy =                1757.4161620420793497
    DFT Exchange-Correlation Energy =     -82.5168438346400990
    Empirical Dispersion Energy =          -0.0232920922337577
    VV10 Nonlocal Energy =                  0.0000000000000000
    Total Energy =                       -840.6226080225216037

Computation Completed


Properties will be evaluated at   0.000000,   0.000000,   0.000000 [a0]

Properties computed using the SCF density matrix

  Nuclear Dipole Moment: [e a0]
     X:     2.1952      Y:     5.5419      Z:    -4.7480

  Electronic Dipole Moment: [e a0]
     X:    -2.8220      Y:    -4.6075      Z:     4.1948

  Dipole Moment: [e a0]
     X:    -0.6268      Y:     0.9344      Z:    -0.5531     Total:     1.2538

  Dipole Moment: [D]
     X:    -1.5932      Y:     2.3750      Z:    -1.4059     Total:     3.1868


*** tstop() called on node74.bme.utexas.edu at Wed Jun  8 16:51:56 2022
Module time:
	user time   =     261.09 seconds =       4.35 minutes
	system time =       9.07 seconds =       0.15 minutes
	total time  =        138 seconds =       2.30 minutes
Total time:
	user time   =     261.09 seconds =       4.35 minutes
	system time =       9.07 seconds =       0.15 minutes
	total time  =        138 seconds =       2.30 minutes

*** tstart() called on node74.bme.utexas.edu
*** at Wed Jun  8 16:51:56 2022


         ------------------------------------------------------------
                                   SCF GRAD                          
                          Rob Parrish, Justin Turney,                
                       Andy Simmonett, and Alex Sokolov              
         ------------------------------------------------------------

  ==> Geometry <==

    Molecular point group: c1
    Full point group: C1

    Geometry (in Angstrom), charge = 0, multiplicity = 1:

       Center              X                  Y                   Z               Mass       
    ------------   -----------------  -----------------  -----------------  -----------------
         C           -0.622095307712    -0.332447422695     0.065824615646    12.000000000000
         N            0.707925692288    -0.660279422695     0.385438615646    14.003074004430
         C            2.042145692288    -0.341979422695    -0.009834384354    12.000000000000
         C            2.990834692288    -1.393470422695     0.192138615646    12.000000000000
         H            0.720601692288    -1.355974422695     1.154928615646     1.007825032230
         C            2.514075692288     0.845508577305    -0.625374384354    12.000000000000
         C           -1.594474307712    -0.737084422695     1.002406615646    12.000000000000
         N           -2.570737307712    -1.908421422695     2.701840615646    14.003074004430
         C           -2.961652307712    -0.294033422695     1.179647615646    12.000000000000
         C           -1.379639307712    -1.783232422695     2.031267615646    12.000000000000
         C           -3.511672307712    -1.011416422695     2.196817615646    12.000000000000
         C           -1.015880307712     0.817782577305    -0.799898384354    12.000000000000
         C           -0.430762307712     2.102906577305    -0.696890384354    12.000000000000
         C           -1.930730307712     0.577762577305    -1.859230384354    12.000000000000
         C           -0.753244307712     3.114768577305    -1.610342384354    12.000000000000
         C           -2.256861307712     1.592190577305    -2.768704384354    12.000000000000
         C           -1.667146307712     2.866454577305    -2.653214384354    12.000000000000
         C            4.338481692288    -1.236150422695    -0.154889384354    12.000000000000
         C            3.867230692288     0.995629577305    -0.967581384354    12.000000000000
         C            4.791483692288    -0.037504422695    -0.731846384354    12.000000000000
         H            2.670566692288    -2.341860422695     0.633054615646     1.007825032230
         H            1.858121692288     1.669675577305    -0.865500384354     1.007825032230
         H           -2.697884307712    -2.566150422695     3.457044615646     1.007825032230
         O           -0.332095307712    -2.434576422695     2.275187615646    15.994914619570
         H            0.242954692288     2.315876577305     0.134590615646     1.007825032230
         H           -2.376031307712    -0.413496422695    -1.967207384354     1.007825032230
         H           -0.296606307712     4.100822577305    -1.508448384354     1.007825032230
         H           -2.967657307712     1.391518577305    -3.572252384354     1.007825032230
         H           -1.917670307712     3.655293577305    -3.364638384354     1.007825032230
         H            5.036960692288    -2.054428422695     0.028417615646     1.007825032230
         H            4.200217692288     1.929050577305    -1.425701384354     1.007825032230
         H           -3.472546307712     0.468478577305     0.607670615646     1.007825032230
         H           -4.506065307712    -0.970429422695     2.618762615646     1.007825032230
         H            5.842546692288     0.087662577305    -0.997462384354     1.007825032230

  Nuclear repulsion = 1397.451384164903175

  ==> Basis Set <==

  Basis Set: 6-311G
    Blend: 6-311G
    Number of shells: 182
    Number of basis functions: 302
    Number of Cartesian functions: 302
    Spherical Harmonics?: true
    Max angular momentum: 1

  ==> DFJKGrad: Density-Fitted SCF Gradients <==

    Gradient:                    1
    J tasked:                  Yes
    K tasked:                  Yes
    wK tasked:                 Yes
    Omega:               2.000E-01
    OpenMP threads:              2
    Integrals threads:           2
    Memory [MiB]:             5841
    Schwarz Cutoff:          1E-12
    Fitting Condition:       1E-10

   => Auxiliary Basis Set <=

  Basis Set: (6-311G AUX)
    Blend: CC-PVTZ-JKFIT
    Number of shells: 640
    Number of basis functions: 2000
    Number of Cartesian functions: 2410
    Spherical Harmonics?: true
    Max angular momentum: 4

  ==> DFT Potential <==

   => LibXC <=

    Version 5.1.5
    S. Lehtola, C. Steigemann, M. J. Oliveira, and M. A. Marques, SoftwareX 7, 1 (2018) (10.1016/j.softx.2017.11.002)

   => Composite Functional: WB97X-D <= 

    wB97X-D Hyb-GGA Exchange-Correlation Functional

    J.-D. Chai and M. Head-Gordon, Phys. Chem. Chem. Phys. 10, 6615 (2008) (10.1039/B810189B)

    Deriv               =              1
    GGA                 =           TRUE
    Meta                =          FALSE

    Exchange Hybrid     =           TRUE
    MP2 Hybrid          =          FALSE

   => Exchange-Correlation Functionals <=

    1.0000   wB97X-D range-separated functional

   => Exact (HF) Exchange <=

    0.7780            HF,LR [omega = 0.2000]
    0.2220               HF 

   => LibXC Density Thresholds  <==

    XC_HYB_GGA_XC_WB97X_D:  1.00E-14 

   => Molecular Quadrature <=

    Radial Scheme          =       TREUTLER
    Pruning Scheme         =           NONE
    Nuclear Scheme         =       TREUTLER

    BS radius alpha        =              1
    Pruning alpha          =              1
    Radial Points          =             75
    Spherical Points       =            302
    Total Points           =         701036
    Total Blocks           =           5016
    Max Points             =            256
    Max Functions          =            216
    Weights Tolerance      =       1.00E-15


  -Total Gradient:
     Atom            X                  Y                   Z
    ------   -----------------  -----------------  -----------------
       1       -0.012433356333    -0.030632376027    -0.056879595694
       2        0.014992698108     0.007273650060    -0.004512630781
       3       -0.009722317489     0.009007408520     0.022133344027
       4        0.000524635216    -0.007683262367    -0.001752422141
       5        0.003332017138    -0.004526561247     0.009239133315
       6        0.001787022937     0.004463002367    -0.002336544696
       7       -0.011239556901     0.017138256894     0.011954217283
       8       -0.003586867990     0.008080298494    -0.006725464913
       9        0.012494735275     0.001903676762     0.001754944725
      10       -0.002772694034    -0.009022833029     0.011139327315
      11        0.007142448615    -0.007740636502     0.005439299645
      12       -0.010605744562     0.001750028144     0.033635540674
      13        0.007717873605     0.005106734385    -0.004796770870
      14       -0.004099772671    -0.003430145779    -0.005648830076
      15        0.005957747603     0.002914711885     0.002780537264
      16       -0.002402017459    -0.006176884132    -0.002814387963
      17       -0.001908392536     0.006589513127    -0.005038219015
      18        0.004028350347    -0.005098297243    -0.001175348294
      19       -0.003490077668     0.010081208486    -0.003185829961
      20        0.005850210193    -0.002492904116    -0.000137166296
      21        0.000793606322    -0.007417120262     0.003295198625
      22        0.000099165125     0.005276210909    -0.002044015255
      23       -0.000047274527    -0.005600111484     0.005163139981
      24       -0.007503745421     0.001985455108    -0.001115269081
      25        0.004753170787     0.001269883023     0.005277770396
      26       -0.003437877655    -0.006131347505    -0.001263026452
      27        0.002977949013     0.006131393923     0.000205843851
      28       -0.004671426316    -0.000992463606    -0.004927108274
      29       -0.001832957631     0.005119703727    -0.004430973755
      30        0.004605208635    -0.004768956618     0.001298465371
      31        0.002908929547     0.005840594710    -0.002764875006
      32       -0.003008966514     0.002401674387    -0.002043811172
      33       -0.003912523521    -0.001468356696     0.001842483297
      34        0.006797214378     0.000857057396    -0.001504130426


*** tstop() called on node74.bme.utexas.edu at Wed Jun  8 16:52:55 2022
Module time:
	user time   =     112.21 seconds =       1.87 minutes
	system time =       1.54 seconds =       0.03 minutes
	total time  =         59 seconds =       0.98 minutes
Total time:
	user time   =     373.30 seconds =       6.22 minutes
	system time =      10.61 seconds =       0.18 minutes
	total time  =        197 seconds =       3.28 minutes

			-----------------------------------------
			 OPTKING 2.0: for geometry optimizations 
			  - R.A. King,  Bethel University        
			-----------------------------------------
	At level 1: Red. Int., RFO, no backsteps, dynamic trust

	Internal coordinates to be generated automatically.
	Detected frag 1 with atoms:  1 2 3 4 5 6 7 8 9 10 11 12 13 14 15 16 17 18 19 20
	 21 22 23 24 25 26 27 28 29 30 31 32 33 34
	---Fragment 1 Bond Connectivity---
	 1 : 2 7 12
	 2 : 1 3 5
	 3 : 2 4 6
	 4 : 3 18 21
	 5 : 2
	 6 : 3 19 22
	 7 : 1 9 10
	 8 : 10 11 23
	 9 : 7 11 32
	 10 : 7 8 24
	 11 : 8 9 33
	 12 : 1 13 14
	 13 : 12 15 25
	 14 : 12 16 26
	 15 : 13 17 27
	 16 : 14 17 28
	 17 : 15 16 29
	 18 : 4 20 30
	 19 : 6 20 31
	 20 : 18 19 34
	 21 : 4
	 22 : 6
	 23 : 8
	 24 : 10
	 25 : 13
	 26 : 14
	 27 : 15
	 28 : 16
	 29 : 17
	 30 : 18
	 31 : 19
	 32 : 9
	 33 : 11
	 34 : 20

	Assuming in current code that numbering for constraints corresponds to unified fragment.
	Frozen dihedral atom list: 
	     2     1    12    13
	     7     1     2     3
	     1     2     3     4
	---Fragment 1 Geometry and Gradient---
	 C          -1.1755897555       -0.6282345800        0.1243904959
	 N           1.3377856756       -1.2477472752        0.7283734217
	 C           3.8590960667       -0.6462474494       -0.0185842930
	 C           5.6518584549       -2.6332774628        0.3630893617
	 H           1.3617398440       -2.5624202920        2.1824987780
	 C           4.7509145171        1.5977796478       -1.1817863123
	 C          -3.0131197557       -1.3928876902        1.8942739699
	 N          -4.8579894521       -3.6063938208        5.1057387982
	 C          -5.5967117404       -0.5556426406        2.2292109181
	 C          -2.6071404435       -3.3698208969        3.8385394811
	 C          -6.6360989039       -1.9113000377        4.1513836412
	 C          -1.9197355578        1.5453851013       -1.5115888746
	 C          -0.8140227867        3.9739174985       -1.3169319659
	 C          -3.6485515037        1.0918130366       -3.5134362306
	 C          -1.4234254471        5.8860595553       -3.0431060746
	 C          -4.2648497747        3.0088041306       -5.2320930088
	 C          -3.1504499326        5.4168141022       -5.0138485386
	 C           8.1985421987       -2.3359857488       -0.2926985162
	 C           7.3080068724        1.8814672235       -1.8284638205
	 C           9.0545919130       -0.0708730874       -1.3829892323
	 H           5.0466396482       -4.4254748229        1.1962998460
	 H           3.5113411062        3.1552295595       -1.6355586879
	 H          -5.0982624597       -4.8493214956        6.5328675271
	 O          -0.6275691791       -4.6006826704        4.2994814776
	 H           0.4591178293        4.3763724715        0.2543394026
	 H          -4.4900484371       -0.7813949927       -3.7174831884
	 H          -0.5605046887        7.7494315602       -2.8505543208
	 H          -5.6080595458        2.6295890096       -6.7505786574
	 H          -3.6238716805        6.9075037693       -6.3582450576
	 H           9.5184762131       -3.8823070632        0.0537015107
	 H           7.9372611057        3.6453772733       -2.6941851531
	 H          -6.5621614795        0.8852962068        1.1483310381
	 H          -8.5152293350       -1.8338458330        4.9487441312
	 H          11.0408131236        0.1656582626       -1.8849307269
	            -0.0124333563       -0.0306323760       -0.0568795957
	             0.0149926981        0.0072736501       -0.0045126308
	            -0.0097223175        0.0090074085        0.0221333440
	             0.0005246352       -0.0076832624       -0.0017524221
	             0.0033320171       -0.0045265612        0.0092391333
	             0.0017870229        0.0044630024       -0.0023365447
	            -0.0112395569        0.0171382569        0.0119542173
	            -0.0035868680        0.0080802985       -0.0067254649
	             0.0124947353        0.0019036768        0.0017549447
	            -0.0027726940       -0.0090228330        0.0111393273
	             0.0071424486       -0.0077406365        0.0054392996
	            -0.0106057446        0.0017500281        0.0336355407
	             0.0077178736        0.0051067344       -0.0047967709
	            -0.0040997727       -0.0034301458       -0.0056488301
	             0.0059577476        0.0029147119        0.0027805373
	            -0.0024020175       -0.0061768841       -0.0028143880
	            -0.0019083925        0.0065895131       -0.0050382190
	             0.0040283503       -0.0050982972       -0.0011753483
	            -0.0034900777        0.0100812085       -0.0031858300
	             0.0058502102       -0.0024929041       -0.0001371663
	             0.0007936063       -0.0074171203        0.0032951986
	             0.0000991651        0.0052762109       -0.0020440153
	            -0.0000472745       -0.0056001115        0.0051631400
	            -0.0075037454        0.0019854551       -0.0011152691
	             0.0047531708        0.0012698830        0.0052777704
	            -0.0034378777       -0.0061313475       -0.0012630265
	             0.0029779490        0.0061313939        0.0002058439
	            -0.0046714263       -0.0009924636       -0.0049271083
	            -0.0018329576        0.0051197037       -0.0044309738
	             0.0046052086       -0.0047689566        0.0012984654
	             0.0029089295        0.0058405947       -0.0027648750
	            -0.0030089665        0.0024016744       -0.0020438112
	            -0.0039125235       -0.0014683567        0.0018424833
	             0.0067972144        0.0008570574       -0.0015041304

	Previous optimization step data not found.  Starting new optimization.

	---Fragment 1 Intrafragment Coordinates---
	 - Coordinate -           - BOHR/RAD -       - ANG/DEG -
	 H(5,24)          =         3.548729	       1.877907
	 R(1,2)           =         2.658129	       1.406621
	 R(1,7)           =         2.663400	       1.409410
	 R(1,12)          =         2.820426	       1.492505
	 R(2,3)           =         2.697546	       1.427480
	 R(2,5)           =         1.960464	       1.037433
	 R(3,4)           =         2.703324	       1.430537
	 R(3,6)           =         2.680305	       1.418356
	 R(4,18)          =         2.646514	       1.400475
	 R(4,21)          =         2.067003	       1.093811
	 R(6,19)          =         2.652808	       1.403806
	 R(6,22)          =         2.041593	       1.080364
	 R(7,9)           =         2.736441	       1.448062
	 R(7,10)          =         2.802366	       1.482948
	 R(8,10)          =         2.593855	       1.372609
	 R(8,11)          =         2.635490	       1.394641
	 R(8,23)          =         1.907694	       1.009508
	 R(9,11)          =         2.571552	       1.360807
	 R(9,32)          =         2.043697	       1.081478
	 R(10,24)         =         2.376171	       1.257416
	 R(11,33)         =         2.042771	       1.080988
	 R(12,13)         =         2.675493	       1.415810
	 R(12,14)         =         2.683640	       1.420121
	 R(13,15)         =         2.647137	       1.400805
	 R(13,25)         =         2.061977	       1.091151
	 R(14,16)         =         2.647350	       1.400917
	 R(14,26)         =         2.063652	       1.092038
	 R(15,17)         =         2.662073	       1.408708
	 R(15,27)         =         2.062490	       1.091423
	 R(16,17)         =         2.662335	       1.408847
	 R(16,28)         =         2.062478	       1.091416
	 R(17,29)         =         2.062447	       1.091400
	 R(18,20)         =         2.655615	       1.405291
	 R(18,30)         =         2.062360	       1.091354
	 R(19,20)         =         2.657186	       1.406122
	 R(19,31)         =         2.063205	       1.091801
	 R(20,34)         =         2.062272	       1.091307
	 B(1,2,3)         =         2.447888	     140.253641
	 B(1,2,5)         =         1.913866	     109.656447
	 B(1,7,9)         =         2.271660	     130.156547
	 B(1,7,10)        =         2.169564	     124.306835
	 B(1,12,13)       =         2.151119	     123.250022
	 B(1,12,14)       =         2.062805	     118.190018
	 B(2,1,7)         =         2.020217	     115.749881
	 B(2,1,12)        =         2.166254	     124.117212
	 B(2,3,4)         =         2.000774	     114.635927
	 B(2,3,6)         =         2.236800	     128.159177
	 B(3,2,5)         =         1.921431	     110.089912
	 B(3,4,18)        =         2.118350	     121.372519
	 B(3,4,21)        =         2.094449	     120.003100
	 B(3,6,19)        =         2.113028	     121.067592
	 B(3,6,22)        =         2.133087	     122.216904
	 B(4,3,6)         =         2.044298	     117.129648
	 B(4,18,20)       =         2.103360	     120.513669
	 B(4,18,30)       =         2.082913	     119.342137
	 B(6,19,20)       =         2.110813	     120.940654
	 B(6,19,31)       =         2.080246	     119.189299
	 B(7,1,12)        =         2.009405	     115.130447
	 B(7,9,11)        =         1.887889	     108.168048
	 B(7,9,32)        =         2.210558	     126.655637
	 B(7,10,8)        =         1.852064	     106.115442
	 B(7,10,24)       =         2.240434	     128.367384
	 B(8,10,24)       =         2.190646	     125.514757
	 B(8,11,9)        =         1.914573	     109.696962
	 B(8,11,33)       =         2.098642	     120.243307
	 B(9,7,10)        =         1.841801	     105.527422
	 B(9,11,33)       =         2.269968	     130.059604
	 B(10,8,11)       =         1.928251	     110.480664
	 B(10,8,23)       =         2.134345	     122.288934
	 B(11,8,23)       =         2.220530	     127.226991
	 B(11,9,32)       =         2.184723	     125.175398
	 B(12,13,15)      =         2.109570	     120.869458
	 B(12,13,25)      =         2.080336	     119.194464
	 B(12,14,16)      =         2.108134	     120.787188
	 B(12,14,26)      =         2.082727	     119.331442
	 B(13,12,14)      =         2.064532	     118.288943
	 B(13,15,17)      =         2.099909	     120.315940
	 B(13,15,27)      =         2.089103	     119.696805
	 B(14,16,17)      =         2.099346	     120.283677
	 B(14,16,28)      =         2.090291	     119.764865
	 B(15,13,25)      =         2.092159	     119.871887
	 B(15,17,16)      =         2.084806	     119.450587
	 B(15,17,29)      =         2.099108	     120.270044
	 B(16,14,26)      =         2.092287	     119.879203
	 B(16,17,29)      =         2.099269	     120.279267
	 B(17,15,27)      =         2.094161	     119.986570
	 B(17,16,28)      =         2.093538	     119.950897
	 B(18,4,21)       =         2.070357	     118.622696
	 B(18,20,19)      =         2.075608	     118.923554
	 B(18,20,34)      =         2.103917	     120.545559
	 B(19,6,22)       =         2.036993	     116.711117
	 B(19,20,34)      =         2.103648	     120.530128
	 B(20,18,30)      =         2.096911	     120.144130
	 B(20,19,31)      =         2.092123	     119.869801
	*D(1,2,3,4)       =        -2.641213	    -151.330362
	 D(1,2,3,6)       =         0.443191	      25.392966
	 D(1,7,9,11)      =         3.110989	     178.246549
	 D(1,7,9,32)      =        -0.024745	      -1.417785
	 D(1,7,10,8)      =        -3.105933	    -177.956826
	 D(1,7,10,24)     =         0.045208	       2.590212
	 D(1,12,13,15)    =         3.043291	     174.367752
	 D(1,12,13,25)    =        -0.149221	      -8.549711
	 D(1,12,14,16)    =        -3.053602	    -174.958498
	 D(1,12,14,26)    =         0.078634	       4.505370
	 D(2,1,7,9)       =         2.833905	     162.370807
	 D(2,1,7,10)      =        -0.329821	     -18.897362
	*D(2,1,12,13)     =        -0.756981	     -43.371834
	 D(2,1,12,14)     =         2.278319	     130.538087
	 D(2,3,4,18)      =         3.134034	     179.566909
	 D(2,3,4,21)      =        -0.015916	      -0.911932
	 D(2,3,6,19)      =        -3.128290	    -179.237805
	 D(2,3,6,22)      =        -0.000435	      -0.024928
	*D(3,2,1,7)       =        -2.897550	    -166.017403
	 D(3,2,1,12)      =        -0.215399	     -12.341463
	 D(3,4,18,20)     =        -0.015403	      -0.882542
	 D(3,4,18,30)     =         3.124588	     179.025727
	 D(3,6,19,20)     =         0.020129	       1.153293
	 D(3,6,19,31)     =        -3.124620	    -179.027544
	 D(4,3,2,5)       =         0.500601	      28.682349
	 D(4,3,6,19)      =        -0.045108	      -2.584501
	 D(4,3,6,22)      =         3.082747	     176.628376
	 D(4,18,20,19)    =        -0.011346	      -0.650070
	 D(4,18,20,34)    =         3.135748	     179.665135
	 D(5,2,1,7)       =         0.243821	      13.969920
	 D(5,2,1,12)      =         2.925972	     167.645860
	 D(5,2,3,6)       =        -2.698180	    -154.594322
	 D(6,3,4,18)      =         0.042961	       2.461511
	 D(6,3,4,21)      =        -3.106989	    -178.017330
	 D(6,19,20,18)    =         0.009104	       0.521634
	 D(6,19,20,34)    =        -3.137989	    -179.793521
	 D(7,1,12,13)     =         1.927706	     110.449427
	 D(7,1,12,14)     =        -1.320178	     -75.640652
	 D(7,9,11,8)      =         0.000851	       0.048759
	 D(7,9,11,33)     =        -3.138427	    -179.818648
	 D(7,10,8,11)     =        -0.018287	      -1.047773
	 D(7,10,8,23)     =         3.134247	     179.579115
	 D(8,10,7,9)      =         0.018103	       1.037246
	 D(8,11,9,32)     =         3.136694	     179.719316
	 D(9,7,1,12)      =         0.109850	       6.293962
	 D(9,7,10,24)     =        -3.113942	    -178.415716
	 D(9,11,8,10)     =         0.011466	       0.656957
	 D(9,11,8,23)     =         3.141442	     179.991395
	 D(10,7,1,12)     =        -3.053876	    -174.974208
	 D(10,7,9,11)     =        -0.011628	      -0.666246
	 D(10,7,9,32)     =         3.135823	     179.669420
	 D(10,8,11,33)    =        -3.132177	    -179.460515
	 D(11,8,10,24)    =         3.114109	     178.425297
	 D(12,13,15,17)   =        -0.002910	      -0.166705
	 D(12,13,15,27)   =         3.133425	     179.532048
	 D(12,14,16,17)   =         0.012616	       0.722846
	 D(12,14,16,28)   =        -3.133734	    -179.549759
	 D(13,12,14,16)   =        -0.012937	      -0.741241
	 D(13,12,14,26)   =         3.119298	     178.722626
	 D(13,15,17,16)   =         0.002291	       0.131281
	 D(13,15,17,29)   =        -3.141325	    -179.984665
	 D(14,12,13,15)   =         0.008090	       0.463503
	 D(14,12,13,25)   =         3.098763	     177.546040
	 D(14,16,17,15)   =        -0.007122	      -0.408074
	 D(14,16,17,29)   =         3.136494	     179.707883
	 D(15,17,16,28)   =         3.139237	     179.865041
	 D(16,17,15,27)   =        -3.134028	    -179.566597
	 D(17,15,13,25)   =        -3.093240	    -177.229616
	 D(17,16,14,26)   =        -3.119568	    -178.738101
	 D(18,20,19,31)   =        -3.129311	    -179.296308
	 D(19,20,18,30)   =         3.131861	     179.442397
	 D(20,18,4,21)    =         3.134434	     179.589865
	 D(20,19,6,22)    =        -3.108453	    -178.101220
	 D(21,4,18,30)    =        -0.008759	      -0.501866
	 D(22,6,19,31)    =         0.029984	       1.717943
	 D(23,8,10,24)    =        -0.016542	      -0.947815
	 D(23,8,11,33)    =        -0.002200	      -0.126077
	 D(25,13,15,27)   =         0.043095	       2.469137
	 D(26,14,16,28)   =         0.017266	       0.989294
	 D(27,15,17,29)   =         0.005541	       0.317457
	 D(28,16,17,29)   =        -0.000332	      -0.019002
	 D(30,18,20,34)   =        -0.004231	      -0.242397
	 D(31,19,20,34)   =         0.006781	       0.388537
	 D(32,9,11,33)    =        -0.002585	      -0.148090
	 R(2,24)          =         5.278031	       2.793014
	 R(3,13)          =         6.698483	       3.544684
	 R(6,12)          =         6.679003	       3.534376
	 R(6,13)          =         6.052505	       3.202848
	 R(9,14)          =         6.283903	       3.325298

	Current energy   :      -840.6226080225

	Generating empirical Hessian (Schlegel '84) for each fragment.
	Taking RFO optimization step.
	Going to follow RFO solution 1.
	Using RFO vector 1.
	Norm of target step-size    0.44087
	Projected energy change by RFO approximation:        -0.0115506968

	Back-transformation to cartesian coordinates...
	Could not converge backtransformation.
	Using first guess instead.

	Back-transformation to cartesian coordinates to adjust frozen coordinates...
	Successfully converged to displaced geometry.

	--- Internal Coordinate Step in ANG or DEG, aJ/ANG or AJ/DEG ---
	 ---------------------------------------------------------------------------
	   Coordinate                Previous        Force       Change         New 
	   ----------                --------       ------       ------       ------
	    1 H(5,24)         =      1.877907    -0.036727     0.008007     1.885913
	    2 R(1,2)          =      1.406621    -0.177477     0.318511     1.725132
	    3 R(1,7)          =      1.409410    -0.093350     0.025829     1.435239
	    4 R(1,12)         =      1.492505     0.053280     0.309038     1.801543
	    5 R(2,3)          =      1.427480    -0.041393     0.098987     1.526467
	    6 R(2,5)          =      1.037433    -0.111950     0.117176     1.154609
	    7 R(3,4)          =      1.430537    -0.162340     0.372081     1.802618
	    8 R(3,6)          =      1.418356    -0.137279     0.064062     1.482419
	    9 R(4,18)         =      1.400475    -0.104396     0.134028     1.534503
	   10 R(4,21)         =      1.093811    -0.062038     0.064222     1.158032
	   11 R(6,19)         =      1.403806    -0.078688     0.138656     1.542461
	   12 R(6,22)         =      1.080364    -0.036408     0.292161     1.372525
	   13 R(7,9)          =      1.448062     0.065719     0.320294     1.768356
	   14 R(7,10)         =      1.482948    -0.033022     0.249389     1.732337
	   15 R(8,10)         =      1.372609     0.026272     0.109669     1.482277
	   16 R(8,11)         =      1.394641     0.050452     0.400304     1.794946
	   17 R(8,23)         =      1.009508    -0.061897     0.095795     1.105303
	   18 R(9,11)         =      1.360807    -0.083693     0.048919     1.409726
	   19 R(9,32)         =      1.081478    -0.034629     0.263827     1.345305
	   20 R(10,24)        =      1.257416     0.063597     0.353025     1.610440
	   21 R(11,33)        =      1.080988    -0.035156     0.122741     1.203729
	   22 R(12,13)        =      1.415810    -0.113784     0.142632     1.558442
	   23 R(12,14)        =      1.420121    -0.106171     0.368277     1.788399
	   24 R(13,15)        =      1.400805    -0.081923     0.264417     1.665221
	   25 R(13,25)        =      1.091151    -0.059285     0.286518     1.377669
	   26 R(14,16)        =      1.400917    -0.078992     0.264438     1.665355
	   27 R(14,26)        =      1.092038    -0.058482     0.125900     1.217938
	   28 R(15,17)        =      1.408708    -0.121360     0.362272     1.770980
	   29 R(15,27)        =      1.091423    -0.056011     0.124149     1.215571
	   30 R(16,17)        =      1.408847    -0.127749     0.150250     1.559097
	   31 R(16,28)        =      1.091416    -0.056523     0.284002     1.375418
	   32 R(17,29)        =      1.091400    -0.057767     0.201774     1.293174
	   33 R(18,20)        =      1.405291    -0.092406     0.075329     1.480619
	   34 R(18,30)        =      1.091354    -0.055538     0.293148     1.384502
	   35 R(19,20)        =      1.406122    -0.122328     0.371835     1.777957
	   36 R(19,31)        =      1.091801    -0.057980     0.062061     1.153861
	   37 R(20,34)        =      1.091307    -0.057734     0.103199     1.194506
	   38 B(1,2,3)        =    140.253641     0.000221    -0.422456   139.831184
	   39 B(1,2,5)        =    109.656447    -0.000156    12.991042   122.647489
	   40 B(1,7,9)        =    130.156547    -0.000113    -7.328019   122.828528
	   41 B(1,7,10)       =    124.306835     0.000026    -5.999564   118.307271
	   42 B(1,12,13)      =    123.250022    -0.000094    -2.699241   120.550781
	   43 B(1,12,14)      =    118.190018     0.000251     3.572178   121.762196
	   44 B(2,1,7)        =    115.749881    -0.000223    -6.762165   108.987716
	   45 B(2,1,12)       =    124.117212     0.000279    11.832416   135.949628
	   46 B(2,3,4)        =    114.635927    -0.000338    -1.481418   113.154509
	   47 B(2,3,6)        =    128.159177     0.000069    -9.146929   119.012248
	   48 B(3,2,5)        =    110.089912    -0.000066   -12.593055    97.496856
	   49 B(3,4,18)       =    121.372519    -0.000006     3.275429   124.647948
	   50 B(3,4,21)       =    120.003100    -0.000240     9.426561   129.429660
	   51 B(3,6,19)       =    121.067592    -0.000205   -13.966215   107.101377
	   52 B(3,6,22)       =    122.216904    -0.000171     8.164277   130.381181
	   53 B(4,3,6)        =    117.129648     0.000270    10.661559   127.791206
	   54 B(4,18,20)      =    120.513669    -0.000040   -13.635004   106.878665
	   55 B(4,18,30)      =    119.342137    -0.000004     3.546878   122.889015
	   56 B(6,19,20)      =    120.940654     0.000064     3.742520   124.683174
	   57 B(6,19,31)      =    119.189299    -0.000092   -13.977540   105.211759
	   58 B(7,1,12)       =    115.130447     0.000077    -3.399760   111.730687
	   59 B(7,9,11)       =    108.168048     0.000130   -11.831580    96.336468
	   60 B(7,9,32)       =    126.655637    -0.000144     8.933584   135.589222
	   61 B(7,10,8)       =    106.115442    -0.000253   -11.152448    94.962994
	   62 B(7,10,24)      =    128.367384     0.000631    10.796790   139.164174
	   63 B(8,10,24)      =    125.514757    -0.000379     0.300218   125.814975
	   64 B(8,11,9)       =    109.696962    -0.000152     5.581384   115.278346
	   65 B(8,11,33)      =    120.243307     0.000176     5.948948   126.192255
	   66 B(9,7,10)       =    105.527422     0.000087    13.321576   118.848998
	   67 B(9,11,33)      =    130.059604    -0.000024   -11.532504   118.527100
	   68 B(10,8,11)      =    110.480664     0.000188     4.079979   114.560644
	   69 B(10,8,23)      =    122.288934    -0.000014   -11.225218   111.063716
	   70 B(11,8,23)      =    127.226991    -0.000174     7.132689   134.359680
	   71 B(11,9,32)      =    125.175398     0.000015     2.876115   128.051514
	   72 B(12,13,15)     =    120.869458     0.000061    -2.611429   118.258029
	   73 B(12,13,25)     =    119.194464    -0.000031    -0.751060   118.443404
	   74 B(12,14,16)     =    120.787188     0.000107     4.089803   124.876991
	   75 B(12,14,26)     =    119.331442    -0.000118    -1.092806   118.238636
	   76 B(13,12,14)     =    118.288943    -0.000170    -1.305266   116.983677
	   77 B(13,15,17)     =    120.315940     0.000028     3.857510   124.173450
	   78 B(13,15,27)     =    119.696805    -0.000037    -2.986137   116.710668
	   79 B(14,16,17)     =    120.283677    -0.000033    -3.175389   117.108288
	   80 B(14,16,28)     =    119.764865     0.000002     3.919790   123.684654
	   81 B(15,13,25)     =    119.871887    -0.000035     3.224926   123.096813
	   82 B(15,17,16)     =    119.450587     0.000006    -0.989687   118.460900
	   83 B(15,17,29)     =    120.270044    -0.000007     4.013047   124.283091
	   84 B(16,14,26)     =    119.879203     0.000012    -2.997459   116.881744
	   85 B(16,17,29)     =    120.279267     0.000001    -3.024258   117.255009
	   86 B(17,15,27)     =    119.986570     0.000008    -0.871566   119.115004
	   87 B(17,16,28)     =    119.950897     0.000031    -0.749736   119.201162
	   88 B(18,4,21)      =    118.622696     0.000246   -12.709631   105.913065
	   89 B(18,20,19)     =    118.923554    -0.000083     9.890929   128.814483
	   90 B(18,20,34)     =    120.545559     0.000044   -13.467087   107.078472
	   91 B(19,6,22)      =    116.711117     0.000376     5.794608   122.505725
	   92 B(19,20,34)     =    120.530128     0.000039     3.575560   124.105688
	   93 B(20,18,30)     =    120.144130     0.000044    10.077611   130.221742
	   94 B(20,19,31)     =    119.869801     0.000028    10.235094   130.104895
	   95 *D(1,2,3,4)     =   -151.330362     0.000000     0.000000  -151.330362
	   96 D(1,2,3,6)      =     25.392966     0.000010     1.101015    26.493981
	   97 D(1,7,9,11)     =    178.246549     0.000013     1.393662   179.640211
	   98 D(1,7,9,32)     =     -1.417785    -0.000005    -0.661720    -2.079505
	   99 D(1,7,10,8)     =   -177.956826    -0.000012    -1.220530  -179.177356
	  100 D(1,7,10,24)    =      2.590212     0.000003     1.105007     3.695219
	  101 D(1,12,13,15)   =    174.367752     0.000006     0.374097   174.741849
	  102 D(1,12,13,25)   =     -8.549711    -0.000018    -1.707893   -10.257604
	  103 D(1,12,14,16)   =   -174.958498     0.000003     0.311203  -174.647295
	  104 D(1,12,14,26)   =      4.505370     0.000013     1.457077     5.962447
	  105 D(2,1,7,9)      =    162.370807     0.000073     7.658327   170.029134
	  106 D(2,1,7,10)     =    -18.897362     0.000072     7.490340   -11.407022
	  107 *D(2,1,12,13)   =    -43.371834     0.000000    -0.000000   -43.371834
	  108 D(2,1,12,14)    =    130.538087    -0.000036    -3.810727   126.727359
	  109 D(2,3,4,18)     =    179.566909     0.000015     2.053115   181.620025
	  110 D(2,3,4,21)     =     -0.911932     0.000011     1.260117     0.348184
	  111 D(2,3,6,19)     =   -179.237805    -0.000004    -0.795871  -180.033677
	  112 D(2,3,6,22)     =     -0.024928    -0.000009    -1.255811    -1.280739
	  113 *D(3,2,1,7)     =   -166.017403    -0.000000     0.000000  -166.017403
	  114 D(3,2,1,12)     =    -12.341463     0.000077     3.079946    -9.261517
	  115 D(3,4,18,20)    =     -0.882542    -0.000010    -1.286298    -2.168840
	  116 D(3,4,18,30)    =    179.025727    -0.000000    -0.121350   178.904377
	  117 D(3,6,19,20)    =      1.153293    -0.000008    -0.684839     0.468454
	  118 D(3,6,19,31)    =   -179.027544    -0.000007    -0.641864  -179.669408
	  119 D(4,3,2,5)      =     28.682349    -0.000005    -1.934089    26.748260
	  120 D(4,3,6,19)     =     -2.584501     0.000002     0.019252    -2.565249
	  121 D(4,3,6,22)     =    176.628376    -0.000003    -0.440687   176.187689
	  122 D(4,18,20,19)   =     -0.650070     0.000006     0.822449     0.172379
	  123 D(4,18,20,34)   =    179.665135     0.000008     0.923023   180.588158
	  124 D(5,2,1,7)      =     13.969920     0.000005     2.275241    16.245161
	  125 D(5,2,1,12)     =    167.645860     0.000082     5.355187   173.001047
	  126 D(5,2,3,6)      =   -154.594322     0.000005    -0.833074  -155.427396
	  127 D(6,3,4,18)     =      2.461511     0.000008     1.566297     4.027809
	  128 D(6,3,4,21)     =   -178.017330     0.000004     0.773299  -177.244032
	  129 D(6,19,20,18)   =      0.521634     0.000003     0.323204     0.844839
	  130 D(6,19,20,34)   =   -179.793521     0.000000     0.158355  -179.635165
	  131 D(7,1,12,13)    =    110.449427     0.000061     2.492693   112.942121
	  132 D(7,1,12,14)    =    -75.640652     0.000025    -1.318034   -76.958686
	  133 D(7,9,11,8)     =      0.048759    -0.000011    -1.107691    -1.058932
	  134 D(7,9,11,33)    =   -179.818648    -0.000018    -1.757632  -181.576280
	  135 D(7,10,8,11)    =     -1.047773     0.000007     0.920582    -0.127191
	  136 D(7,10,8,23)    =    179.579115     0.000013     1.534867   181.113981
	  137 D(8,10,7,9)     =      1.037246    -0.000014    -1.592379    -0.555133
	  138 D(8,11,9,32)    =    179.719316     0.000007     0.749982   180.469298
	  139 D(9,7,1,12)     =      6.293962    -0.000012     0.915974     7.209936
	  140 D(9,7,10,24)    =   -178.415716     0.000002     0.733157  -177.682559
	  141 D(9,11,8,10)    =      0.656957     0.000002     0.287985     0.944942
	  142 D(9,11,8,23)    =    179.991395    -0.000004    -0.666536   179.324859
	  143 D(10,7,1,12)    =   -174.974208    -0.000013     0.747988  -174.226220
	  144 D(10,7,9,11)    =     -0.666246     0.000014     1.750031     1.083785
	  145 D(10,7,9,32)    =    179.669420    -0.000004    -0.305351   179.364069
	  146 D(10,8,11,33)   =   -179.460515     0.000008     0.968674  -178.491841
	  147 D(11,8,10,24)   =    178.425297    -0.000006    -0.868505   177.556792
	  148 D(12,13,15,17)  =     -0.166705    -0.000023    -2.509368    -2.676072
	  149 D(12,13,15,27)  =    179.532048    -0.000017    -1.863249   177.668800
	  150 D(12,14,16,17)  =      0.722846     0.000012     1.270135     1.992981
	  151 D(12,14,16,28)  =   -179.549759     0.000006     0.650408  -178.899351
	  152 D(13,12,14,16)  =     -0.741241    -0.000030    -3.470848    -4.212089
	  153 D(13,12,14,26)  =    178.722626    -0.000020    -2.324973   176.397653
	  154 D(13,15,17,16)  =      0.131281     0.000003     0.280379     0.411660
	  155 D(13,15,17,29)  =   -179.984665     0.000007     0.770763  -179.213902
	  156 D(14,12,13,15)  =      0.463503     0.000036     3.720527     4.184030
	  157 D(14,12,13,25)  =    177.546040     0.000012     1.638538   179.184578
	  158 D(14,16,17,15)  =     -0.408074     0.000003     0.281674    -0.126399
	  159 D(14,16,17,29)  =    179.707883    -0.000002    -0.182305   179.525578
	  160 D(15,17,16,28)  =    179.865041     0.000008     0.859172   180.724213
	  161 D(16,17,15,27)  =   -179.566597    -0.000002    -0.374369  -179.940966
	  162 D(17,15,13,25)  =   -177.229616     0.000001    -0.198432  -177.428048
	  163 D(17,16,14,26)  =   -178.738101     0.000002     0.128831  -178.609270
	  164 D(18,20,19,31)  =   -179.296308     0.000001     0.315075  -178.981233
	  165 D(19,20,18,30)  =    179.442397    -0.000004    -0.450316   178.992082
	  166 D(20,18,4,21)   =    179.589865    -0.000006    -0.737213   178.852652
	  167 D(20,19,6,22)   =   -178.101220    -0.000002    -0.303924  -178.405144
	  168 D(21,4,18,30)   =     -0.501866     0.000004     0.427735    -0.074131
	  169 D(22,6,19,31)   =      1.717943    -0.000001    -0.260949     1.456994
	  170 D(23,8,10,24)   =     -0.947815    -0.000000    -0.254220    -1.202035
	  171 D(23,8,11,33)   =     -0.126077     0.000003     0.014153    -0.111924
	  172 D(25,13,15,27)  =      2.469137     0.000006     0.447687     2.916824
	  173 D(26,14,16,28)  =      0.989294    -0.000004    -0.490896     0.498397
	  174 D(27,15,17,29)  =      0.317457     0.000002     0.116015     0.433472
	  175 D(28,16,17,29)  =     -0.019002     0.000004     0.395193     0.376190
	  176 D(30,18,20,34)  =     -0.242397    -0.000002    -0.349742    -0.592139
	  177 D(31,19,20,34)  =      0.388537    -0.000001     0.150226     0.538763
	  178 D(32,9,11,33)   =     -0.148090     0.000000     0.100041    -0.048049
	  179 R(2,24)         =      2.793014    -0.024971     0.107040     2.900054
	  180 R(3,13)         =      3.544684    -0.052781     0.943239     4.487923
	  181 R(6,12)         =      3.534376    -0.051761     0.618741     4.153117
	  182 R(6,13)         =      3.202848     0.020681     0.744503     3.947351
	  183 R(9,14)         =      3.325298    -0.058359     0.234388     3.559686
	 ---------------------------------------------------------------------------
	Successfully symmetrized geometry.

  ==> Convergence Check <==

  Measures of convergence in internal coordinates in au.
  Criteria marked as inactive (o), active & met (*), and active & unmet ( ).
  --------------------------------------------------------------------------------------------- ~
   Step     Total Energy     Delta E     MAX Force     RMS Force      MAX Disp      RMS Disp    ~
  --------------------------------------------------------------------------------------------- ~
    Convergence Criteria             o    2.50e-03 *    1.70e-03 *    1.00e-02 *    6.70e-03 *  ~
  --------------------------------------------------------------------------------------------- ~
      1    -840.62260802   -8.41e+02 o    2.15e-02      4.98e-03      1.78e+00      2.86e-01    ~
  ---------------------------------------------------------------------------------------------

	Writing optimization data to binary file.
	Structure for next step:
	Cartesian Geometry (in Angstrom)
	    C    -0.5491510412  -0.2965180435   0.1326669273
	    N     0.8740390410   0.0355597203   1.0493652462
	    C     2.2750261424   0.6115562761   0.8607817780
	    C     3.4808058668  -0.0639032109   2.0180557512
	    H     0.9684253365  -0.2263724165   2.1699026627
	    C     2.5114007484   1.5838936947  -0.2329515412
	    C    -1.6351727010  -0.5567370326   1.0341963927
	    N    -2.6789143153  -1.0239474808   3.1162024048
	    C    -3.3154777100  -0.6867735899   0.4987062809
	    C    -1.2723711404  -0.7881706820   2.7122325618
	    C    -3.8650134888  -0.9426987947   1.7714354991
	    C    -1.1366295825   0.0797908360  -1.5283018406
	    C    -0.9486469128   1.5045420877  -2.1312015102
	    C    -1.7103787713  -1.2011240216  -2.6366512757
	    C    -1.3916633185   1.7543741226  -3.7168504331
	    C    -2.1490271501  -0.9598554699  -4.2249786555
	    C    -2.0029284425   0.4856401287  -4.7906473744
	    C     4.9553909039   0.3553555757   2.0852808947
	    C     4.0003865092   1.9818954117  -0.1721021224
	    C     5.1700502220   1.3467336737   1.0067055748
	    H     3.3369682759  -0.8538923694   2.8524818575
	    H     1.6539019466   2.0787867222  -1.1835311232
	    H    -2.7564749382  -1.1915314853   4.2059704609
	    O    -0.0025478701  -0.7435144253   3.7017136119
	    H    -0.5241502289   2.5179688045  -1.3000930441
	    H    -1.8014523890  -2.3369797204  -2.2066395553
	    H    -1.2740427333   2.8858611338  -4.1452378997
	    H    -2.6080683131  -1.9600775448  -5.0499712428
	    H    -2.3338420934   0.6742264132  -6.0264584944
	    H     5.8458437766  -0.1722897070   3.0048077067
	    H     4.1462598600   2.7405410958  -1.0291749689
	    H    -3.9622959926  -0.5654990771  -0.6746501992
	    H    -5.0576178873  -1.0754026537   1.8665605693
	    H     6.3200639187   1.6670086310   1.0483970555
			--------------------------
			 OPTKING Finished Execution 
			--------------------------

    Structure for next step:
    Molecular point group: c1
    Full point group: C1

    Geometry (in Angstrom), charge = 0, multiplicity = 1:

    C           -0.570719996420    -0.407075070357     0.043934837638
    N            0.852470091327    -0.074997305214     0.960633160138
    C            2.253457198279     0.500999252790     0.772049691183
    C            3.459236927423    -0.174460236817     1.929323668906
    H            0.946856387216    -0.336929443108     2.081170581070
    C            2.489831805181     1.473336675262    -0.321683632286
    C           -1.656741660453    -0.667294060427     0.945464306598
    N           -2.700483278880    -1.134504510531     3.027470326822
    C           -3.337046676095    -0.797330618273     0.409974192632
    C           -1.293940098443    -0.898727710810     2.623500482242
    C           -3.886582457098    -1.053255824044     1.682703415847
    C           -1.158198539979    -0.030766189375    -1.617033936754
    C           -0.970215869631     1.393985067905    -2.219933608773
    C           -1.731947731062    -1.311681052014    -2.725383376251
    C           -1.413232277004     1.643817103775    -3.805582537840
    C           -2.170596111633    -1.070412499351    -4.313710762311
    C           -2.024497403414     0.375083104909    -4.879379483392
    C            4.933821970305     0.244798551411     1.996548812718
    C            3.978817571842     1.871338393770    -0.260834213298
    C            5.148481289284     1.236176653343     0.917973488542
    H            3.315399335971    -0.964449398403     2.763749778531
    H            1.632333000032     1.968229704688    -1.272263218052
    H           -2.778043902143    -1.302088515703     4.117238387248
    O           -0.024116823135    -0.854071453872     3.612981536312
    H           -0.545719183994     2.407411788708    -1.388825139372
    H           -1.823021349138    -2.447536755238    -2.295371654131
    H           -1.295611691328     2.775304119496    -4.233970006211
    H           -2.629637276450    -2.070634578196    -5.138703352786
    H           -2.355411055626     0.563669390153    -6.115190608263
    H            5.824274846527    -0.282846733372     2.916075628346
    H            4.124690923254     2.629984080868    -1.117907063111
    H           -3.983864961229    -0.676056105018    -0.763382292014
    H           -5.079186860238    -1.185959683629     1.777828486471
    H            6.298494990524     1.556451611836     0.959664969409


Scratch directory: /scratch/bdw2292/Psi4-1_16_Index_0-farH_in17/

Scratch directory: /scratch/bdw2292/Psi4-1_16_Index_0-farH_in17/
gradient() will perform analytic gradient computation.

*** tstart() called on node74.bme.utexas.edu
*** at Wed Jun  8 16:52:56 2022

   => Loading Basis Set <=

    Name: 6-311G
    Role: ORBITAL
    Keyword: BASIS
    atoms 1, 3-4, 6-7, 9-20 entry C          line    92 file /home/bdw2292/miniconda3/envs/newamoebamdpoltype/share/psi4/basis/6-311g.gbs 
    atoms 2, 8              entry N          line   109 file /home/bdw2292/miniconda3/envs/newamoebamdpoltype/share/psi4/basis/6-311g.gbs 
    atoms 5, 21-23, 25-34   entry H          line    21 file /home/bdw2292/miniconda3/envs/newamoebamdpoltype/share/psi4/basis/6-311g.gbs 
    atoms 24                entry O          line   126 file /home/bdw2292/miniconda3/envs/newamoebamdpoltype/share/psi4/basis/6-311g.gbs 

   => WB97X-D: Empirical Dispersion <=

    Chai and Head-Gordon Dispersion Correction
    Chai, J.-D.; Head-Gordon, M. (2010), J. Chem. Phys., 132: 6615-6620

        s6 =       1.000000


         ---------------------------------------------------------
                                   SCF
               by Justin Turney, Rob Parrish, Andy Simmonett
                          and Daniel G. A. Smith
                              RKS Reference
                        2 Threads,   7788 MiB Core
         ---------------------------------------------------------

  ==> Geometry <==

    Molecular point group: c1
    Full point group: C1

    Geometry (in Angstrom), charge = 0, multiplicity = 1:

       Center              X                  Y                   Z               Mass       
    ------------   -----------------  -----------------  -----------------  -----------------
         C           -0.570719996420    -0.407075070357     0.043934837638    12.000000000000
         N            0.852470091327    -0.074997305214     0.960633160138    14.003074004430
         C            2.253457198279     0.500999252790     0.772049691183    12.000000000000
         C            3.459236927423    -0.174460236817     1.929323668906    12.000000000000
         H            0.946856387216    -0.336929443108     2.081170581070     1.007825032230
         C            2.489831805181     1.473336675262    -0.321683632286    12.000000000000
         C           -1.656741660453    -0.667294060427     0.945464306598    12.000000000000
         N           -2.700483278880    -1.134504510531     3.027470326822    14.003074004430
         C           -3.337046676095    -0.797330618273     0.409974192632    12.000000000000
         C           -1.293940098443    -0.898727710810     2.623500482242    12.000000000000
         C           -3.886582457098    -1.053255824044     1.682703415847    12.000000000000
         C           -1.158198539979    -0.030766189375    -1.617033936754    12.000000000000
         C           -0.970215869631     1.393985067905    -2.219933608773    12.000000000000
         C           -1.731947731062    -1.311681052014    -2.725383376251    12.000000000000
         C           -1.413232277004     1.643817103775    -3.805582537840    12.000000000000
         C           -2.170596111633    -1.070412499351    -4.313710762311    12.000000000000
         C           -2.024497403414     0.375083104909    -4.879379483392    12.000000000000
         C            4.933821970305     0.244798551411     1.996548812718    12.000000000000
         C            3.978817571842     1.871338393770    -0.260834213298    12.000000000000
         C            5.148481289284     1.236176653343     0.917973488542    12.000000000000
         H            3.315399335971    -0.964449398403     2.763749778531     1.007825032230
         H            1.632333000032     1.968229704688    -1.272263218052     1.007825032230
         H           -2.778043902143    -1.302088515703     4.117238387248     1.007825032230
         O           -0.024116823135    -0.854071453872     3.612981536312    15.994914619570
         H           -0.545719183994     2.407411788708    -1.388825139372     1.007825032230
         H           -1.823021349138    -2.447536755238    -2.295371654131     1.007825032230
         H           -1.295611691328     2.775304119496    -4.233970006211     1.007825032230
         H           -2.629637276450    -2.070634578196    -5.138703352786     1.007825032230
         H           -2.355411055626     0.563669390153    -6.115190608263     1.007825032230
         H            5.824274846527    -0.282846733372     2.916075628346     1.007825032230
         H            4.124690923254     2.629984080868    -1.117907063111     1.007825032230
         H           -3.983864961229    -0.676056105018    -0.763382292014     1.007825032230
         H           -5.079186860238    -1.185959683629     1.777828486471     1.007825032230
         H            6.298494990524     1.556451611836     0.959664969409     1.007825032230

  Running in c1 symmetry.

  Rotational constants: A =      0.01090  B =      0.00706  C =      0.00457 [cm^-1]
  Rotational constants: A =    326.82077  B =    211.55048  C =    137.08476 [MHz]
  Nuclear repulsion = 1226.154602411785163

  Charge       = 0
  Multiplicity = 1
  Electrons    = 138
  Nalpha       = 69
  Nbeta        = 69

  ==> Algorithm <==

  SCF Algorithm Type is DF.
  DIIS enabled.
  MOM disabled.
  Fractional occupation disabled.
  Guess Type is READ.
  Energy threshold   = 1.00e-08
  Density threshold  = 1.00e-08
  Integral threshold = 1.00e-12

  ==> Primary Basis <==

  Basis Set: 6-311G
    Blend: 6-311G
    Number of shells: 182
    Number of basis functions: 302
    Number of Cartesian functions: 302
    Spherical Harmonics?: true
    Max angular momentum: 1

  ==> DFT Potential <==

   => LibXC <=

    Version 5.1.5
    S. Lehtola, C. Steigemann, M. J. Oliveira, and M. A. Marques, SoftwareX 7, 1 (2018) (10.1016/j.softx.2017.11.002)

   => Composite Functional: WB97X-D <= 

    wB97X-D Hyb-GGA Exchange-Correlation Functional

    J.-D. Chai and M. Head-Gordon, Phys. Chem. Chem. Phys. 10, 6615 (2008) (10.1039/B810189B)

    Deriv               =              1
    GGA                 =           TRUE
    Meta                =          FALSE

    Exchange Hybrid     =           TRUE
    MP2 Hybrid          =          FALSE

   => Exchange-Correlation Functionals <=

    1.0000   wB97X-D range-separated functional

   => Exact (HF) Exchange <=

    0.7780            HF,LR [omega = 0.2000]
    0.2220               HF 

   => LibXC Density Thresholds  <==

    XC_HYB_GGA_XC_WB97X_D:  1.00E-14 

   => Molecular Quadrature <=

    Radial Scheme          =       TREUTLER
    Pruning Scheme         =           NONE
    Nuclear Scheme         =       TREUTLER

    BS radius alpha        =              1
    Pruning alpha          =              1
    Radial Points          =             75
    Spherical Points       =            302
    Total Points           =         711065
    Total Blocks           =           5078
    Max Points             =            256
    Max Functions          =            196
    Weights Tolerance      =       1.00E-15

   => Loading Basis Set <=

    Name: (6-311G AUX)
    Role: JKFIT
    Keyword: DF_BASIS_SCF
    atoms 1, 3-4, 6-7, 9-20 entry C          line   125 file /home/bdw2292/miniconda3/envs/newamoebamdpoltype/share/psi4/basis/cc-pvtz-jkfit.gbs 
    atoms 2, 8              entry N          line   177 file /home/bdw2292/miniconda3/envs/newamoebamdpoltype/share/psi4/basis/cc-pvtz-jkfit.gbs 
    atoms 5, 21-23, 25-34   entry H          line    51 file /home/bdw2292/miniconda3/envs/newamoebamdpoltype/share/psi4/basis/cc-pvtz-jkfit.gbs 
    atoms 24                entry O          line   229 file /home/bdw2292/miniconda3/envs/newamoebamdpoltype/share/psi4/basis/cc-pvtz-jkfit.gbs 

   => Loading Basis Set <=

    Name: 6-311G
    Role: ORBITAL
    Keyword: BASIS
    atoms 1, 3-4, 6-7, 9-20 entry C          line    92 file /home/bdw2292/miniconda3/envs/newamoebamdpoltype/share/psi4/basis/6-311g.gbs 
    atoms 2, 8              entry N          line   109 file /home/bdw2292/miniconda3/envs/newamoebamdpoltype/share/psi4/basis/6-311g.gbs 
    atoms 5, 21-23, 25-34   entry H          line    21 file /home/bdw2292/miniconda3/envs/newamoebamdpoltype/share/psi4/basis/6-311g.gbs 
    atoms 24                entry O          line   126 file /home/bdw2292/miniconda3/envs/newamoebamdpoltype/share/psi4/basis/6-311g.gbs 

  Reading orbitals from file /scratch/bdw2292/Psi4-1_16_Index_0-farH_in17/1_16_Index_0-opt-1_1-12-319.default.1156425.180.npy, no projection.

  ==> Integral Setup <==

  DFHelper Memory: AOs need 2.813 GiB; user supplied 3.175 GiB. Using in-core AOs.

  ==> MemDFJK: Density-Fitted J/K Matrices <==

    J tasked:                   Yes
    K tasked:                   Yes
    wK tasked:                  Yes
    Omega:                2.000E-01
    OpenMP threads:               2
    Memory [MiB]:              3250
    Algorithm:                 Core
    Schwarz Cutoff:           1E-12
    Mask sparsity (%):      32.2135
    Fitting Condition:        1E-10

   => Auxiliary Basis Set <=

  Basis Set: (6-311G AUX)
    Blend: CC-PVTZ-JKFIT
    Number of shells: 640
    Number of basis functions: 2000
    Number of Cartesian functions: 2410
    Spherical Harmonics?: true
    Max angular momentum: 4

  Cached 100.0% of DFT collocation blocks in 2.530 [GiB].

  Minimum eigenvalue in the overlap matrix is 1.6155865647E-03.
  Reciprocal condition number of the overlap matrix is 2.9828628784E-04.
    Using symmetric orthogonalization.

  ==> Pre-Iterations <==

  SCF Guess: Orbitals guess was supplied from a previous computation.

   -------------------------------------------------------
    Irrep   Nso     Nmo     Nalpha   Nbeta   Ndocc  Nsocc
   -------------------------------------------------------
     A        302     302      69      69      69       0
   -------------------------------------------------------
    Total     302     302      69      69      69       0
   -------------------------------------------------------

  ==> Iterations <==

                           Total Energy        Delta E     RMS |[F,P]|

   @DF-RKS iter   0:  -830.13040709058816   -8.30130e+02   8.73749e-03 
   @DF-RKS iter   1:  -837.27767853586522   -7.14727e+00   5.66597e-03 DIIS
   @DF-RKS iter   2:  -821.10608432764934    1.61716e+01   1.44454e-02 DIIS
   @DF-RKS iter   3:  -838.94024090271591   -1.78342e+01   2.83796e-03 DIIS
   @DF-RKS iter   4:  -839.26936251466304   -3.29122e-01   2.18580e-03 DIIS
   @DF-RKS iter   5:  -839.43319261131001   -1.63830e-01   9.23567e-04 DIIS
   @DF-RKS iter   6:  -839.46724698843207   -3.40544e-02   2.39951e-04 DIIS
   @DF-RKS iter   7:  -839.47057180399122   -3.32482e-03   1.16530e-04 DIIS
   @DF-RKS iter   8:  -839.47164948266027   -1.07768e-03   3.87008e-05 DIIS
   @DF-RKS iter   9:  -839.47185451892062   -2.05036e-04   2.60315e-05 DIIS
   @DF-RKS iter  10:  -839.47191665128514   -6.21324e-05   7.60052e-06 DIIS
   @DF-RKS iter  11:  -839.47192494923286   -8.29795e-06   4.01957e-06 DIIS
   @DF-RKS iter  12:  -839.47192837340037   -3.42417e-06   1.81559e-06 DIIS
   @DF-RKS iter  13:  -839.47192926539810   -8.91998e-07   1.15632e-06 DIIS
[...]
	   27 R(14,26)        =      1.079064     0.000180    -0.000086     1.078978
	   28 R(15,17)        =      1.389812    -0.000761    -0.000186     1.389626
	   29 R(15,27)        =      1.081277     0.000008    -0.000092     1.081186
	   30 R(16,17)        =      1.392362     0.000514    -0.000055     1.392307
	   31 R(16,28)        =      1.081363    -0.000067    -0.000041     1.081322
	   32 R(17,29)        =      1.081219     0.000179     0.000093     1.081312
	   33 R(18,20)        =      1.394144    -0.000780    -0.000083     1.394061
	   34 R(18,30)        =      1.081196     0.000388     0.000069     1.081265
	   35 R(19,20)        =      1.391646     0.000711     0.000084     1.391730
	   36 R(19,31)        =      1.081590    -0.000322    -0.000078     1.081512
	   37 R(20,34)        =      1.080901    -0.000063    -0.000020     1.080881
	   38 B(1,2,3)        =    135.714876    -0.000004    -0.093648   135.621228
	   39 B(1,2,5)        =    111.079873     0.000001     0.046837   111.126709
	   40 B(1,7,9)        =    130.966782     0.000001     0.000907   130.967690
	   41 B(1,7,10)       =    122.699036     0.000001     0.003133   122.702169
	   42 B(1,12,13)      =    126.876854     0.000015     0.041682   126.918536
	   43 B(1,12,14)      =    115.525239    -0.000015    -0.035827   115.489412
	   44 B(2,1,7)        =    116.251438    -0.000008    -0.013283   116.238155
	   45 B(2,1,12)       =    124.028455    -0.000003     0.008365   124.036820
	   46 B(2,3,4)        =    116.153850    -0.000006     0.013361   116.167211
	   47 B(2,3,6)        =    123.990216    -0.000006    -0.108104   123.882112
	   48 B(3,2,5)        =    112.660023     0.000003     0.043405   112.703428
	   49 B(3,4,18)       =    120.776659     0.000001    -0.006141   120.770518
	   50 B(3,4,21)       =    118.755711     0.000001     0.012518   118.768229
	   51 B(3,6,19)       =    120.533014    -0.000012    -0.034289   120.498725
	   52 B(3,6,22)       =    119.935939     0.000019     0.056622   119.992562
	   53 B(4,3,6)        =    118.249697     0.000009     0.021088   118.270785
	   54 B(4,18,20)      =    120.323444    -0.000005    -0.015105   120.308339
	   55 B(4,18,30)      =    119.474565     0.000002     0.003225   119.477791
	   56 B(6,19,20)      =    120.512686     0.000008     0.018255   120.530941
	   57 B(6,19,31)      =    119.336162    -0.000006    -0.019216   119.316946
	   58 B(7,1,12)       =    119.001472     0.000009    -0.020009   118.981463
	   59 B(7,9,11)       =    107.894272    -0.000000     0.001899   107.896171
	   60 B(7,9,32)       =    126.319990     0.000004     0.019720   126.339710
	   61 B(7,10,8)       =    106.043220    -0.000003    -0.007882   106.035337
	   62 B(7,10,24)      =    128.810570     0.000010     0.010198   128.820768
	   63 B(8,10,24)      =    125.143610    -0.000007    -0.008708   125.134902
	   64 B(8,11,9)       =    109.239898     0.000003    -0.002410   109.237488
	   65 B(8,11,33)      =    120.759946    -0.000000     0.001292   120.761238
	   66 B(9,7,10)       =    106.286868    -0.000002    -0.006022   106.280846
	   67 B(9,11,33)      =    129.985714    -0.000002     0.002326   129.988039
	   68 B(10,8,11)      =    110.520306     0.000001     0.005696   110.526001
	   69 B(10,8,23)      =    122.891764     0.000001     0.005733   122.897497
	   70 B(11,8,23)      =    126.575789    -0.000002    -0.012807   126.562982
	   71 B(11,9,32)      =    125.710559    -0.000003    -0.017131   125.693428
	   72 B(12,13,15)     =    121.245414    -0.000003     0.002238   121.247652
	   73 B(12,13,25)     =    121.006449     0.000016     0.032306   121.038756
	   74 B(12,14,16)     =    121.634198    -0.000000     0.008316   121.642514
	   75 B(12,14,26)     =    119.144114    -0.000001    -0.014515   119.129599
	   76 B(13,12,14)     =    117.083712    -0.000001    -0.021905   117.061807
	   77 B(13,15,17)     =    120.706388    -0.000001     0.003226   120.709614
	   78 B(13,15,27)     =    119.129602     0.000002     0.010507   119.140108
	   79 B(14,16,17)     =    120.204280     0.000002     0.007851   120.212131
	   80 B(14,16,28)     =    119.457922    -0.000001     0.001550   119.459473
	   81 B(15,13,25)     =    117.709092    -0.000013    -0.040495   117.668597
	   82 B(15,17,16)     =    119.048287     0.000004    -0.002692   119.045595
	   83 B(15,17,29)     =    120.452434    -0.000003    -0.003879   120.448556
	   84 B(16,14,26)     =    119.194876     0.000001     0.005583   119.200459
	   85 B(16,17,29)     =    120.494897    -0.000001     0.006458   120.501355
	   86 B(17,15,27)     =    120.163119    -0.000000    -0.013615   120.149504
	   87 B(17,16,28)     =    120.328069    -0.000001    -0.009594   120.318476
	   88 B(18,4,21)      =    120.446767    -0.000003    -0.007809   120.438958
	   89 B(18,20,19)     =    119.188386    -0.000002    -0.001121   119.187265
	   90 B(18,20,34)     =    120.414079     0.000000    -0.001864   120.412215
	   91 B(19,6,22)      =    119.337686    -0.000009    -0.036355   119.301331
	   92 B(19,20,34)     =    120.363743     0.000001    -0.000930   120.362813
	   93 B(20,18,30)     =    120.198990     0.000003     0.011700   120.210690
	   94 B(20,19,31)     =    120.099093    -0.000002    -0.000816   120.098276
	   95 *D(1,2,3,4)     =   -151.330362    -0.000000     0.000000  -151.330362
	   96 D(1,2,3,6)      =     43.413617     0.000003     0.323137    43.736755
	   97 D(1,7,9,11)     =   -177.868782    -0.000001    -0.168998  -178.037780
	   98 D(1,7,9,32)     =     -0.888854    -0.000000    -0.078181    -0.967035
	   99 D(1,7,10,8)     =    178.759137     0.000002     0.280194   179.039331
	  100 D(1,7,10,24)    =     -1.811307    -0.000002    -0.210224    -2.021531
	  101 D(1,12,13,15)   =    174.573206    -0.000001    -0.066218   174.506988
	  102 D(1,12,13,25)   =     -7.751718    -0.000002    -0.238001    -7.989718
	  103 D(1,12,14,16)   =   -175.341626     0.000000     0.069271  -175.272355
	  104 D(1,12,14,26)   =      2.759220     0.000001     0.047704     2.806924
	  105 D(2,1,7,9)      =    174.810616     0.000001     0.107769   174.918385
	  106 D(2,1,7,10)     =     -2.327435     0.000002     0.167211    -2.160224
	  107 *D(2,1,12,13)   =    -43.371834     0.000000    -0.000000   -43.371834
	  108 D(2,1,12,14)    =    128.105136    -0.000002    -0.133858   127.971277
	  109 D(2,3,4,18)     =   -172.744931     0.000002     0.143919  -172.601013
	  110 D(2,3,4,21)     =      8.909247     0.000002     0.199867     9.109114
	  111 D(2,3,6,19)     =    172.406352    -0.000003    -0.210995   172.195357
	  112 D(2,3,6,22)     =     -2.507367     0.000000    -0.028358    -2.535725
	  113 *D(3,2,1,7)     =   -166.017403     0.000000     0.000000  -166.017403
	  114 D(3,2,1,12)     =     23.821167     0.000002     0.169895    23.991062
	  115 D(3,4,18,20)    =      1.762846     0.000001     0.099484     1.862330
	  116 D(3,4,18,30)    =   -178.866055     0.000000     0.081082  -178.784973
	  117 D(3,6,19,20)    =     -3.466834     0.000001     0.017201    -3.449633
	  118 D(3,6,19,31)    =    179.154514     0.000001     0.061584   179.216098
	  119 D(4,3,2,5)      =     38.183737    -0.000001     0.021674    38.205411
	  120 D(4,3,6,19)     =      7.436726     0.000001     0.120035     7.556761
	  121 D(4,3,6,22)     =   -167.476993     0.000004     0.302672  -167.174321
	  122 D(4,18,20,19)   =      2.360436     0.000000     0.038788     2.399223
	  123 D(4,18,20,34)   =   -179.746098    -0.000001    -0.079877  -179.825975
	  124 D(5,2,1,7)      =      4.574202     0.000001    -0.021418     4.552784
	  125 D(5,2,1,12)     =   -165.587229     0.000003     0.148477  -165.438752
	  126 D(5,2,3,6)      =   -127.072284     0.000003     0.344812  -126.727472
	  127 D(6,3,4,18)     =     -6.604690    -0.000002    -0.180243    -6.784933
	  128 D(6,3,4,21)     =    175.049488    -0.000002    -0.124295   174.925193
	  129 D(6,19,20,18)   =     -1.517479    -0.000001    -0.096982    -1.614461
	  130 D(6,19,20,34)   =   -179.412031    -0.000000     0.021643  -179.390388
	  131 D(7,1,12,13)    =    146.719665     0.000003     0.173534   146.893200
	  132 D(7,1,12,14)    =    -41.803365     0.000001     0.039676   -41.763689
	  133 D(7,9,11,8)     =     -0.399137     0.000000     0.029773    -0.369364
	  134 D(7,9,11,33)    =    178.198791     0.000001     0.089654   178.288445
	  135 D(7,10,8,11)    =     -1.288505    -0.000003    -0.320500    -1.609005
	  136 D(7,10,8,23)    =    179.903413    -0.000002    -0.254513   179.648900
	  137 D(8,10,7,9)     =      1.010157     0.000003     0.326829     1.336987
	  138 D(8,11,9,32)    =   -177.402349    -0.000001    -0.061704  -177.464052
	  139 D(9,7,1,12)     =    -14.507483    -0.000001    -0.050175   -14.557658
	  140 D(9,7,10,24)    =   -179.560286    -0.000001    -0.163589  -179.723875
	  141 D(9,11,8,10)    =      1.093541     0.000001     0.189090     1.282630
	  142 D(9,11,8,23)    =    179.847250     0.000001     0.120395   179.967645
	  143 D(10,7,1,12)    =    168.354467    -0.000000     0.009266   168.363733
	  144 D(10,7,9,11)    =     -0.377618    -0.000002    -0.220927    -0.598545
	  145 D(10,7,9,32)    =    176.602310    -0.000001    -0.130110   176.472201
	  146 D(10,8,11,33)   =   -177.656337     0.000001     0.135676  -177.520661
	  147 D(11,8,10,24)   =    179.255087     0.000001     0.146577   179.401664
	  148 D(12,13,15,17)  =     -1.576092    -0.000000    -0.056612    -1.632704
	  149 D(12,13,15,27)  =    178.766877    -0.000000    -0.080167   178.686710
	  150 D(12,14,16,17)  =      1.106030     0.000000     0.005004     1.111034
	  151 D(12,14,16,28)  =    179.975242     0.000000    -0.006241   179.969001
	  152 D(13,12,14,16)  =     -2.993652    -0.000001    -0.044933    -3.038585
	  153 D(13,12,14,26)  =    175.107194    -0.000000    -0.066500   175.040694
	  154 D(13,15,17,16)  =     -0.434748    -0.000000     0.013312    -0.421436
	  155 D(13,15,17,29)  =   -179.677015     0.000000     0.022948  -179.654067
	  156 D(14,12,13,15)  =      3.212496     0.000000     0.070405     3.282901
	  157 D(14,12,13,25)  =   -179.112428    -0.000000    -0.101378  -179.213805
	  158 D(14,16,17,15)  =      0.661089     0.000000     0.012370     0.673459
	  159 D(14,16,17,29)  =    179.903025    -0.000000     0.002649   179.905674
	  160 D(15,17,16,28)  =   -178.198206     0.000000     0.023584  -178.174623
	  161 D(16,17,15,27)  =    179.218744     0.000000     0.037188   179.255932
	  162 D(17,15,13,25)  =   -179.325290     0.000000     0.107971  -179.217319
	  163 D(17,16,14,26)  =   -176.993876     0.000000     0.026957  -176.966919
	  164 D(18,20,19,31)  =    175.841159    -0.000002    -0.142189   175.698970
	  165 D(19,20,18,30)  =   -177.006086     0.000001     0.057380  -176.948705
	  166 D(20,18,4,21)   =   -179.919312     0.000001     0.042936  -179.876376
	  167 D(20,19,6,22)   =    171.477090    -0.000003    -0.159484   171.317606
	  168 D(21,4,18,30)   =     -0.548213     0.000000     0.024535    -0.523679
	  169 D(22,6,19,31)   =     -5.901563    -0.000002    -0.115101    -6.016664
	  170 D(23,8,10,24)   =      0.447005     0.000001     0.212564     0.659569
	  171 D(23,8,11,33)   =      1.097372     0.000000     0.066981     1.164353
	  172 D(25,13,15,27)  =      1.017679     0.000000     0.084416     1.102095
	  173 D(26,14,16,28)  =      1.875336    -0.000000     0.015712     1.891048
	  174 D(27,15,17,29)  =     -0.023523     0.000000     0.046823     0.023301
	  175 D(28,16,17,29)  =      1.043730     0.000000     0.013862     1.057592
	  176 D(30,18,20,34)  =      0.887381    -0.000000    -0.061285     0.826096
	  177 D(31,19,20,34)  =     -2.053393    -0.000001    -0.023563    -2.076956
	  178 D(32,9,11,33)   =      1.195579     0.000000    -0.001822     1.193757
	  179 R(2,24)         =      2.669361     0.000138     0.000091     2.669452
	  180 R(3,13)         =      3.382272     0.001335    -0.000271     3.382001
	  181 R(6,13)         =      3.189346     0.002044     0.003627     3.192974
	  182 R(9,14)         =      3.038465    -0.000363    -0.001084     3.037381
	 ---------------------------------------------------------------------------
	Successfully symmetrized geometry.

  ==> Convergence Check <==

  Measures of convergence in internal coordinates in au.
  Criteria marked as inactive (o), active & met (*), and active & unmet ( ).
  ---------------------------------------------------------------------------------------------
   Step     Total Energy     Delta E     MAX Force     RMS Force      MAX Disp      RMS Disp   
  ---------------------------------------------------------------------------------------------
    Convergence Criteria             o    2.50e-03 *    1.70e-03 *    1.00e-02 *    6.70e-03 *
  ---------------------------------------------------------------------------------------------
     11    -840.63531571   -1.37e-05 o    5.00e-04 *    9.70e-05 *    6.85e-03 *    1.72e-03 *  ~
  ---------------------------------------------------------------------------------------------


  **** Optimization is complete! (in 11 steps) ****

  ==> Optimization Summary <==

  Measures of convergence in internal coordinates in au.
  --------------------------------------------------------------------------------------------------------------- ~
   Step         Total Energy             Delta E       MAX Force       RMS Force        MAX Disp        RMS Disp  ~
  --------------------------------------------------------------------------------------------------------------- ~
      1    -840.626897773113   -840.626897773113      0.00982231      0.00241610      0.14744029      0.01471327  ~
      2    -840.629977451475     -0.003079678362      0.00734797      0.00087058      0.14883353      0.01475113  ~
      3    -840.631710213199     -0.001732761725      0.00464338      0.00056477      0.13081005      0.01474598  ~
      4    -840.632899622278     -0.001189409078      0.00299728      0.00041812      0.10422755      0.01460338  ~
      5    -840.633692935794     -0.000793313517      0.00214460      0.00043998      0.09696869      0.01458738  ~
      6    -840.634275838517     -0.000582902722      0.00192804      0.00049580      0.09457167      0.01459066  ~
      7    -840.634787084670     -0.000511246153      0.00189014      0.00045420      0.09203179      0.01463265  ~
      8    -840.635155755485     -0.000368670815      0.00177418      0.00040536      0.04225820      0.00704828  ~
      9    -840.635198575759     -0.000042820274      0.00280105      0.00064579      0.06146143      0.00834869  ~
     10    -840.635301962936     -0.000103387177      0.00059068      0.00016472      0.01563043      0.00371536  ~
     11    -840.635315709027     -0.000013746091      0.00050015      0.00009696      0.00685478      0.00171758  ~
  --------------------------------------------------------------------------------------------------------------- ~

	Writing optimization data to binary file.
	Final energy is   -840.6353157090274
	Final (previous) structure:
	Cartesian Geometry (in Angstrom)
	    C    -0.5818810430  -0.2121874621   0.0922162711
	    N     0.5969991980  -0.2728631029   0.7806791143
	    C     1.8333246347   0.4168064026   0.7370130064
	    C     2.9600621761  -0.3072050248   1.1529421007
	    H     0.5148915909  -0.8894358331   1.6030701174
	    C     1.9504999471   1.8039168166   0.6021888474
	    C    -1.6602838198  -0.8826504254   0.6588954873
	    N    -2.8090579700  -2.1413099568   2.1495047049
	    C    -3.0618250761  -0.9461367916   0.2622040255
	    C    -1.5483539372  -1.6556560124   1.8895618372
	    C    -3.7181149045  -1.6985589818   1.1742277528
	    C    -0.7145982242   0.3340145935  -1.2967742823
	    C    -0.1227228729   1.4973263102  -1.8019076906
	    C    -1.3667868022  -0.5080593660  -2.2211813649
	    C    -0.2346374330   1.8392822584  -3.1480177000
	    C    -1.4747481939  -0.1703042751  -3.5640951945
	    C    -0.9132410615   1.0131771708  -4.0360632757
	    C     4.1938118655   0.3158736914   1.2920245736
	    C     3.1914029513   2.4244496853   0.7247871432
	    C     4.3224188902   1.6835644220   1.0542874311
	    H     2.8577353146  -1.3680717882   1.3381706780
	    H     1.0666230984   2.4094248389   0.4837149041
	    H    -3.0183041879  -2.7130319262   2.9444546779
	    O    -0.5204528250  -1.8731652183   2.6016190390
	    H     0.4015106590   2.1749036129  -1.1573633765
	    H    -1.7651255555  -1.4518601780  -1.8821451687
	    H     0.2192123507   2.7563193928  -3.4976225748
	    H    -1.9820546750  -0.8425261100  -4.2424042770
	    H    -0.9931257606   1.2799572065  -5.0808029245
	    H     5.0525468638  -0.2663541509   1.5962768607
	    H     3.2618979427   3.4968806630   0.6032956870
	    H    -3.5098773425  -0.4429005881  -0.5753386533
	    H    -4.7607264594  -1.9514172041   1.2394304746
	    H     5.2825300825   2.1691127041   1.1580970891
	Saving final (previous) structure.
	Cleaning optimization helper files.
			--------------------------
			 OPTKING Finished Execution 
			--------------------------

    Final optimized geometry and variables:
    Molecular point group: c1
    Full point group: C1

    Geometry (in Angstrom), charge = 0, multiplicity = 1:

    C           -0.581881045296    -0.212187462977     0.092216271458
    N            0.596999200394    -0.272863104006     0.780679117404
    C            1.833324641899     0.416806404288     0.737013009252
    C            2.960062187781    -0.307205025963     1.152942105225
    H            0.514891592961    -0.889435836640     1.603070123747
    C            1.950499954735     1.803916823671     0.602188849748
    C           -1.660283826279    -0.882650428862     0.658895489871
    N           -2.809057981018    -2.141309965238     2.149504713356
    C           -3.061825088121    -0.946136795331     0.262204026575
    C           -1.548353943285    -1.655656018937     1.889561844649
    C           -3.718114919118    -1.698558988505     1.174227757462
    C           -0.714598226997     0.334014594854    -1.296774287417
    C           -0.122722873371     1.497326316041    -1.801907697635
    C           -1.366786807592    -0.508059368008    -2.221181373627
    C           -0.234637433952     1.839282265673    -3.148017712396
    C           -1.474748199689    -0.170304275749    -3.564095208547
    C           -0.913241065051     1.013177174741    -4.036063291551
    C            4.193811882013     0.315873692685     1.292024578723
    C            3.191402963887     2.424449694814     0.724787146068
    C            4.322418907204     1.683564428648     1.054287435255
    H            2.857735325836    -1.368071793599     1.338170683271
    H            1.066623102607     2.409424848338     0.483714906008
    H           -3.018304199752    -2.713031936829     2.944454689480
    O           -0.520452827090    -1.873165225639     2.601619049265
    H            0.401510660534     2.174903621469    -1.157363381078
    H           -1.765125562459    -1.451860183710    -1.882145176142
    H            0.219212351597     2.756319403632    -3.497622588595
    H           -1.982054682778    -0.842526113288    -4.242404293713
    H           -0.993125764497     1.279957211571    -5.080802944442
    H            5.052546883679    -0.266354151905     1.596276867015
    H            3.261897955535     3.496880676756     0.603295689377
    H           -3.509877356264    -0.442900589802    -0.575338655514
    H           -4.760726478084    -1.951417211791     1.239430479429
    H            5.282530103214     2.169112712656     1.158097093629

	Removing binary optimization data file.
	Cleaning optimization helper files.

    Psi4 stopped on: Wednesday, 08 June 2022 05:54PM
    Psi4 wall time for execution: 1:04:22.03

*** Psi4 exiting successfully. Buy a developer a beer!
