
    -----------------------------------------------------------------------
          Psi4: An Open-Source Ab Initio Electronic Structure Package
                               Psi4 1.5 release

                         Git: Rev {HEAD} e9f4d6d 


    D. G. A. Smith, L. A. Burns, A. C. Simmonett, R. M. Parrish,
    M. C. Schieber, R. Galvelis, P. Kraus, H. Kruse, R. Di Remigio,
    A. Alenaizan, A. M. James, S. Lehtola, J. P. Misiewicz, M. Scheurer,
    R. A. Shaw, J. B. Schriber, Y. Xie, Z. L. Glick, D. A. Sirianni,
    J. S. O'Brien, J. M. Waldrop, A. Kumar, E. G. Hohenstein,
    B. P. Pritchard, B. R. Brooks, H. F. Schaefer III, A. Yu. Sokolov,
    K. Patkowski, A. E. DePrince III, U. Bozkaya, R. A. King,
    F. A. Evangelista, J. M. Turney, T. D. Crawford, C. D. Sherrill,
    J. Chem. Phys. 152(18) 184108 (2020). https://doi.org/10.1063/5.0006002

                            Additional Code Authors
    E. T. Seidl, C. L. Janssen, E. F. Valeev, M. L. Leininger,
    J. F. Gonthier, R. M. Richard, H. R. McAlexander, M. Saitow, X. Wang,
    P. Verma, M. H. Lechner, and A. Jiang

             Previous Authors, Complete List of Code Contributors,
                       and Citations for Specific Modules
    https://github.com/psi4/psi4/blob/master/codemeta.json
    https://github.com/psi4/psi4/graphs/contributors
    http://psicode.org/psi4manual/master/introduction.html#citing-psifour

    -----------------------------------------------------------------------


    Psi4 started on: Thursday, 09 June 2022 07:00AM

    Process ID: 1296781
    Host:       node74.bme.utexas.edu
    PSIDATADIR: /home/bdw2292/miniconda3/envs/newamoebamdpoltype/share/psi4
    Memory:     500.0 MiB
    Threads:    1
    
  ==> Input File <==

--------------------------------------------------------------------------
molecule { 
0 1
 C   -0.553160   -0.143952    0.425008
 N    0.690389   -0.642607    0.675404
 C    1.907797   -0.390923   -0.000370
 C    2.187180    0.815460   -0.649704
 H    0.758540   -1.137587    1.568865
 C    2.882088   -1.394598    0.034849
 C   -1.532431   -0.282865    1.384264
 N   -2.480191   -0.874951    3.350400
 C   -2.949410    0.054533    1.352955
 C   -1.274767   -0.899513    2.682984
 C   -3.481190   -0.305656    2.542857
 C   -0.852508    0.461066   -0.897551
 C   -1.458781    1.717589   -0.983477
 C   -0.548081   -0.237581   -2.071011
 C   -1.752043    2.270667   -2.227627
 C   -0.849138    0.313507   -3.311431
 C   -1.448523    1.569969   -3.392965
 C    3.417046    0.995994   -1.276026
 C    4.114856   -1.198239   -0.577459
 C    4.386029   -0.004682   -1.244334
 H    1.457744    1.610658   -0.658660
 H    2.661780   -2.325294    0.540840
 H   -2.600186   -1.246034    4.272737
 O   -0.197163   -1.388269    3.127475
 H   -1.685131    2.261386   -0.076329
 H   -0.075084   -1.207904   -2.006290
 H   -2.214651    3.246508   -2.285489
 H   -0.615255   -0.235482   -4.213131
 H   -1.677810    1.999072   -4.358815
 H    3.620888    1.931983   -1.778161
 H    4.860129   -1.980893   -0.537562
 H   -3.479813    0.497048    0.528833
 H   -4.490591   -0.218949    2.902382
 H    5.341646    0.145776   -1.726815
}
memory 8.166666666666666GB
set_num_threads(2)
psi4_io.set_default_path("/scratch/bdw2292/Psi4-1_16_Index_0-farH_in17")
set freeze_core True
E, wfn = energy('wb97x-d/6-311+G*',return_wfn=True)
oeprop(wfn,"WIBERG_LOWDIN_INDICES")
clean()
--------------------------------------------------------------------------

  Memory set to   7.606 GiB by Python driver.
  Threads set to 2 by Python driver.

Scratch directory: /scratch/bdw2292/Psi4-1_16_Index_0-farH_in17/

Scratch directory: /scratch/bdw2292/Psi4-1_16_Index_0-farH_in17/

*** tstart() called on node74.bme.utexas.edu
*** at Thu Jun  9 07:00:29 2022

   => Loading Basis Set <=

    Name: 6-311+G*
    Role: ORBITAL
    Keyword: BASIS
    atoms 1, 3-4, 6-7, 9-20 entry C          line   130 file /home/bdw2292/miniconda3/envs/newamoebamdpoltype/share/psi4/basis/6-311pgs.gbs 
    atoms 2, 8              entry N          line   151 file /home/bdw2292/miniconda3/envs/newamoebamdpoltype/share/psi4/basis/6-311pgs.gbs 
    atoms 5, 21-23, 25-34   entry H          line    47 file /home/bdw2292/miniconda3/envs/newamoebamdpoltype/share/psi4/basis/6-311pgs.gbs 
    atoms 24                entry O          line   172 file /home/bdw2292/miniconda3/envs/newamoebamdpoltype/share/psi4/basis/6-311pgs.gbs 

   => WB97X-D: Empirical Dispersion <=

    Chai and Head-Gordon Dispersion Correction
    Chai, J.-D.; Head-Gordon, M. (2010), J. Chem. Phys., 132: 6615-6620

        s6 =       1.000000


         ---------------------------------------------------------
                                   SCF
               by Justin Turney, Rob Parrish, Andy Simmonett
                          and Daniel G. A. Smith
                              RKS Reference
                        2 Threads,   7788 MiB Core
         ---------------------------------------------------------

  ==> Geometry <==

    Molecular point group: c1
    Full point group: C1

    Geometry (in Angstrom), charge = 0, multiplicity = 1:

       Center              X                  Y                   Z               Mass       
    ------------   -----------------  -----------------  -----------------  -----------------
         C           -0.553160040485    -0.143952063932     0.425007905551    12.000000000000
         N            0.690388959515    -0.642607063932     0.675403905551    14.003074004430
         C            1.907796959515    -0.390923063932    -0.000370094449    12.000000000000
         C            2.187179959515     0.815459936068    -0.649704094449    12.000000000000
         H            0.758539959515    -1.137587063932     1.568864905551     1.007825032230
         C            2.882087959515    -1.394598063932     0.034848905551    12.000000000000
         C           -1.532431040485    -0.282865063932     1.384263905551    12.000000000000
         N           -2.480191040485    -0.874951063932     3.350399905551    14.003074004430
         C           -2.949410040485     0.054532936068     1.352954905551    12.000000000000
         C           -1.274767040485    -0.899513063932     2.682983905551    12.000000000000
         C           -3.481190040485    -0.305656063932     2.542856905551    12.000000000000
         C           -0.852508040485     0.461065936068    -0.897551094449    12.000000000000
         C           -1.458781040485     1.717588936068    -0.983477094449    12.000000000000
         C           -0.548081040485    -0.237581063932    -2.071011094449    12.000000000000
         C           -1.752043040485     2.270666936068    -2.227627094449    12.000000000000
         C           -0.849138040485     0.313506936068    -3.311431094449    12.000000000000
         C           -1.448523040485     1.569968936068    -3.392965094449    12.000000000000
         C            3.417045959515     0.995993936068    -1.276026094449    12.000000000000
         C            4.114855959515    -1.198239063932    -0.577459094449    12.000000000000
         C            4.386028959515    -0.004682063932    -1.244334094449    12.000000000000
         H            1.457743959515     1.610657936068    -0.658660094449     1.007825032230
         H            2.661779959515    -2.325294063932     0.540839905551     1.007825032230
         H           -2.600186040485    -1.246034063932     4.272736905551     1.007825032230
         O           -0.197163040485    -1.388269063932     3.127474905551    15.994914619570
         H           -1.685131040485     2.261385936068    -0.076329094449     1.007825032230
         H           -0.075084040485    -1.207904063932    -2.006290094449     1.007825032230
         H           -2.214651040485     3.246507936068    -2.285489094449     1.007825032230
         H           -0.615255040485    -0.235482063932    -4.213131094449     1.007825032230
         H           -1.677810040485     1.999071936068    -4.358815094449     1.007825032230
         H            3.620887959515     1.931982936068    -1.778161094449     1.007825032230
         H            4.860128959515    -1.980893063932    -0.537562094449     1.007825032230
         H           -3.479813040485     0.497047936068     0.528832905551     1.007825032230
         H           -4.490591040485    -0.218949063932     2.902381905551     1.007825032230
         H            5.341645959515     0.145775936068    -1.726815094449     1.007825032230

  Running in c1 symmetry.

  Rotational constants: A =      0.01493  B =      0.00970  C =      0.00635 [cm^-1]
  Rotational constants: A =    447.64917  B =    290.86811  C =    190.32939 [MHz]
  Nuclear repulsion = 1426.130225953187164

  Charge       = 0
  Multiplicity = 1
  Electrons    = 138
  Nalpha       = 69
  Nbeta        = 69

  ==> Algorithm <==

  SCF Algorithm Type is DF.
  DIIS enabled.
  MOM disabled.
  Fractional occupation disabled.
  Guess Type is SAD.
  Energy threshold   = 1.00e-06
  Density threshold  = 1.00e-06
  Integral threshold = 1.00e-12

  ==> Primary Basis <==

  Basis Set: 6-311+G*
    Blend: 6-311+G*
    Number of shells: 242
    Number of basis functions: 482
    Number of Cartesian functions: 502
    Spherical Harmonics?: true
    Max angular momentum: 2

  ==> DFT Potential <==

   => LibXC <=

    Version 5.1.5
    S. Lehtola, C. Steigemann, M. J. Oliveira, and M. A. Marques, SoftwareX 7, 1 (2018) (10.1016/j.softx.2017.11.002)

   => Composite Functional: WB97X-D <= 

    wB97X-D Hyb-GGA Exchange-Correlation Functional

    J.-D. Chai and M. Head-Gordon, Phys. Chem. Chem. Phys. 10, 6615 (2008) (10.1039/B810189B)

    Deriv               =              1
    GGA                 =           TRUE
    Meta                =          FALSE

    Exchange Hybrid     =           TRUE
    MP2 Hybrid          =          FALSE

   => Exchange-Correlation Functionals <=

    1.0000   wB97X-D range-separated functional

   => Exact (HF) Exchange <=

    0.7780            HF,LR [omega = 0.2000]
    0.2220               HF 

   => LibXC Density Thresholds  <==

    XC_HYB_GGA_XC_WB97X_D:  1.00E-14 

   => Molecular Quadrature <=

    Radial Scheme          =       TREUTLER
    Pruning Scheme         =           NONE
    Nuclear Scheme         =       TREUTLER

    BS radius alpha        =              1
    Pruning alpha          =              1
    Radial Points          =             75
    Spherical Points       =            302
    Total Points           =         703373
    Total Blocks           =           5020
    Max Points             =            256
    Max Functions          =            386
    Weights Tolerance      =       1.00E-15

   => Loading Basis Set <=

    Name: (6-311+G* AUX)
    Role: JKFIT
    Keyword: DF_BASIS_SCF
    atoms 1, 3-4, 6-7, 9-20 entry C          line   200 file /home/bdw2292/miniconda3/envs/newamoebamdpoltype/share/psi4/basis/heavy-aug-cc-pvtz-jkfit.gbs 
    atoms 2, 8              entry N          line   262 file /home/bdw2292/miniconda3/envs/newamoebamdpoltype/share/psi4/basis/heavy-aug-cc-pvtz-jkfit.gbs 
    atoms 5, 21-23, 25-34   entry H          line   116 file /home/bdw2292/miniconda3/envs/newamoebamdpoltype/share/psi4/basis/heavy-aug-cc-pvtz-jkfit.gbs 
    atoms 24                entry O          line   324 file /home/bdw2292/miniconda3/envs/newamoebamdpoltype/share/psi4/basis/heavy-aug-cc-pvtz-jkfit.gbs 

  ==> Integral Setup <==

  ==> DiskDFJK: Density-Fitted J/K Matrices <==

    J tasked:                  Yes
    K tasked:                  Yes
    wK tasked:                 Yes
    Omega:               2.000E-01
    OpenMP threads:              2
    Integrals threads:           2
    Memory [MiB]:             1967
    Algorithm:                Disk
    Integral Cache:           NONE
    Schwarz Cutoff:          1E-12
    Fitting Condition:       1E-10

   => Auxiliary Basis Set <=

  Basis Set: (6-311+G* AUX)
    Blend: HEAVY-AUG-CC-PVTZ-JKFIT
    Number of shells: 740
    Number of basis functions: 2500
    Number of Cartesian functions: 3110
    Spherical Harmonics?: true
    Max angular momentum: 4

  Cached 50.0% of DFT collocation blocks in 2.766 [GiB].

  Minimum eigenvalue in the overlap matrix is 2.1937693149E-07.
  Reciprocal condition number of the overlap matrix is 1.2788816356E-08.
    Using symmetric orthogonalization.

  ==> Pre-Iterations <==

  SCF Guess: Superposition of Atomic Densities via on-the-fly atomic UHF (no occupation information).

   -------------------------
    Irrep   Nso     Nmo    
   -------------------------
     A        482     482 
   -------------------------
    Total     482     482
   -------------------------

  ==> Iterations <==

                           Total Energy        Delta E     RMS |[F,P]|

   @DF-RKS iter SAD:  -840.40726908794079   -8.40407e+02   0.00000e+00 
   @DF-RKS iter   1:  -840.06740716923616    3.39862e-01   2.63147e-03 DIIS
   @DF-RKS iter   2:  -840.43559163064481   -3.68184e-01   2.07355e-03 DIIS
   @DF-RKS iter   3:  -840.86081813380633   -4.25227e-01   3.58634e-04 DIIS
   @DF-RKS iter   4:  -840.87000677761989   -9.18864e-03   1.69037e-04 DIIS
   @DF-RKS iter   5:  -840.87250317880671   -2.49640e-03   3.97517e-05 DIIS
   @DF-RKS iter   6:  -840.87265492302640   -1.51744e-04   1.23774e-05 DIIS
   @DF-RKS iter   7:  -840.87267224966183   -1.73266e-05   3.27362e-06 DIIS
   @DF-RKS iter   8:  -840.87267371495443   -1.46529e-06   1.47591e-06 DIIS
   @DF-RKS iter   9:  -840.87267416164707   -4.46693e-07   5.01378e-07 DIIS
  Energy and wave function converged.


  ==> Post-Iterations <==

   Electrons on quadrature grid:
      Ntotal   =  137.9997574394 ; deviation = -2.426e-04 

    Orbital Energies [Eh]
    ---------------------

    Doubly Occupied:                                                      

       1A    -19.207034     2A    -14.469869     3A    -14.466147  
       4A    -10.379592     5A    -10.365172     6A    -10.340305  
       7A    -10.318035     8A    -10.317116     9A    -10.305318  
      10A    -10.304621    11A    -10.304286    12A    -10.303555  
      13A    -10.302637    14A    -10.294784    15A    -10.294579  
      16A    -10.292850    17A    -10.292509    18A    -10.289739  
      19A    -10.284762    20A    -10.280157    21A     -1.124860  
      22A     -1.070277    23A     -1.049556    24A     -0.980134  
      25A     -0.962127    26A     -0.909911    27A     -0.873216  
      28A     -0.863952    29A     -0.855345    30A     -0.853547  
      31A     -0.813846    32A     -0.769102    33A     -0.726110  
      34A     -0.722201    35A     -0.713694    36A     -0.695437  
      37A     -0.680294    38A     -0.664766    39A     -0.636938  
      40A     -0.617499    41A     -0.599579    42A     -0.582557  
      43A     -0.582176    44A     -0.562573    45A     -0.554108  
      46A     -0.540662    47A     -0.533661    48A     -0.526435  
      49A     -0.521697    50A     -0.516356    51A     -0.514398  
      52A     -0.510865    53A     -0.498500    54A     -0.482945  
      55A     -0.479536    56A     -0.474535    57A     -0.450774  
      58A     -0.448841    59A     -0.444742    60A     -0.439385  
      61A     -0.429454    62A     -0.406509    63A     -0.366339  
      64A     -0.347078    65A     -0.343333    66A     -0.337956  
      67A     -0.332096    68A     -0.308771    69A     -0.259849  

    Virtual:                                                              

      70A     -0.001372    71A      0.036853    72A      0.044557  
      73A      0.053398    74A      0.055523    75A      0.062355  
      76A      0.066232    77A      0.072248    78A      0.075050  
      79A      0.078240    80A      0.082611    81A      0.085241  
      82A      0.093154    83A      0.097022    84A      0.098350  
      85A      0.106959    86A      0.110329    87A      0.112066  
      88A      0.114721    89A      0.119632    90A      0.122375  
      91A      0.130760    92A      0.136399    93A      0.137112  
      94A      0.140529    95A      0.150666    96A      0.151794  
      97A      0.157629    98A      0.163376    99A      0.170502  
     100A      0.173689   101A      0.177904   102A      0.178782  
     103A      0.179931   104A      0.182246   105A      0.190170  
     106A      0.194389   107A      0.196838   108A      0.201749  
     109A      0.206232   110A      0.208185   111A      0.209856  
     112A      0.211573   113A      0.212941   114A      0.218617  
     115A      0.221049   116A      0.225415   117A      0.226744  
     118A      0.228699   119A      0.230750   120A      0.238304  
     121A      0.243547   122A      0.245257   123A      0.247184  
     124A      0.251267   125A      0.254975   126A      0.256434  
     127A      0.258087   128A      0.263159   129A      0.264319  
     130A      0.267377   131A      0.269027   132A      0.271005  
     133A      0.273221   134A      0.275660   135A      0.278732  
     136A      0.284319   137A      0.287453   138A      0.288638  
     139A      0.289895   140A      0.294604   141A      0.299608  
     142A      0.300634   143A      0.305079   144A      0.309491  
     145A      0.310972   146A      0.313359   147A      0.315432  
     148A      0.318534   149A      0.319926   150A      0.324917  
     151A      0.327077   152A      0.329914   153A      0.337653  
     154A      0.340290   155A      0.343038   156A      0.346712  
     157A      0.347601   158A      0.354754   159A      0.358369  
     160A      0.361810   161A      0.370237   162A      0.374190  
     163A      0.375158   164A      0.383837   165A      0.386765  
     166A      0.388410   167A      0.394059   168A      0.399555  
     169A      0.403134   170A      0.409736   171A      0.412441  
     172A      0.418076   173A      0.423667   174A      0.426553  
     175A      0.430034   176A      0.435746   177A      0.441642  
     178A      0.449108   179A      0.451729   180A      0.452225  
     181A      0.462742   182A      0.470285   183A      0.480659  
     184A      0.493983   185A      0.507086   186A      0.523209  
     187A      0.533212   188A      0.542533   189A      0.555416  
     190A      0.572128   191A      0.585012   192A      0.597305  
     193A      0.606620   194A      0.607023   195A      0.615005  
     196A      0.619131   197A      0.622465   198A      0.630747  
     199A      0.630938   200A      0.636996   201A      0.640232  
     202A      0.650482   203A      0.653277   204A      0.657870  
     205A      0.665817   206A      0.671865   207A      0.677908  
     208A      0.683739   209A      0.691198   210A      0.697574  
     211A      0.706875   212A      0.708513   213A      0.713585  
     214A      0.721933   215A      0.734086   216A      0.738272  
     217A      0.742835   218A      0.751895   219A      0.759825  
     220A      0.762422   221A      0.772666   222A      0.781270  
     223A      0.783541   224A      0.786307   225A      0.790836  
     226A      0.794986   227A      0.803820   228A      0.805849  
     229A      0.815807   230A      0.820596   231A      0.826350  
     232A      0.829944   233A      0.830751   234A      0.836478  
     235A      0.843909   236A      0.847792   237A      0.856708  
     238A      0.861176   239A      0.868172   240A      0.875060  
     241A      0.879324   242A      0.881979   243A      0.896850  
     244A      0.906465   245A      0.913917   246A      0.918472  
     247A      0.921706   248A      0.928218   249A      0.932560  
     250A      0.937930   251A      0.944074   252A      0.948581  
     253A      0.951982   254A      0.965249   255A      0.971370  
     256A      0.977274   257A      0.992002   258A      0.996550  
     259A      1.008668   260A      1.011684   261A      1.020957  
     262A      1.028994   263A      1.044007   264A      1.049312  
     265A      1.062909   266A      1.071692   267A      1.077817  
     268A      1.085371   269A      1.090109   270A      1.108020  
     271A      1.110374   272A      1.117734   273A      1.140192  
     274A      1.148985   275A      1.158354   276A      1.165026  
     277A      1.179717   278A      1.187709   279A      1.192675  
     280A      1.212703   281A      1.235747   282A      1.241238  
     283A      1.249133   284A      1.254860   285A      1.266842  
     286A      1.267855   287A      1.279703   288A      1.291532  
     289A      1.299669   290A      1.306499   291A      1.308637  
     292A      1.334510   293A      1.345505   294A      1.364384  
     295A      1.369257   296A      1.378675   297A      1.386157  
     298A      1.398760   299A      1.413217   300A      1.433102  
     301A      1.443763   302A      1.461797   303A      1.510780  
     304A      1.525457   305A      1.576805   306A      1.594935  
     307A      1.597794   308A      1.606885   309A      1.618965  
     310A      1.626169   311A      1.635239   312A      1.646683  
     313A      1.651589   314A      1.665744   315A      1.675806  
     316A      1.705455   317A      1.732461   318A      1.742514  
     319A      1.773199   320A      1.801019   321A      1.836199  
     322A      1.840873   323A      1.842540   324A      1.859756  
     325A      1.865419   326A      1.874222   327A      1.882085  
     328A      1.886837   329A      1.894838   330A      1.905060  
     331A      1.912241   332A      1.919326   333A      1.928189  
     334A      1.939372   335A      1.953595   336A      1.960998  
     337A      1.977136   338A      1.993027   339A      2.001752  
     340A      2.018769   341A      2.020689   342A      2.029469  
     343A      2.036422   344A      2.054961   345A      2.060135  
     346A      2.073120   347A      2.078765   348A      2.087563  
     349A      2.088798   350A      2.107028   351A      2.114184  
     352A      2.132644   353A      2.155351   354A      2.204153  
     355A      2.251713   356A      2.279049   357A      2.306497  
     358A      2.312068   359A      2.326259   360A      2.348876  
     361A      2.357120   362A      2.366805   363A      2.378683  
     364A      2.380084   365A      2.401948   366A      2.405257  
     367A      2.411740   368A      2.423541   369A      2.442085  
     370A      2.470118   371A      2.479344   372A      2.484354  
     373A      2.505265   374A      2.521717   375A      2.534319  
     376A      2.549373   377A      2.559533   378A      2.574951  
     379A      2.596423   380A      2.649972   381A      2.700417  
     382A      2.752823   383A      2.767194   384A      2.778546  
     385A      2.793042   386A      2.802352   387A      2.804496  
     388A      2.839237   389A      2.857401   390A      2.870545  
     391A      2.879917   392A      2.896130   393A      2.910184  
     394A      2.913287   395A      2.925311   396A      2.933165  
     397A      2.959541   398A      2.966093   399A      2.984847  
     400A      2.999553   401A      3.031266   402A      3.041418  
     403A      3.046621   404A      3.051552   405A      3.071458  
     406A      3.077446   407A      3.101282   408A      3.122124  
     409A      3.144023   410A      3.166034   411A      3.189790  
     412A      3.201209   413A      3.237367   414A      3.270054  
     415A      3.280945   416A      3.319299   417A      3.335625  
     418A      3.402453   419A      3.402567   420A      3.410772  
     421A      3.417032   422A      3.426159   423A      3.428871  
     424A      3.431250   425A      3.440154   426A      3.446086  
     427A      3.455459   428A      3.460431   429A      3.497969  
     430A      3.524916   431A      3.555644   432A      3.574930  
     433A      3.617364   434A      3.638525   435A      3.650191  
     436A      3.672358   437A      3.702093   438A      3.733510  
     439A      3.772510   440A      3.780530   441A      3.783004  
     442A      3.883339   443A      3.917972   444A      3.983654  
     445A      4.011101   446A      4.064856   447A      4.102918  
     448A      4.138008   449A      4.141079   450A      4.172143  
     451A      4.210608   452A      4.355165   453A      4.536923  
     454A      4.646375   455A      4.689949   456A      4.881937  
     457A      4.893193   458A      5.126141   459A      5.196732  
     460A      5.255499   461A      5.406412   462A      5.918083  
     463A     23.493201   464A     23.546436   465A     23.713013  
     466A     23.930604   467A     23.986471   468A     23.991016  
     469A     24.014488   470A     24.030422   471A     24.042390  
     472A     24.144108   473A     24.161794   474A     24.172523  
     475A     24.184630   476A     24.237292   477A     24.275756  
     478A     24.280669   479A     24.288810   480A     35.650105  
     481A     35.744417   482A     50.194705  

    Final Occupation by Irrep:
              A 
    DOCC [    69 ]

  @DF-RKS Final Energy:  -840.87267416164707

   => Energetics <=

    Nuclear Repulsion Energy =           1426.1302259531871641
    One-Electron Energy =               -3971.0271115088225997
    Two-Electron Energy =                1786.7350120068679189
    DFT Exchange-Correlation Energy =     -82.6863820297795087
    Empirical Dispersion Energy =          -0.0244185831000461
    VV10 Nonlocal Energy =                  0.0000000000000000
    Total Energy =                       -840.8726741616470690

Computation Completed


Properties will be evaluated at   0.000000,   0.000000,   0.000000 [a0]

Properties computed using the SCF density matrix

  Nuclear Dipole Moment: [e a0]
     X:     1.7500      Y:     3.1292      Z:    -7.3348

  Electronic Dipole Moment: [e a0]
     X:    -2.3131      Y:    -2.5710      Z:     6.2936

  Dipole Moment: [e a0]
     X:    -0.5630      Y:     0.5582      Z:    -1.0412     Total:     1.3087

  Dipole Moment: [D]
     X:    -1.4311      Y:     1.4188      Z:    -2.6464     Total:     3.3263


*** tstop() called on node74.bme.utexas.edu at Thu Jun  9 07:07:04 2022
Module time:
	user time   =     739.57 seconds =      12.33 minutes
	system time =      27.30 seconds =       0.46 minutes
	total time  =        395 seconds =       6.58 minutes
Total time:
	user time   =     739.57 seconds =      12.33 minutes
	system time =      27.30 seconds =       0.46 minutes
	total time  =        395 seconds =       6.58 minutes


Properties will be evaluated at   0.000000,   0.000000,   0.000000 [a0]
OEProp: No title given, name of density matrix used for the following properties is 'SCF density'


  Wiberg Bond Indices using Orthogonal Lowdin Orbitals:

  Irrep: 1 Size: 34 x 34

                 1                   2                   3                   4                   5

    1     0.00000000000000     1.38746445139986     0.10159534948056     0.03847572926275     0.04210446050164
    2     1.38746445139986     0.00000000000000     1.17826220021509     0.11969276411163     0.72094574891599
    3     0.10159534948056     1.17826220021509     0.00000000000000     1.39266816909156     0.03784582967346
    4     0.03847572926275     0.11969276411163     1.39266816909156     0.00000000000000     0.00798627637153
    5     0.04210446050164     0.72094574891599     0.03784582967346     0.00798627637153     0.00000000000000
    6     0.02608691979934     0.13679561153892     1.40285189558580     0.12672444995323     0.01184556248415
    7     1.43181731853935     0.17521390212568     0.02279477292630     0.00944152177558     0.01367667137754
    8     0.01820370400952     0.00557117569144     0.00069659926979     0.00028003762779     0.00123301410681
    9     0.10956324777488     0.02075308857539     0.00277396491184     0.00113551395580     0.00105327136158
   10     0.13078281252960     0.06321712866487     0.00612770250692     0.00313739485153     0.01296401571619
   11     0.06757603560614     0.02484088557545     0.00259390823481     0.00262156384458     0.00038897736661
   12     1.00861872372328     0.09865950091984     0.03039444579243     0.03821198081568     0.00766128619014
   13     0.11855669806119     0.01948853916060     0.00646012202479     0.01866981109905     0.00095098436236
   14     0.11689091342052     0.03821875156754     0.02685955048455     0.03154072433237     0.00107094993573
   15     0.01679195917751     0.00236503791963     0.00184121381843     0.00557912766889     0.00025709873380
   16     0.01729649323677     0.00360944053009     0.00537759867937     0.00896262280617     0.00008452303868
   17     0.01049710504157     0.00369301157637     0.00131932098988     0.00378742835107     0.00015848460050
   18     0.00405700884306     0.01690918360434     0.13560268339251     1.51615410951656     0.00077419225841
   19     0.00336069023165     0.01810191430114     0.13572156293504     0.14101608091387     0.00094550266450
   20     0.00603576726139     0.01393671738324     0.13423155724756     0.13783651324116     0.00142302593417
   21     0.00787895231712     0.01339030867885     0.05333350739541     0.79245462250559     0.00004615873515
   22     0.00204399660663     0.02000328474661     0.05706085985168     0.00988171300524     0.00101633970953
   23     0.00151685600662     0.00028904795878     0.00005908375899     0.00002398232593     0.00010047813834
   24     0.07869014573320     0.11499845240933     0.01111551116168     0.00348289512198     0.06363822754159
   25     0.01657296756844     0.00073230289381     0.00026821634980     0.00078424416306     0.00002602563844
   26     0.01605173994781     0.00777113159324     0.00776903846150     0.00500993137870     0.00015547827623
   27     0.00119273442906     0.00029212268942     0.00006083510358     0.00008149266432     0.00001815292348
   28     0.00119894529545     0.00009107231862     0.00012354389863     0.00022519377110     0.00000485727731
   29     0.00027405731650     0.00006448596049     0.00002279260068     0.00003076829698     0.00000731801434
   30     0.00023948659737     0.00087803480425     0.01082624976378     0.06037968991880     0.00021030220135
   31     0.00035783566783     0.00086115444463     0.01078167380781     0.00254701191976     0.00003141235554
   32     0.01035324355484     0.00017368161556     0.00009637516893     0.00011662490372     0.00004976107670
   33     0.00167366562330     0.00038858615095     0.00011650367880     0.00002507770889     0.00017352928902
   34     0.00005858093273     0.00024744952888     0.00292910219513     0.01121322157395     0.00001660915612

                 6                   7                   8                   9                  10

    1     0.02608691979934     1.43181731853935     0.01820370400952     0.10956324777488     0.13078281252960
    2     0.13679561153892     0.17521390212568     0.00557117569144     0.02075308857539     0.06321712866487
    3     1.40285189558580     0.02279477292630     0.00069659926979     0.00277396491184     0.00612770250692
    4     0.12672444995323     0.00944152177558     0.00028003762779     0.00113551395580     0.00313739485153
    5     0.01184556248415     0.01367667137754     0.00123301410681     0.00105327136158     0.01296401571619
    6     0.00000000000000     0.00765904679577     0.00028635406053     0.00091401148039     0.00310628310618
    7     0.00765904679577     0.00000000000000     0.13502748421770     1.14797743298417     1.09075992568180
    8     0.00028635406053     0.13502748421770     0.00000000000000     0.19576759700185     1.34643863413281
    9     0.00091401148039     1.14797743298417     0.19576759700185     0.00000000000000     0.13381652753362
   10     0.00310628310618     1.09075992568180     1.34643863413281     0.13381652753362     0.00000000000000
   11     0.00235650192786     0.16486539107071     1.26140776282441     1.80418196250932     0.13909353553155
   12     0.00552531105038     0.11375227182379     0.00270881746926     0.03485742216659     0.01500166962399
   13     0.00117155291475     0.04763946873053     0.00187785377426     0.03776890398323     0.00541615042348
   14     0.00742820017220     0.02866820653245     0.00067260700556     0.00651529201529     0.00406757448484
   15     0.00054276597000     0.00467667747127     0.00031195009740     0.00644120708429     0.00061634235125
   16     0.00085747477853     0.00345276051945     0.00014638900544     0.00172190087170     0.00055657410493
   17     0.00056486649799     0.00725925064154     0.00018258042775     0.00162233199410     0.00145424183476
   18     0.14318025012471     0.00084594123231     0.00004061036091     0.00015812683744     0.00034518620243
   19     1.53069091869801     0.00111064424324     0.00002981670819     0.00016186339085     0.00032897889277
   20     0.13851734584668     0.00403606829615     0.00010135991275     0.00035359445385     0.00161610136213
   21     0.00869649705791     0.00077965612021     0.00003389235498     0.00014805541882     0.00009749167277
   22     0.81636745063027     0.00035274999388     0.00000708833223     0.00004421648866     0.00019828668867
   23     0.00001967338807     0.01148489066025     0.80946215399471     0.01060439921346     0.04352948966990
   24     0.00502038476769     0.14044846202261     0.21257449060270     0.02213241690306     2.02504297795265
   25     0.00002176629426     0.00869554716947     0.00039826343923     0.00925581071297     0.00057184950919
   26     0.00230140105390     0.00192150600003     0.00005675978810     0.00019209478970     0.00012931883146
   27     0.00002401125248     0.00018093695234     0.00001182619100     0.00010496264026     0.00003115397615
   28     0.00002171619969     0.00038197891481     0.00001694264521     0.00007908812230     0.00008305509388
   29     0.00000939925961     0.00006629400182     0.00000720985354     0.00003015245489     0.00001514825859
   30     0.00242936890885     0.00008304195022     0.00000378914733     0.00001537576948     0.00005242060474
   31     0.06066612016260     0.00006501433191     0.00000179167463     0.00001961687421     0.00001786052868
   32     0.00005165853845     0.04784081331853     0.01112680492827     0.81389923565734     0.00944006811824
   33     0.00004544498350     0.01383564513539     0.05477097646528     0.05852384127198     0.01215800495031
   34     0.01128894443032     0.00001842366349     0.00000129887219     0.00000370958096     0.00000899079245

                11                  12                  13                  14                  15

    1     0.06757603560614     1.00861872372328     0.11855669806119     0.11689091342052     0.01679195917751
    2     0.02484088557545     0.09865950091984     0.01948853916060     0.03821875156754     0.00236503791963
    3     0.00259390823481     0.03039444579243     0.00646012202479     0.02685955048455     0.00184121381843
    4     0.00262156384458     0.03821198081568     0.01866981109905     0.03154072433237     0.00557912766889
    5     0.00038897736661     0.00766128619014     0.00095098436236     0.00107094993573     0.00025709873380
    6     0.00235650192786     0.00552531105038     0.00117155291475     0.00742820017220     0.00054276597000
    7     0.16486539107071     0.11375227182379     0.04763946873053     0.02866820653245     0.00467667747127
    8     1.26140776282441     0.00270881746926     0.00187785377426     0.00067260700556     0.00031195009740
    9     1.80418196250932     0.03485742216659     0.03776890398323     0.00651529201529     0.00644120708429
   10     0.13909353553155     0.01500166962399     0.00541615042348     0.00406757448484     0.00061634235125
   11     0.00000000000000     0.00597107445640     0.00614229657619     0.00239886912626     0.00076448083149
   12     0.00597107445640     0.00000000000000     1.40974857503863     1.39636000553614     0.13465063283866
   13     0.00614229657619     1.40974857503863     0.00000000000000     0.12748318851600     1.51366157388150
   14     0.00239886912626     1.39636000553614     0.12748318851600     0.00000000000000     0.14466676791043
   15     0.00076448083149     0.13465063283866     1.51366157388150     0.14466676791043     0.00000000000000
   16     0.00041377293052     0.13444470444819     0.14305463355544     1.52113423424725     0.13740804304790
   17     0.00134027271918     0.13712588861983     0.13907313205028     0.13929926610356     1.52006954606803
   18     0.00022465371864     0.00585824148197     0.00177031461750     0.00650679100620     0.00072519372065
   19     0.00024515877483     0.00158420208854     0.00056500882463     0.00184407183022     0.00032132803458
   20     0.00181188200143     0.00148464428056     0.00079040334185     0.00139101814724     0.00030941220239
   21     0.00003814292945     0.01453083728541     0.00812719542728     0.00723721859272     0.00174341790721
   22     0.00005752106505     0.00028271339097     0.00004315726813     0.00023513668455     0.00001574621396
   23     0.04124252695228     0.00044663920190     0.00012696022287     0.00010195374834     0.00002779741602
   24     0.02425543108096     0.00451310702307     0.00302163406399     0.00290929504691     0.00034759298626
   25     0.00081527091663     0.05494346244437     0.80534921571849     0.00929528493288     0.05444985789704
   26     0.00003400305338     0.05441973337632     0.00907806179254     0.80103083433069     0.00198422557160
   27     0.00003787445351     0.01069286508005     0.06003721312821     0.00250449147951     0.83318102864146
   28     0.00005949521920     0.01066557381484     0.00247392576794     0.06023633196795     0.01116181225072
   29     0.00000783953209     0.00289544421097     0.01121513248251     0.01120734163055     0.05893519636161
   30     0.00002357591279     0.00019091905932     0.00006193108318     0.00016945896031     0.00001904144253
   31     0.00000467759499     0.00006826394713     0.00003261568310     0.00003813020671     0.00001035237125
   32     0.05915834084644     0.00856118343384     0.01240962320665     0.00117815838013     0.00212133079749
   33     0.83541713748548     0.00031303233348     0.00019354354333     0.00006426109218     0.00001990029490
   34     0.00000206497266     0.00005186363437     0.00003814016100     0.00003344547318     0.00000975059574

                16                  17                  18                  19                  20

    1     0.01729649323677     0.01049710504157     0.00405700884306     0.00336069023165     0.00603576726139
    2     0.00360944053009     0.00369301157637     0.01690918360434     0.01810191430114     0.01393671738324
    3     0.00537759867937     0.00131932098988     0.13560268339251     0.13572156293504     0.13423155724756
    4     0.00896262280617     0.00378742835107     1.51615410951656     0.14101608091387     0.13783651324116
    5     0.00008452303868     0.00015848460050     0.00077419225841     0.00094550266450     0.00142302593417
    6     0.00085747477853     0.00056486649799     0.14318025012471     1.53069091869801     0.13851734584668
    7     0.00345276051945     0.00725925064154     0.00084594123231     0.00111064424324     0.00403606829615
    8     0.00014638900544     0.00018258042775     0.00004061036091     0.00002981670819     0.00010135991275
    9     0.00172190087170     0.00162233199410     0.00015812683744     0.00016186339085     0.00035359445385
   10     0.00055657410493     0.00145424183476     0.00034518620243     0.00032897889277     0.00161610136213
   11     0.00041377293052     0.00134027271918     0.00022465371864     0.00024515877483     0.00181188200143
   12     0.13444470444819     0.13712588861983     0.00585824148197     0.00158420208854     0.00148464428056
   13     0.14305463355544     0.13907313205028     0.00177031461750     0.00056500882463     0.00079040334185
   14     1.52113423424725     0.13929926610356     0.00650679100620     0.00184407183022     0.00139101814724
   15     0.13740804304790     1.52006954606803     0.00072519372065     0.00032132803458     0.00030941220239
   16     0.00000000000000     1.51026652776206     0.00281322270733     0.00069073288520     0.00034311341420
   17     1.51026652776206     0.00000000000000     0.00068981655436     0.00030490387624     0.00025906207852
   18     0.00281322270733     0.00068981655436     0.00000000000000     0.13823424335436     1.51826729040822
   19     0.00069073288520     0.00030490387624     0.13823424335436     0.00000000000000     1.51372172660822
   20     0.00034311341420     0.00025906207852     1.51826729040822     1.51372172660822     0.00000000000000
   21     0.00187919004895     0.00102729879800     0.05361557360762     0.00212548488679     0.00991547608702
   22     0.00002553709610     0.00001303136003     0.00252895791461     0.05660293907177     0.01088470882703
   23     0.00002767103939     0.00003587173284     0.00000345238063     0.00000312800307     0.00000295675150
   24     0.00033243811427     0.00144713888129     0.00040829007392     0.00031628985828     0.00171886770137
   25     0.00203931113081     0.01020945523354     0.00002509953940     0.00000442120975     0.00001207173017
   26     0.05415629232062     0.01010996172449     0.00068700450275     0.00027288493100     0.00022081935118
   27     0.01121530411699     0.05880665784355     0.00001004759779     0.00000497845973     0.00001175169079
   28     0.83240989177509     0.05875794459798     0.00004337682625     0.00001368323484     0.00000734506297
   29     0.05882911124152     0.83539608412075     0.00001269755940     0.00000333559309     0.00000132709788
   30     0.00006916323767     0.00002637654680     0.83297397848191     0.01140712654012     0.05867332328152
   31     0.00000666173193     0.00000880038885     0.01135890772190     0.83387780087291     0.05855930259282
   32     0.00057467893051     0.00036406512524     0.00003478744819     0.00001669557980     0.00001576621285
   33     0.00001439753007     0.00000855600150     0.00000607532599     0.00000735083501     0.00000298981502
   34     0.00000763076085     0.00000748227155     0.05924267221599     0.05912835305304     0.83556736294136

                21                  22                  23                  24                  25

    1     0.00787895231712     0.00204399660663     0.00151685600662     0.07869014573320     0.01657296756844
    2     0.01339030867885     0.02000328474661     0.00028904795878     0.11499845240933     0.00073230289381
    3     0.05333350739541     0.05706085985168     0.00005908375899     0.01111551116168     0.00026821634980
    4     0.79245462250559     0.00988171300524     0.00002398232593     0.00348289512198     0.00078424416306
    5     0.00004615873515     0.00101633970953     0.00010047813834     0.06363822754159     0.00002602563844
    6     0.00869649705791     0.81636745063027     0.00001967338807     0.00502038476769     0.00002176629426
    7     0.00077965612021     0.00035274999388     0.01148489066025     0.14044846202261     0.00869554716947
    8     0.00003389235498     0.00000708833223     0.80946215399471     0.21257449060270     0.00039826343923
    9     0.00014805541882     0.00004421648866     0.01060439921346     0.02213241690306     0.00925581071297
   10     0.00009749167277     0.00019828668867     0.04352948966990     2.02504297795265     0.00057184950919
   11     0.00003814292945     0.00005752106505     0.04124252695228     0.02425543108096     0.00081527091663
   12     0.01453083728541     0.00028271339097     0.00044663920190     0.00451310702307     0.05494346244437
   13     0.00812719542728     0.00004315726813     0.00012696022287     0.00302163406399     0.80534921571849
   14     0.00723721859272     0.00023513668455     0.00010195374834     0.00290929504691     0.00929528493288
   15     0.00174341790721     0.00001574621396     0.00002779741602     0.00034759298626     0.05444985789704
   16     0.00187919004895     0.00002553709610     0.00002767103939     0.00033243811427     0.00203931113081
   17     0.00102729879800     0.00001303136003     0.00003587173284     0.00144713888129     0.01020945523354
   18     0.05361557360762     0.00252895791461     0.00000345238063     0.00040829007392     0.00002509953940
   19     0.00212548488679     0.05660293907177     0.00000312800307     0.00031628985828     0.00000442120975
   20     0.00991547608702     0.01088470882703     0.00000295675150     0.00171886770137     0.00001207173017
   21     0.00000000000000     0.00040535351096     0.00000167442333     0.00008213544609     0.00036111203911
   22     0.00040535351096     0.00000000000000     0.00000089580466     0.00030530514100     0.00000546922153
   23     0.00000167442333     0.00000089580466     0.00000000000000     0.00992697228479     0.00000770626770
   24     0.00008213544609     0.00030530514100     0.00992697228479     0.00000000000000     0.00015405406943
   25     0.00036111203911     0.00000546922153     0.00000770626770     0.00015405406943     0.00000000000000
   26     0.00042822668884     0.00011953216534     0.00000244426631     0.00015802326345     0.00033551095165
   27     0.00001628038146     0.00000050364401     0.00000088513200     0.00002551988531     0.00513445420450
   28     0.00000786359461     0.00000284667831     0.00000093612415     0.00004908100937     0.00024302357385
   29     0.00000202140698     0.00000156611988     0.00000034161361     0.00000468256489     0.00024828884257
   30     0.00542382109972     0.00023841893138     0.00000056957954     0.00005420861610     0.00000212098816
   31     0.00020875111560     0.00527164612602     0.00000025136078     0.00000800981585     0.00000039070914
   32     0.00006278433822     0.00000342323367     0.00045929246031     0.00194854996550     0.00122255373659
   33     0.00000620831230     0.00000139939269     0.00273484858357     0.00157151834624     0.00001019529280
   34     0.00021701662298     0.00022335053917     0.00000018233177     0.00000952374206     0.00000240895591

                26                  27                  28                  29                  30

    1     0.01605173994781     0.00119273442906     0.00119894529545     0.00027405731650     0.00023948659737
    2     0.00777113159324     0.00029212268942     0.00009107231862     0.00006448596049     0.00087803480425
    3     0.00776903846150     0.00006083510358     0.00012354389863     0.00002279260068     0.01082624976378
    4     0.00500993137870     0.00008149266432     0.00022519377110     0.00003076829698     0.06037968991880
    5     0.00015547827623     0.00001815292348     0.00000485727731     0.00000731801434     0.00021030220135
    6     0.00230140105390     0.00002401125248     0.00002171619969     0.00000939925961     0.00242936890885
    7     0.00192150600003     0.00018093695234     0.00038197891481     0.00006629400182     0.00008304195022
    8     0.00005675978810     0.00001182619100     0.00001694264521     0.00000720985354     0.00000378914733
    9     0.00019209478970     0.00010496264026     0.00007908812230     0.00003015245489     0.00001537576948
   10     0.00012931883146     0.00003115397615     0.00008305509388     0.00001514825859     0.00005242060474
   11     0.00003400305338     0.00003787445351     0.00005949521920     0.00000783953209     0.00002357591279
   12     0.05441973337632     0.01069286508005     0.01066557381484     0.00289544421097     0.00019091905932
   13     0.00907806179254     0.06003721312821     0.00247392576794     0.01121513248251     0.00006193108318
   14     0.80103083433069     0.00250449147951     0.06023633196795     0.01120734163055     0.00016945896031
   15     0.00198422557160     0.83318102864146     0.01116181225072     0.05893519636161     0.00001904144253
   16     0.05415629232062     0.01121530411699     0.83240989177509     0.05882911124152     0.00006916323767
   17     0.01010996172449     0.05880665784355     0.05875794459798     0.83539608412075     0.00002637654680
   18     0.00068700450275     0.00001004759779     0.00004337682625     0.00001269755940     0.83297397848191
   19     0.00027288493100     0.00000497845973     0.00001368323484     0.00000333559309     0.01140712654012
   20     0.00022081935118     0.00001175169079     0.00000734506297     0.00000132709788     0.05867332328152
   21     0.00042822668884     0.00001628038146     0.00000786359461     0.00000202140698     0.00542382109972
   22     0.00011953216534     0.00000050364401     0.00000284667831     0.00000156611988     0.00023841893138
   23     0.00000244426631     0.00000088513200     0.00000093612415     0.00000034161361     0.00000056957954
   24     0.00015802326345     0.00002551988531     0.00004908100937     0.00000468256489     0.00005420861610
   25     0.00033551095165     0.00513445420450     0.00024302357385     0.00024828884257     0.00000212098816
   26     0.00000000000000     0.00023654449922     0.00519948654139     0.00024066880415     0.00000154866631
   27     0.00023654449922     0.00000000000000     0.00024883341645     0.00521531977947     0.00000168843301
   28     0.00519948654139     0.00024883341645     0.00000000000000     0.00520735487125     0.00000178314578
   29     0.00024066880415     0.00521531977947     0.00520735487125     0.00000000000000     0.00000170275900
   30     0.00000154866631     0.00000168843301     0.00000178314578     0.00000170275900     0.00000000000000
   31     0.00000078769630     0.00000002918524     0.00000078791832     0.00000001232321     0.00027358164811
   32     0.00000144414100     0.00003408511608     0.00000281174386     0.00000944013405     0.00000127729950
   33     0.00000720703164     0.00000372362210     0.00000114167273     0.00000061666870     0.00000053514508
   34     0.00000279101392     0.00000002855534     0.00000119033024     0.00000005076265     0.00517087867634

                31                  32                  33                  34

    1     0.00035783566783     0.01035324355484     0.00167366562330     0.00005858093273
    2     0.00086115444463     0.00017368161556     0.00038858615095     0.00024744952888
    3     0.01078167380781     0.00009637516893     0.00011650367880     0.00292910219513
    4     0.00254701191976     0.00011662490372     0.00002507770889     0.01121322157395
    5     0.00003141235554     0.00004976107670     0.00017352928902     0.00001660915612
    6     0.06066612016260     0.00005165853845     0.00004544498350     0.01128894443032
    7     0.00006501433191     0.04784081331853     0.01383564513539     0.00001842366349
    8     0.00000179167463     0.01112680492827     0.05477097646528     0.00000129887219
    9     0.00001961687421     0.81389923565734     0.05852384127198     0.00000370958096
   10     0.00001786052868     0.00944006811824     0.01215800495031     0.00000899079245
   11     0.00000467759499     0.05915834084644     0.83541713748548     0.00000206497266
   12     0.00006826394713     0.00856118343384     0.00031303233348     0.00005186363437
   13     0.00003261568310     0.01240962320665     0.00019354354333     0.00003814016100
   14     0.00003813020671     0.00117815838013     0.00006426109218     0.00003344547318
   15     0.00001035237125     0.00212133079749     0.00001990029490     0.00000975059574
   16     0.00000666173193     0.00057467893051     0.00001439753007     0.00000763076085
   17     0.00000880038885     0.00036406512524     0.00000855600150     0.00000748227155
   18     0.01135890772190     0.00003478744819     0.00000607532599     0.05924267221599
   19     0.83387780087291     0.00001669557980     0.00000735083501     0.05912835305304
   20     0.05855930259282     0.00001576621285     0.00000298981502     0.83556736294136
   21     0.00020875111560     0.00006278433822     0.00000620831230     0.00021701662298
   22     0.00527164612602     0.00000342323367     0.00000139939269     0.00022335053917
   23     0.00000025136078     0.00045929246031     0.00273484858357     0.00000018233177
   24     0.00000800981585     0.00194854996550     0.00157151834624     0.00000952374206
   25     0.00000039070914     0.00122255373659     0.00001019529280     0.00000240895591
   26     0.00000078769630     0.00000144414100     0.00000720703164     0.00000279101392
   27     0.00000002918524     0.00003408511608     0.00000372362210     0.00000002855534
   28     0.00000078791832     0.00000281174386     0.00000114167273     0.00000119033024
   29     0.00000001232321     0.00000944013405     0.00000061666870     0.00000005076265
   30     0.00027358164811     0.00000127729950     0.00000053514508     0.00517087867634
   31     0.00000000000000     0.00000054002780     0.00000183885346     0.00515747448262
   32     0.00000054002780     0.00000000000000     0.00251335427494     0.00000046358901
   33     0.00000183885346     0.00251335427494     0.00000000000000     0.00000020891686
   34     0.00515747448262     0.00000046358901     0.00000020891686     0.00000000000000



  Atomic Valences: 

 #  #
 Irrep: 1
      1:    4.793878595497490
      2:    4.207920169570515
      3:    4.780581740457062
      4:    4.490178288848799
      5:    0.928864525926925
      6:    4.454069159713035
      7:    4.636829717220293
      8:    4.059457635993551
      9:    4.422590236784270
     10:    5.050222896183344
     11:    4.450392887641279
     12:    4.745195036600356
     13:    4.512497560485472
     14:    4.499258324900953
     15:    4.456027409575862
     16:    4.454222041644015
     17:    4.455185762413977
     18:    4.454107981138272
     19:    4.452763821385256
     20:    4.452060672565182
     21:    0.984322226807452
     22:    0.984245145454235
     23:    0.932246012796381
     24:    2.730711633196900
     25:    0.982197733344702
     26:    0.980086436804752
     27:    0.989418337167864
     28:    0.989022914675104
     29:    0.989963202498228
     30:    0.989904789200350
     31:    0.990239106141617
     32:    0.983842916902246
     33:    0.984611315627484
     34:    0.990660665324830


    Psi4 stopped on: Thursday, 09 June 2022 07:07AM
    Psi4 wall time for execution: 0:06:35.93

*** Psi4 exiting successfully. Buy a developer a beer!
