
    -----------------------------------------------------------------------
          Psi4: An Open-Source Ab Initio Electronic Structure Package
                               Psi4 1.5 release

                         Git: Rev {HEAD} e9f4d6d 


    D. G. A. Smith, L. A. Burns, A. C. Simmonett, R. M. Parrish,
    M. C. Schieber, R. Galvelis, P. Kraus, H. Kruse, R. Di Remigio,
    A. Alenaizan, A. M. James, S. Lehtola, J. P. Misiewicz, M. Scheurer,
    R. A. Shaw, J. B. Schriber, Y. Xie, Z. L. Glick, D. A. Sirianni,
    J. S. O'Brien, J. M. Waldrop, A. Kumar, E. G. Hohenstein,
    B. P. Pritchard, B. R. Brooks, H. F. Schaefer III, A. Yu. Sokolov,
    K. Patkowski, A. E. DePrince III, U. Bozkaya, R. A. King,
    F. A. Evangelista, J. M. Turney, T. D. Crawford, C. D. Sherrill,
    J. Chem. Phys. 152(18) 184108 (2020). https://doi.org/10.1063/5.0006002

                            Additional Code Authors
    E. T. Seidl, C. L. Janssen, E. F. Valeev, M. L. Leininger,
    J. F. Gonthier, R. M. Richard, H. R. McAlexander, M. Saitow, X. Wang,
    P. Verma, M. H. Lechner, and A. Jiang

             Previous Authors, Complete List of Code Contributors,
                       and Citations for Specific Modules
    https://github.com/psi4/psi4/blob/master/codemeta.json
    https://github.com/psi4/psi4/graphs/contributors
    http://psicode.org/psi4manual/master/introduction.html#citing-psifour

    -----------------------------------------------------------------------


    Psi4 started on: Thursday, 09 June 2022 07:07AM

    Process ID: 1297165
    Host:       node74.bme.utexas.edu
    PSIDATADIR: /home/bdw2292/miniconda3/envs/newamoebamdpoltype/share/psi4
    Memory:     500.0 MiB
    Threads:    1
    
  ==> Input File <==

--------------------------------------------------------------------------
molecule { 
0 1
 C   -0.546650   -0.160206    0.348469
 N    0.617440   -0.870887    0.312231
 C    1.878656   -0.586085   -0.256390
 C    2.862202   -1.572321   -0.083171
 H    0.615199   -1.653865    0.972993
 C    2.233122    0.618587   -0.875937
 C   -1.528388   -0.546916    1.235246
 N   -2.526341   -1.710176    2.898193
 C   -2.890232   -0.059658    1.409818
 C   -1.340128   -1.624701    2.203834
 C   -3.453149   -0.769730    2.412825
 C   -0.826827    0.895884   -0.657013
 C   -1.245423    2.166843   -0.256469
 C   -0.746497    0.594552   -2.021697
 C   -1.553682    3.135664   -1.209303
 C   -1.062617    1.560391   -2.969888
 C   -1.462013    2.834727   -2.566003
 C    4.150425   -1.382354   -0.564492
 C    3.528080    0.795830   -1.358495
 C    4.491641   -0.198047   -1.215981
 H    2.603790   -2.491541    0.426992
 H    1.524868    1.423104   -0.974243
 H   -2.685283   -2.378593    3.626617
 O   -0.328609   -2.362656    2.380157
 H   -1.312273    2.395002    0.798545
 H   -0.430046   -0.392524   -2.330271
 H   -1.865099    4.121244   -0.891526
 H   -0.999120    1.320723   -4.022361
 H   -1.703508    3.585952   -3.305444
 H    4.889451   -2.159450   -0.424714
 H    3.781978    1.731185   -1.838909
 H   -3.365859    0.715315    0.836114
 H   -4.440026   -0.706912    2.834360
 H    5.493753   -0.048615   -1.592594
}
memory 8.166666666666666GB
set_num_threads(2)
psi4_io.set_default_path("/scratch/bdw2292/Psi4-1_16_Index_0-farH_in17")
set freeze_core True
E, wfn = energy('wb97x-d/6-311+G*',return_wfn=True)
oeprop(wfn,"WIBERG_LOWDIN_INDICES")
clean()
--------------------------------------------------------------------------

  Memory set to   7.606 GiB by Python driver.
  Threads set to 2 by Python driver.

Scratch directory: /scratch/bdw2292/Psi4-1_16_Index_0-farH_in17/

Scratch directory: /scratch/bdw2292/Psi4-1_16_Index_0-farH_in17/

*** tstart() called on node74.bme.utexas.edu
*** at Thu Jun  9 07:07:06 2022

   => Loading Basis Set <=

    Name: 6-311+G*
    Role: ORBITAL
    Keyword: BASIS
    atoms 1, 3-4, 6-7, 9-20 entry C          line   130 file /home/bdw2292/miniconda3/envs/newamoebamdpoltype/share/psi4/basis/6-311pgs.gbs 
    atoms 2, 8              entry N          line   151 file /home/bdw2292/miniconda3/envs/newamoebamdpoltype/share/psi4/basis/6-311pgs.gbs 
    atoms 5, 21-23, 25-34   entry H          line    47 file /home/bdw2292/miniconda3/envs/newamoebamdpoltype/share/psi4/basis/6-311pgs.gbs 
    atoms 24                entry O          line   172 file /home/bdw2292/miniconda3/envs/newamoebamdpoltype/share/psi4/basis/6-311pgs.gbs 

   => WB97X-D: Empirical Dispersion <=

    Chai and Head-Gordon Dispersion Correction
    Chai, J.-D.; Head-Gordon, M. (2010), J. Chem. Phys., 132: 6615-6620

        s6 =       1.000000


         ---------------------------------------------------------
                                   SCF
               by Justin Turney, Rob Parrish, Andy Simmonett
                          and Daniel G. A. Smith
                              RKS Reference
                        2 Threads,   7788 MiB Core
         ---------------------------------------------------------

  ==> Geometry <==

    Molecular point group: c1
    Full point group: C1

    Geometry (in Angstrom), charge = 0, multiplicity = 1:

       Center              X                  Y                   Z               Mass       
    ------------   -----------------  -----------------  -----------------  -----------------
         C           -0.546650014994    -0.160205925612     0.348469145308    12.000000000000
         N            0.617439985006    -0.870886925612     0.312231145308    14.003074004430
         C            1.878655985006    -0.586084925612    -0.256389854692    12.000000000000
         C            2.862201985006    -1.572320925612    -0.083170854692    12.000000000000
         H            0.615198985006    -1.653864925612     0.972993145308     1.007825032230
         C            2.233121985006     0.618587074388    -0.875936854692    12.000000000000
         C           -1.528388014994    -0.546915925612     1.235246145308    12.000000000000
         N           -2.526341014994    -1.710175925612     2.898193145308    14.003074004430
         C           -2.890232014994    -0.059657925612     1.409818145308    12.000000000000
         C           -1.340128014994    -1.624700925612     2.203834145308    12.000000000000
         C           -3.453149014994    -0.769729925612     2.412825145308    12.000000000000
         C           -0.826827014994     0.895884074388    -0.657012854692    12.000000000000
         C           -1.245423014994     2.166843074388    -0.256468854692    12.000000000000
         C           -0.746497014994     0.594552074388    -2.021696854692    12.000000000000
         C           -1.553682014994     3.135664074388    -1.209302854692    12.000000000000
         C           -1.062617014994     1.560391074388    -2.969887854692    12.000000000000
         C           -1.462013014994     2.834727074388    -2.566002854692    12.000000000000
         C            4.150424985006    -1.382353925612    -0.564491854692    12.000000000000
         C            3.528079985006     0.795830074388    -1.358494854692    12.000000000000
         C            4.491640985006    -0.198046925612    -1.215980854692    12.000000000000
         H            2.603789985006    -2.491540925612     0.426992145308     1.007825032230
         H            1.524867985006     1.423104074388    -0.974242854692     1.007825032230
         H           -2.685283014994    -2.378592925612     3.626617145308     1.007825032230
         O           -0.328609014994    -2.362655925612     2.380157145308    15.994914619570
         H           -1.312273014994     2.395002074388     0.798545145308     1.007825032230
         H           -0.430046014994    -0.392523925612    -2.330270854692     1.007825032230
         H           -1.865099014994     4.121244074388    -0.891525854692     1.007825032230
         H           -0.999120014994     1.320723074388    -4.022360854692     1.007825032230
         H           -1.703508014994     3.585952074388    -3.305443854692     1.007825032230
         H            4.889450985006    -2.159449925612    -0.424713854692     1.007825032230
         H            3.781977985006     1.731185074388    -1.838908854692     1.007825032230
         H           -3.365859014994     0.715315074388     0.836114145308     1.007825032230
         H           -4.440026014994    -0.706911925612     2.834360145308     1.007825032230
         H            5.493752985006    -0.048614925612    -1.592593854692     1.007825032230

  Running in c1 symmetry.

  Rotational constants: A =      0.01416  B =      0.00991  C =      0.00619 [cm^-1]
  Rotational constants: A =    424.55202  B =    297.23651  C =    185.58877 [MHz]
  Nuclear repulsion = 1421.343275677276097

  Charge       = 0
  Multiplicity = 1
  Electrons    = 138
  Nalpha       = 69
  Nbeta        = 69

  ==> Algorithm <==

  SCF Algorithm Type is DF.
  DIIS enabled.
  MOM disabled.
  Fractional occupation disabled.
  Guess Type is SAD.
  Energy threshold   = 1.00e-06
  Density threshold  = 1.00e-06
  Integral threshold = 1.00e-12

  ==> Primary Basis <==

  Basis Set: 6-311+G*
    Blend: 6-311+G*
    Number of shells: 242
    Number of basis functions: 482
    Number of Cartesian functions: 502
    Spherical Harmonics?: true
    Max angular momentum: 2

  ==> DFT Potential <==

   => LibXC <=

    Version 5.1.5
    S. Lehtola, C. Steigemann, M. J. Oliveira, and M. A. Marques, SoftwareX 7, 1 (2018) (10.1016/j.softx.2017.11.002)

   => Composite Functional: WB97X-D <= 

    wB97X-D Hyb-GGA Exchange-Correlation Functional

    J.-D. Chai and M. Head-Gordon, Phys. Chem. Chem. Phys. 10, 6615 (2008) (10.1039/B810189B)

    Deriv               =              1
    GGA                 =           TRUE
    Meta                =          FALSE

    Exchange Hybrid     =           TRUE
    MP2 Hybrid          =          FALSE

   => Exchange-Correlation Functionals <=

    1.0000   wB97X-D range-separated functional

   => Exact (HF) Exchange <=

    0.7780            HF,LR [omega = 0.2000]
    0.2220               HF 

   => LibXC Density Thresholds  <==

    XC_HYB_GGA_XC_WB97X_D:  1.00E-14 

   => Molecular Quadrature <=

    Radial Scheme          =       TREUTLER
    Pruning Scheme         =           NONE
    Nuclear Scheme         =       TREUTLER

    BS radius alpha        =              1
    Pruning alpha          =              1
    Radial Points          =             75
    Spherical Points       =            302
    Total Points           =         703511
    Total Blocks           =           5044
    Max Points             =            256
    Max Functions          =            382
    Weights Tolerance      =       1.00E-15

   => Loading Basis Set <=

    Name: (6-311+G* AUX)
    Role: JKFIT
    Keyword: DF_BASIS_SCF
    atoms 1, 3-4, 6-7, 9-20 entry C          line   200 file /home/bdw2292/miniconda3/envs/newamoebamdpoltype/share/psi4/basis/heavy-aug-cc-pvtz-jkfit.gbs 
    atoms 2, 8              entry N          line   262 file /home/bdw2292/miniconda3/envs/newamoebamdpoltype/share/psi4/basis/heavy-aug-cc-pvtz-jkfit.gbs 
    atoms 5, 21-23, 25-34   entry H          line   116 file /home/bdw2292/miniconda3/envs/newamoebamdpoltype/share/psi4/basis/heavy-aug-cc-pvtz-jkfit.gbs 
    atoms 24                entry O          line   324 file /home/bdw2292/miniconda3/envs/newamoebamdpoltype/share/psi4/basis/heavy-aug-cc-pvtz-jkfit.gbs 

  ==> Integral Setup <==

  ==> DiskDFJK: Density-Fitted J/K Matrices <==

    J tasked:                  Yes
    K tasked:                  Yes
    wK tasked:                 Yes
    Omega:               2.000E-01
    OpenMP threads:              2
    Integrals threads:           2
    Memory [MiB]:             1959
    Algorithm:                Disk
    Integral Cache:           NONE
    Schwarz Cutoff:          1E-12
    Fitting Condition:       1E-10

   => Auxiliary Basis Set <=

  Basis Set: (6-311+G* AUX)
    Blend: HEAVY-AUG-CC-PVTZ-JKFIT
    Number of shells: 740
    Number of basis functions: 2500
    Number of Cartesian functions: 3110
    Spherical Harmonics?: true
    Max angular momentum: 4

  Cached 50.0% of DFT collocation blocks in 2.745 [GiB].

  Minimum eigenvalue in the overlap matrix is 1.8192899127E-07.
  Reciprocal condition number of the overlap matrix is 1.0708570681E-08.
    Using symmetric orthogonalization.

  ==> Pre-Iterations <==

  SCF Guess: Superposition of Atomic Densities via on-the-fly atomic UHF (no occupation information).

   -------------------------
    Irrep   Nso     Nmo    
   -------------------------
     A        482     482 
   -------------------------
    Total     482     482
   -------------------------

  ==> Iterations <==

                           Total Energy        Delta E     RMS |[F,P]|

   @DF-RKS iter SAD:  -840.42324579423837   -8.40423e+02   0.00000e+00 
   @DF-RKS iter   1:  -840.06743213445714    3.55814e-01   2.62791e-03 DIIS
   @DF-RKS iter   2:  -840.43627460951586   -3.68842e-01   2.06686e-03 DIIS
   @DF-RKS iter   3:  -840.85804729581923   -4.21773e-01   3.63647e-04 DIIS
   @DF-RKS iter   4:  -840.86766836581864   -9.62107e-03   1.68497e-04 DIIS
   @DF-RKS iter   5:  -840.87018474063086   -2.51637e-03   3.98900e-05 DIIS
   @DF-RKS iter   6:  -840.87033764489661   -1.52904e-04   1.25676e-05 DIIS
   @DF-RKS iter   7:  -840.87035547366236   -1.78288e-05   3.53576e-06 DIIS
   @DF-RKS iter   8:  -840.87035713991975   -1.66626e-06   1.51014e-06 DIIS
   @DF-RKS iter   9:  -840.87035763441475   -4.94495e-07   4.89608e-07 DIIS
  Energy and wave function converged.


  ==> Post-Iterations <==

   Electrons on quadrature grid:
      Ntotal   =  138.0000355656 ; deviation = 3.557e-05 

    Orbital Energies [Eh]
    ---------------------

    Doubly Occupied:                                                      

       1A    -19.209110     2A    -14.473335     3A    -14.467845  
       4A    -10.381720     5A    -10.366970     6A    -10.342773  
       7A    -10.319581     8A    -10.318801     9A    -10.307106  
      10A    -10.306333    11A    -10.306103    12A    -10.305336  
      13A    -10.304682    14A    -10.292613    15A    -10.292599  
      16A    -10.290680    17A    -10.289359    18A    -10.287122  
      19A    -10.286128    20A    -10.281385    21A     -1.126839  
      22A     -1.071640    23A     -1.051415    24A     -0.982406  
      25A     -0.960971    26A     -0.911934    27A     -0.875058  
      28A     -0.865890    29A     -0.853912    30A     -0.853179  
      31A     -0.814445    32A     -0.770942    33A     -0.727412  
      34A     -0.724450    35A     -0.712750    36A     -0.696400  
      37A     -0.681084    38A     -0.663553    39A     -0.637843  
      40A     -0.616587    41A     -0.601144    42A     -0.583706  
      43A     -0.582864    44A     -0.563567    45A     -0.554795  
      46A     -0.535342    47A     -0.531601    48A     -0.528894  
      49A     -0.523399    50A     -0.515601    51A     -0.514684  
      52A     -0.510883    53A     -0.499647    54A     -0.493718  
      55A     -0.480738    56A     -0.475353    57A     -0.450347  
      58A     -0.449179    59A     -0.445081    60A     -0.436371  
      61A     -0.431060    62A     -0.408231    63A     -0.368897  
      64A     -0.349898    65A     -0.342832    66A     -0.338577  
      67A     -0.332588    68A     -0.307342    69A     -0.259157  

    Virtual:                                                              

      70A     -0.004506    71A      0.035761    72A      0.044574  
      73A      0.052955    74A      0.057458    75A      0.061491  
      76A      0.067049    77A      0.072842    78A      0.077931  
      79A      0.079735    80A      0.082531    81A      0.084057  
      82A      0.094300    83A      0.096168    84A      0.099477  
      85A      0.105271    86A      0.109122    87A      0.110777  
      88A      0.118680    89A      0.120524    90A      0.124909  
      91A      0.128583    92A      0.135595    93A      0.136600  
      94A      0.144632    95A      0.148624    96A      0.152207  
      97A      0.156605    98A      0.163193    99A      0.172842  
     100A      0.175189   101A      0.176979   102A      0.178245  
     103A      0.180356   104A      0.182930   105A      0.189273  
     106A      0.194151   107A      0.198647   108A      0.201204  
     109A      0.202632   110A      0.206743   111A      0.209232  
     112A      0.210618   113A      0.213494   114A      0.216273  
     115A      0.218949   116A      0.222707   117A      0.224728  
     118A      0.229942   119A      0.230774   120A      0.236086  
     121A      0.244988   122A      0.246618   123A      0.248023  
     124A      0.251790   125A      0.255252   126A      0.259036  
     127A      0.260673   128A      0.261557   129A      0.264357  
     130A      0.265703   131A      0.268185   132A      0.269825  
     133A      0.274774   134A      0.276711   135A      0.280913  
     136A      0.281682   137A      0.283573   138A      0.287509  
     139A      0.291224   140A      0.294509   141A      0.299028  
     142A      0.301893   143A      0.302450   144A      0.305596  
     145A      0.310423   146A      0.313319   147A      0.317035  
     148A      0.319190   149A      0.322182   150A      0.326654  
     151A      0.330240   152A      0.332734   153A      0.339650  
     154A      0.343825   155A      0.346891   156A      0.350740  
     157A      0.352924   158A      0.357781   159A      0.359832  
     160A      0.364107   161A      0.371336   162A      0.375504  
     163A      0.379418   164A      0.382360   165A      0.388239  
     166A      0.392617   167A      0.396225   168A      0.401032  
     169A      0.404723   170A      0.408732   171A      0.414495  
     172A      0.418972   173A      0.421249   174A      0.426280  
     175A      0.429197   176A      0.435997   177A      0.443130  
     178A      0.449083   179A      0.453419   180A      0.462535  
     181A      0.467884   182A      0.475023   183A      0.487955  
     184A      0.495004   185A      0.508986   186A      0.517819  
     187A      0.534100   188A      0.543026   189A      0.561711  
     190A      0.573475   191A      0.582919   192A      0.598737  
     193A      0.604445   194A      0.609690   195A      0.612802  
     196A      0.615586   197A      0.624256   198A      0.629546  
     199A      0.631684   200A      0.636272   201A      0.644698  
     202A      0.649887   203A      0.650247   204A      0.660433  
     205A      0.665731   206A      0.672655   207A      0.677794  
     208A      0.684229   209A      0.691547   210A      0.697105  
     211A      0.702305   212A      0.709618   213A      0.714426  
     214A      0.719917   215A      0.724970   216A      0.738429  
     217A      0.740704   218A      0.750058   219A      0.755085  
     220A      0.766011   221A      0.768641   222A      0.772798  
     223A      0.779297   224A      0.786211   225A      0.790998  
     226A      0.796689   227A      0.800775   228A      0.806736  
     229A      0.812538   230A      0.818794   231A      0.825944  
     232A      0.828224   233A      0.830153   234A      0.834134  
     235A      0.839553   236A      0.845650   237A      0.847266  
     238A      0.859472   239A      0.871115   240A      0.874413  
     241A      0.886061   242A      0.889630   243A      0.899151  
     244A      0.907970   245A      0.915355   246A      0.919088  
     247A      0.924982   248A      0.927597   249A      0.934359  
     250A      0.941375   251A      0.948545   252A      0.950227  
     253A      0.955816   254A      0.965222   255A      0.973803  
     256A      0.984949   257A      0.997783   258A      1.009487  
     259A      1.013790   260A      1.020849   261A      1.025908  
     262A      1.031673   263A      1.047818   264A      1.052887  
     265A      1.067385   266A      1.073682   267A      1.088342  
     268A      1.090576   269A      1.102698   270A      1.105284  
     271A      1.119126   272A      1.128574   273A      1.131274  
     274A      1.151159   275A      1.164901   276A      1.172605  
     277A      1.181014   278A      1.199430   279A      1.200671  
     280A      1.218501   281A      1.226565   282A      1.235305  
     283A      1.237298   284A      1.257307   285A      1.267689  
     286A      1.273096   287A      1.284264   288A      1.294125  
     289A      1.298654   290A      1.301563   291A      1.310944  
     292A      1.324843   293A      1.350778   294A      1.355231  
     295A      1.371586   296A      1.374628   297A      1.382668  
     298A      1.400978   299A      1.412237   300A      1.424266  
     301A      1.442417   302A      1.466416   303A      1.486830  
     304A      1.517430   305A      1.572817   306A      1.587377  
     307A      1.602805   308A      1.609550   309A      1.616237  
     310A      1.633049   311A      1.640095   312A      1.644813  
     313A      1.651355   314A      1.679052   315A      1.691844  
     316A      1.695769   317A      1.733056   318A      1.746104  
     319A      1.764067   320A      1.795401   321A      1.825513  
     322A      1.845684   323A      1.848344   324A      1.857586  
     325A      1.866609   326A      1.869869   327A      1.879168  
     328A      1.885452   329A      1.892568   330A      1.910168  
     331A      1.920460   332A      1.928170   333A      1.930558  
     334A      1.946637   335A      1.948697   336A      1.964001  
     337A      1.973381   338A      1.989861   339A      1.996091  
     340A      2.013132   341A      2.021410   342A      2.027438  
     343A      2.035029   344A      2.050062   345A      2.053229  
     346A      2.075069   347A      2.077008   348A      2.088474  
     349A      2.099237   350A      2.102368   351A      2.111854  
     352A      2.144338   353A      2.164130   354A      2.207168  
     355A      2.244468   356A      2.288540   357A      2.303393  
     358A      2.323405   359A      2.328150   360A      2.351215  
     361A      2.354342   362A      2.356671   363A      2.374782  
     364A      2.382892   365A      2.390088   366A      2.407665  
     367A      2.409274   368A      2.419713   369A      2.437479  
     370A      2.461009   371A      2.477854   372A      2.483306  
     373A      2.506357   374A      2.524843   375A      2.538158  
     376A      2.548846   377A      2.561459   378A      2.578872  
     379A      2.617284   380A      2.646338   381A      2.691789  
     382A      2.738808   383A      2.755519   384A      2.773716  
     385A      2.777374   386A      2.790940   387A      2.799040  
     388A      2.853329   389A      2.857057   390A      2.867505  
     391A      2.888375   392A      2.890276   393A      2.900502  
     394A      2.902380   395A      2.922787   396A      2.938530  
     397A      2.953493   398A      2.970134   399A      2.982910  
     400A      2.996583   401A      3.024509   402A      3.034370  
     403A      3.048347   404A      3.052622   405A      3.071538  
     406A      3.085337   407A      3.110037   408A      3.119108  
     409A      3.145432   410A      3.162420   411A      3.191112  
     412A      3.197244   413A      3.239358   414A      3.263790  
     415A      3.288197   416A      3.321139   417A      3.329629  
     418A      3.398446   419A      3.404046   420A      3.410337  
     421A      3.420903   422A      3.423552   423A      3.427762  
     424A      3.433649   425A      3.436578   426A      3.449621  
     427A      3.458098   428A      3.464251   429A      3.512039  
     430A      3.535755   431A      3.554649   432A      3.572061  
     433A      3.615563   434A      3.637237   435A      3.646998  
     436A      3.684934   437A      3.715215   438A      3.737479  
     439A      3.772779   440A      3.778415   441A      3.791837  
     442A      3.881697   443A      3.918335   444A      3.980293  
     445A      4.013244   446A      4.042372   447A      4.098121  
     448A      4.134151   449A      4.149469   450A      4.176346  
     451A      4.224631   452A      4.354151   453A      4.528717  
     454A      4.649099   455A      4.679893   456A      4.880058  
     457A      4.895713   458A      5.125207   459A      5.194155  
     460A      5.270933   461A      5.409649   462A      5.915903  
     463A     23.502473   464A     23.544221   465A     23.717050  
     466A     23.936827   467A     23.981623   468A     23.998440  
     469A     24.015105   470A     24.028701   471A     24.034008  
     472A     24.140260   473A     24.156360   474A     24.171356  
     475A     24.187277   476A     24.233199   477A     24.276110  
     478A     24.280707   479A     24.292286   480A     35.647858  
     481A     35.751640   482A     50.192784  

    Final Occupation by Irrep:
              A 
    DOCC [    69 ]

  @DF-RKS Final Energy:  -840.87035763441475

   => Energetics <=

    Nuclear Repulsion Energy =           1421.3432756772760968
    One-Electron Energy =               -3961.3445228370301265
    Two-Electron Energy =                1781.8417732568473184
    DFT Exchange-Correlation Energy =     -82.6866721884034916
    Empirical Dispersion Energy =          -0.0242115431048019
    VV10 Nonlocal Energy =                  0.0000000000000000
    Total Energy =                       -840.8703576344147450

Computation Completed


Properties will be evaluated at   0.000000,   0.000000,   0.000000 [a0]

Properties computed using the SCF density matrix

  Nuclear Dipole Moment: [e a0]
     X:     1.9800      Y:     5.1157      Z:    -5.5144

  Electronic Dipole Moment: [e a0]
     X:    -2.6308      Y:    -4.1738      Z:     4.8736

  Dipole Moment: [e a0]
     X:    -0.6508      Y:     0.9418      Z:    -0.6408     Total:     1.3119

  Dipole Moment: [D]
     X:    -1.6541      Y:     2.3939      Z:    -1.6287     Total:     3.3346


*** tstop() called on node74.bme.utexas.edu at Thu Jun  9 07:13:47 2022
Module time:
	user time   =     752.73 seconds =      12.55 minutes
	system time =      27.55 seconds =       0.46 minutes
	total time  =        401 seconds =       6.68 minutes
Total time:
	user time   =     752.73 seconds =      12.55 minutes
	system time =      27.55 seconds =       0.46 minutes
	total time  =        401 seconds =       6.68 minutes


Properties will be evaluated at   0.000000,   0.000000,   0.000000 [a0]
OEProp: No title given, name of density matrix used for the following properties is 'SCF density'


  Wiberg Bond Indices using Orthogonal Lowdin Orbitals:

  Irrep: 1 Size: 34 x 34

                 1                   2                   3                   4                   5

    1     0.00000000000000     1.38277865373536     0.09917707988369     0.02776877500175     0.04232853456857
    2     1.38277865373536     0.00000000000000     1.19455445007343     0.13749474868510     0.72073324234540
    3     0.09917707988369     1.19455445007343     0.00000000000000     1.38827388879727     0.03923934736244
    4     0.02776877500175     0.13749474868510     1.38827388879727     0.00000000000000     0.01437096407242
    5     0.04232853456857     0.72073324234540     0.03923934736244     0.01437096407242     0.00000000000000
    6     0.03616142845738     0.11933105138770     1.39170826948360     0.12563402790088     0.00659410030102
    7     1.43340042424144     0.17362928648048     0.02348245079890     0.00858309257671     0.01400719413470
    8     0.01812128618567     0.00551659807166     0.00064765600180     0.00041518336495     0.00124417516986
    9     0.10945793803584     0.02076197054090     0.00276425257622     0.00106660655795     0.00109406871657
   10     0.12971507890398     0.06243183543950     0.00597911949604     0.00401674736413     0.01324511150590
   11     0.06783481523360     0.02423018022798     0.00264309455714     0.00281290617794     0.00038443290157
   12     1.00709771728995     0.09799179957872     0.02608617548300     0.00375334288569     0.00762090813495
   13     0.11911750780161     0.01855970144051     0.00508430249400     0.00083105847134     0.00094134386542
   14     0.11768900396528     0.03616319375449     0.02060410505864     0.00317763420773     0.00096525364392
   15     0.01672239031625     0.00219381129101     0.00137249995486     0.00028007658386     0.00025285466166
   16     0.01763905523140     0.00341669096864     0.00379542459764     0.00040715557526     0.00008299659695
   17     0.01063233004467     0.00339910287174     0.00106359927182     0.00036872578674     0.00015117929078
   18     0.00322361269663     0.01860166469190     0.13384473432843     1.54105763747577     0.00127682569131
   19     0.00356906092267     0.01680576695613     0.13564636707485     0.14288550112344     0.00076282817143
   20     0.00705299007619     0.01547582415538     0.13170980501684     0.13867106602341     0.00063786525997
   21     0.00185529682483     0.02079594176222     0.05629253703729     0.81534755350174     0.00230312643186
   22     0.00695964365594     0.01146560856198     0.05258298999501     0.00884620622055     0.00008699197828
   23     0.00150943222809     0.00028618430935     0.00005443207791     0.00002641935813     0.00010315008588
   24     0.07811353157730     0.11410262939294     0.01066107485601     0.00800194531865     0.06558871598584
   25     0.01666017767062     0.00070304743245     0.00023788190780     0.00002206448544     0.00002657659542
   26     0.01637907940354     0.00726350666061     0.00591195716195     0.00067211506564     0.00013109582649
   27     0.00119122725771     0.00027920756917     0.00005785724629     0.00001971265016     0.00001782663570
   28     0.00121653825534     0.00009562244857     0.00008249418939     0.00001323035305     0.00000496830947
   29     0.00027248415297     0.00005831388876     0.00002030343065     0.00000508207823     0.00000732870837
   30     0.00035255196767     0.00086233624186     0.01079616221751     0.06099143161243     0.00003008282104
   31     0.00021905469294     0.00089217587104     0.01086878558141     0.00249069543224     0.00026176468472
   32     0.01042435884970     0.00015821965500     0.00008572230789     0.00004526368301     0.00004651037903
   33     0.00166457042296     0.00038272913742     0.00011848129211     0.00005277077495     0.00017682766860
   34     0.00006395890343     0.00026721785054     0.00282654040412     0.01123385269163     0.00001507525389

                 6                   7                   8                   9                  10

    1     0.03616142845738     1.43340042424144     0.01812128618567     0.10945793803584     0.12971507890398
    2     0.11933105138770     0.17362928648048     0.00551659807166     0.02076197054090     0.06243183543950
    3     1.39170826948360     0.02348245079890     0.00064765600180     0.00276425257622     0.00597911949604
    4     0.12563402790088     0.00858309257671     0.00041518336495     0.00106660655795     0.00401674736413
    5     0.00659410030102     0.01400719413470     0.00124417516986     0.00109406871657     0.01324511150590
    6     0.00000000000000     0.00969484188994     0.00026925295638     0.00122336928037     0.00354767411613
    7     0.00969484188994     0.00000000000000     0.13495209079062     1.14699436348365     1.08833343603114
    8     0.00026925295638     0.13495209079062     0.00000000000000     0.19549894417565     1.34881809998121
    9     0.00122336928037     1.14699436348365     0.19549894417565     0.00000000000000     0.13372656865225
   10     0.00354767411613     1.08833343603114     1.34881809998121     0.13372656865225     0.00000000000000
   11     0.00310614635250     0.16421403273730     1.26018134051228     1.80455395621553     0.13885558308842
   12     0.03994988155780     0.11589106606903     0.00275160059943     0.03648248126576     0.01506530772531
   13     0.01735368743765     0.04777390114031     0.00186640384168     0.03732733946887     0.00546222562654
   14     0.03803187900361     0.02985587624370     0.00073224946892     0.00770964066098     0.00418039377823
   15     0.00490544686318     0.00468045377793     0.00033684900363     0.00690286709531     0.00062796971627
   16     0.01139036013769     0.00370789360570     0.00016870074815     0.00191613244745     0.00056276942155
   17     0.00431177661172     0.00720820842849     0.00020067254158     0.00175245346696     0.00147495792638
   18     0.13912145230851     0.00135281296140     0.00003613132683     0.00016663511843     0.00040305218124
   19     1.51379340754857     0.00082050977937     0.00003753450817     0.00015076621131     0.00037165498012
   20     0.13737482479607     0.00534100225305     0.00012729921644     0.00048875908427     0.00218900847258
   21     0.00979992815849     0.00021880510421     0.00002267944225     0.00004372152942     0.00037060330254
   22     0.78731783648313     0.00043412446189     0.00003181116870     0.00017135445880     0.00009160213483
   23     0.00002062196522     0.01147652267034     0.80927101228163     0.01058175250600     0.04361152035707
   24     0.00370343981082     0.13992463975745     0.21277312558228     0.02209389003737     2.02350205751164
   25     0.00050054298051     0.00827392208085     0.00034826990546     0.00833375553329     0.00053274796106
   26     0.00568543591809     0.00234340862326     0.00005651614512     0.00026452448568     0.00014673180818
   27     0.00006612607355     0.00018352187085     0.00001166729499     0.00010816146458     0.00003148953653
   28     0.00026263157507     0.00039772997402     0.00001702908957     0.00007923009928     0.00008218120976
   29     0.00002980513303     0.00006225154682     0.00000678779442     0.00002629523095     0.00001363997890
   30     0.00260999587093     0.00006193804866     0.00000167001326     0.00001826596115     0.00001399024566
   31     0.06015104549212     0.00005589630118     0.00000384068427     0.00001430248529     0.00004568972606
   32     0.00012834618863     0.04768527676951     0.01112459856500     0.81267397018600     0.00938650058209
   33     0.00002524006325     0.01381967782659     0.05473710469274     0.05855848650947     0.01215791959527
   34     0.01115925026415     0.00001711402895     0.00000140802576     0.00000415848057     0.00001100341516

                11                  12                  13                  14                  15

    1     0.06783481523360     1.00709771728995     0.11911750780161     0.11768900396528     0.01672239031625
    2     0.02423018022798     0.09799179957872     0.01855970144051     0.03616319375449     0.00219381129101
    3     0.00264309455714     0.02608617548300     0.00508430249400     0.02060410505864     0.00137249995486
    4     0.00281290617794     0.00375334288569     0.00083105847134     0.00317763420773     0.00028007658386
    5     0.00038443290157     0.00762090813495     0.00094134386542     0.00096525364392     0.00025285466166
    6     0.00310614635250     0.03994988155780     0.01735368743765     0.03803187900361     0.00490544686318
    7     0.16421403273730     0.11589106606903     0.04777390114031     0.02985587624370     0.00468045377793
    8     1.26018134051228     0.00275160059943     0.00186640384168     0.00073224946892     0.00033684900363
    9     1.80455395621553     0.03648248126576     0.03732733946887     0.00770964066098     0.00690286709531
   10     0.13885558308842     0.01506530772531     0.00546222562654     0.00418039377823     0.00062796971627
   11     0.00000000000000     0.00622441567854     0.00606635925494     0.00236168849947     0.00080229325568
   12     0.00622441567854     0.00000000000000     1.41355935761818     1.39447404447564     0.13487418194410
   13     0.00606635925494     1.41355935761818     0.00000000000000     0.12784483915289     1.51004548307819
   14     0.00236168849947     1.39447404447564     0.12784483915289     0.00000000000000     0.14563343074141
   15     0.00080229325568     0.13487418194410     1.51004548307819     0.14563343074141     0.00000000000000
   16     0.00044466070355     0.13444083047717     0.14294337907246     1.52543613814013     0.13750676229351
   17     0.00126715576810     0.13741646998220     0.13916970588408     0.13959751522671     1.52339054921504
   18     0.00033258714038     0.00117115074180     0.00029977412790     0.00131017470669     0.00026064094516
   19     0.00024798018933     0.00498430509524     0.00142912878899     0.00551109016065     0.00066663133004
   20     0.00244985326449     0.00138096784969     0.00064508517006     0.00093615311240     0.00017778671398
   21     0.00002135461821     0.00031563613301     0.00006022688149     0.00009890453892     0.00001085263497
   22     0.00005824353535     0.01875508988322     0.00705694258636     0.01253674774913     0.00192110989636
   23     0.04121048387352     0.00044251816770     0.00013484061332     0.00010648104152     0.00002929602165
   24     0.02423299767368     0.00466167978718     0.00300089406904     0.00280647722257     0.00033372012907
   25     0.00070871626429     0.05512161425208     0.80651175818806     0.00935994113081     0.05449816555393
   26     0.00003695945507     0.05473822119905     0.00910626316649     0.80211536927989     0.00198375222187
   27     0.00003606162167     0.01063633063511     0.05995064410738     0.00249716320778     0.83313707826867
   28     0.00006338322872     0.01066512470804     0.00246302509903     0.06028547345991     0.01114165544511
   29     0.00000741330149     0.00289355140777     0.01122828073741     0.01120006397328     0.05897162518626
   30     0.00000483265714     0.00006850634309     0.00002573441714     0.00002890362772     0.00001083375498
   31     0.00000974608793     0.00021078313420     0.00006358975661     0.00018480155482     0.00001465819107
   32     0.05905578219212     0.00915749712547     0.01241832960288     0.00148907526900     0.00233619124525
   33     0.83530433308543     0.00032422293327     0.00019177076741     0.00006778976008     0.00002032274500
   34     0.00000157523220     0.00007644399545     0.00004190567555     0.00005674179562     0.00000471906596

                16                  17                  18                  19                  20

    1     0.01763905523140     0.01063233004467     0.00322361269663     0.00356906092267     0.00705299007619
    2     0.00341669096864     0.00339910287174     0.01860166469190     0.01680576695613     0.01547582415538
    3     0.00379542459764     0.00106359927182     0.13384473432843     0.13564636707485     0.13170980501684
    4     0.00040715557526     0.00036872578674     1.54105763747577     0.14288550112344     0.13867106602341
    5     0.00008299659695     0.00015117929078     0.00127682569131     0.00076282817143     0.00063786525997
    6     0.01139036013769     0.00431177661172     0.13912145230851     1.51379340754857     0.13737482479607
    7     0.00370789360570     0.00720820842849     0.00135281296140     0.00082050977937     0.00534100225305
    8     0.00016870074815     0.00020067254158     0.00003613132683     0.00003753450817     0.00012729921644
    9     0.00191613244745     0.00175245346696     0.00016663511843     0.00015076621131     0.00048875908427
   10     0.00056276942155     0.00147495792638     0.00040305218124     0.00037165498012     0.00218900847258
   11     0.00044466070355     0.00126715576810     0.00033258714038     0.00024798018933     0.00244985326449
   12     0.13444083047717     0.13741646998220     0.00117115074180     0.00498430509524     0.00138096784969
   13     0.14294337907246     0.13916970588408     0.00029977412790     0.00142912878899     0.00064508517006
   14     1.52543613814013     0.13959751522671     0.00131017470669     0.00551109016065     0.00093615311240
   15     0.13750676229351     1.52339054921504     0.00026064094516     0.00066663133004     0.00017778671398
   16     0.00000000000000     1.50716638166738     0.00071486856406     0.00208182659890     0.00023853065583
   17     1.50716638166738     0.00000000000000     0.00013344892940     0.00049069480150     0.00019460111156
   18     0.00071486856406     0.00013344892940     0.00000000000000     0.13867815167132     1.50657547051166
   19     0.00208182659890     0.00049069480150     0.13867815167132     0.00000000000000     1.52328627369482
   20     0.00023853065583     0.00019460111156     1.50657547051166     1.52328627369482     0.00000000000000
   21     0.00002125847369     0.00001297052727     0.05667819391551     0.00255634743173     0.01083094503760
   22     0.00375745754358     0.00170239810286     0.00210156662414     0.05370674332768     0.00961880914896
   23     0.00002668210922     0.00004098073549     0.00000464660686     0.00000301307622     0.00000198773948
   24     0.00034909533642     0.00132685573035     0.00059750867915     0.00046554772141     0.00198980888590
   25     0.00206947037012     0.01023249860427     0.00000831416496     0.00001678692283     0.00000793805740
   26     0.05426746534207     0.01015061269150     0.00019452576814     0.00061435587694     0.00008836670978
   27     0.01123235719541     0.05887669202407     0.00000328751341     0.00000930682056     0.00000737605959
   28     0.83232351225250     0.05869284942483     0.00000782547804     0.00002298577353     0.00000496377326
   29     0.05876825847057     0.83533214002683     0.00000100908140     0.00000951293264     0.00000113711761
   30     0.00001180048149     0.00000987297474     0.83359100608301     0.01137459203692     0.05835472071833
   31     0.00004484488731     0.00002463570582     0.01150390817881     0.83326195364150     0.05861378029504
   32     0.00062346579254     0.00043579359070     0.00001387791132     0.00003503699957     0.00001297716142
   33     0.00001432316590     0.00000851614269     0.00000697420878     0.00000510180747     0.00000310093042
   34     0.00001269894743     0.00001146674814     0.05920907654808     0.05957064728323     0.83547334047747

                21                  22                  23                  24                  25

    1     0.00185529682483     0.00695964365594     0.00150943222809     0.07811353157730     0.01666017767062
    2     0.02079594176222     0.01146560856198     0.00028618430935     0.11410262939294     0.00070304743245
    3     0.05629253703729     0.05258298999501     0.00005443207791     0.01066107485601     0.00023788190780
    4     0.81534755350174     0.00884620622055     0.00002641935813     0.00800194531865     0.00002206448544
    5     0.00230312643186     0.00008699197828     0.00010315008588     0.06558871598584     0.00002657659542
    6     0.00979992815849     0.78731783648313     0.00002062196522     0.00370343981082     0.00050054298051
    7     0.00021880510421     0.00043412446189     0.01147652267034     0.13992463975745     0.00827392208085
    8     0.00002267944225     0.00003181116870     0.80927101228163     0.21277312558228     0.00034826990546
    9     0.00004372152942     0.00017135445880     0.01058175250600     0.02209389003737     0.00833375553329
   10     0.00037060330254     0.00009160213483     0.04361152035707     2.02350205751164     0.00053274796106
   11     0.00002135461821     0.00005824353535     0.04121048387352     0.02423299767368     0.00070871626429
   12     0.00031563613301     0.01875508988322     0.00044251816770     0.00466167978718     0.05512161425208
   13     0.00006022688149     0.00705694258636     0.00013484061332     0.00300089406904     0.80651175818806
   14     0.00009890453892     0.01253674774913     0.00010648104152     0.00280647722257     0.00935994113081
   15     0.00001085263497     0.00192110989636     0.00002929602165     0.00033372012907     0.05449816555393
   16     0.00002125847369     0.00375745754358     0.00002668210922     0.00034909533642     0.00206947037012
   17     0.00001297052727     0.00170239810286     0.00004098073549     0.00132685573035     0.01023249860427
   18     0.05667819391551     0.00210156662414     0.00000464660686     0.00059750867915     0.00000831416496
   19     0.00255634743173     0.05370674332768     0.00000301307622     0.00046554772141     0.00001678692283
   20     0.01083094503760     0.00961880914896     0.00000198773948     0.00198980888590     0.00000793805740
   21     0.00000000000000     0.00043667214834     0.00000245665765     0.00067038318738     0.00000570010999
   22     0.00043667214834     0.00000000000000     0.00000116349490     0.00010045534709     0.00021848414284
   23     0.00000245665765     0.00000116349490     0.00000000000000     0.00993912342016     0.00000721093299
   24     0.00067038318738     0.00010045534709     0.00993912342016     0.00000000000000     0.00015351895423
   25     0.00000570010999     0.00021848414284     0.00000721093299     0.00015351895423     0.00000000000000
   26     0.00000210179544     0.00107882988009     0.00000213719613     0.00014868539076     0.00033189053569
   27     0.00000115930525     0.00001550903654     0.00000092813103     0.00002462814463     0.00511555422986
   28     0.00000236164104     0.00004152249878     0.00000078623449     0.00005556167491     0.00024132084948
   29     0.00000068584978     0.00000696281217     0.00000037466460     0.00000424678106     0.00024871170888
   30     0.00537652806780     0.00020083946929     0.00000014627043     0.00001807977425     0.00000051342823
   31     0.00022597279069     0.00565033353089     0.00000072911548     0.00005777003614     0.00000192761274
   32     0.00000215310192     0.00008893299855     0.00046157526427     0.00193995425651     0.00113628362781
   33     0.00000418668658     0.00000651768773     0.00274087867666     0.00155983040783     0.00000991953551
   34     0.00021790201507     0.00020858702457     0.00000017920024     0.00001511571141     0.00000197874171

                26                  27                  28                  29                  30

    1     0.01637907940354     0.00119122725771     0.00121653825534     0.00027248415297     0.00035255196767
    2     0.00726350666061     0.00027920756917     0.00009562244857     0.00005831388876     0.00086233624186
    3     0.00591195716195     0.00005785724629     0.00008249418939     0.00002030343065     0.01079616221751
    4     0.00067211506564     0.00001971265016     0.00001323035305     0.00000508207823     0.06099143161243
    5     0.00013109582649     0.00001782663570     0.00000496830947     0.00000732870837     0.00003008282104
    6     0.00568543591809     0.00006612607355     0.00026263157507     0.00002980513303     0.00260999587093
    7     0.00234340862326     0.00018352187085     0.00039772997402     0.00006225154682     0.00006193804866
    8     0.00005651614512     0.00001166729499     0.00001702908957     0.00000678779442     0.00000167001326
    9     0.00026452448568     0.00010816146458     0.00007923009928     0.00002629523095     0.00001826596115
   10     0.00014673180818     0.00003148953653     0.00008218120976     0.00001363997890     0.00001399024566
   11     0.00003695945507     0.00003606162167     0.00006338322872     0.00000741330149     0.00000483265714
   12     0.05473822119905     0.01063633063511     0.01066512470804     0.00289355140777     0.00006850634309
   13     0.00910626316649     0.05995064410738     0.00246302509903     0.01122828073741     0.00002573441714
   14     0.80211536927989     0.00249716320778     0.06028547345991     0.01120006397328     0.00002890362772
   15     0.00198375222187     0.83313707826867     0.01114165544511     0.05897162518626     0.00001083375498
   16     0.05426746534207     0.01123235719541     0.83232351225250     0.05876825847057     0.00001180048149
   17     0.01015061269150     0.05887669202407     0.05869284942483     0.83533214002683     0.00000987297474
   18     0.00019452576814     0.00000328751341     0.00000782547804     0.00000100908140     0.83359100608301
   19     0.00061435587694     0.00000930682056     0.00002298577353     0.00000951293264     0.01137459203692
   20     0.00008836670978     0.00000737605959     0.00000496377326     0.00000113711761     0.05835472071833
   21     0.00000210179544     0.00000115930525     0.00000236164104     0.00000068584978     0.00537652806780
   22     0.00107882988009     0.00001550903654     0.00004152249878     0.00000696281217     0.00020083946929
   23     0.00000213719613     0.00000092813103     0.00000078623449     0.00000037466460     0.00000014627043
   24     0.00014868539076     0.00002462814463     0.00005556167491     0.00000424678106     0.00001807977425
   25     0.00033189053569     0.00511555422986     0.00024132084948     0.00024871170888     0.00000051342823
   26     0.00000000000000     0.00024026376116     0.00517978825773     0.00024083128966     0.00000193801409
   27     0.00024026376116     0.00000000000000     0.00024821010429     0.00522517921012     0.00000005559832
   28     0.00517978825773     0.00024821010429     0.00000000000000     0.00520753817622     0.00000044732777
   29     0.00024083128966     0.00522517921012     0.00520753817622     0.00000000000000     0.00000002395338
   30     0.00000193801409     0.00000005559832     0.00000044732777     0.00000002395338     0.00000000000000
   31     0.00000245284918     0.00000130016256     0.00000226200752     0.00000151423579     0.00027952472914
   32     0.00000304374239     0.00004074453030     0.00000196524624     0.00000721570300     0.00000062509372
   33     0.00000708368307     0.00000367977291     0.00000116250065     0.00000059700483     0.00000192924063
   34     0.00000584047527     0.00000006417497     0.00000072124814     0.00000004560861     0.00511809836066

                31                  32                  33                  34

    1     0.00021905469294     0.01042435884970     0.00166457042296     0.00006395890343
    2     0.00089217587104     0.00015821965500     0.00038272913742     0.00026721785054
    3     0.01086878558141     0.00008572230789     0.00011848129211     0.00282654040412
    4     0.00249069543224     0.00004526368301     0.00005277077495     0.01123385269163
    5     0.00026176468472     0.00004651037903     0.00017682766860     0.00001507525389
    6     0.06015104549212     0.00012834618863     0.00002524006325     0.01115925026415
    7     0.00005589630118     0.04768527676951     0.01381967782659     0.00001711402895
    8     0.00000384068427     0.01112459856500     0.05473710469274     0.00000140802576
    9     0.00001430248529     0.81267397018600     0.05855848650947     0.00000415848057
   10     0.00004568972606     0.00938650058209     0.01215791959527     0.00001100341516
   11     0.00000974608793     0.05905578219212     0.83530433308543     0.00000157523220
   12     0.00021078313420     0.00915749712547     0.00032422293327     0.00007644399545
   13     0.00006358975661     0.01241832960288     0.00019177076741     0.00004190567555
   14     0.00018480155482     0.00148907526900     0.00006778976008     0.00005674179562
   15     0.00001465819107     0.00233619124525     0.00002032274500     0.00000471906596
   16     0.00004484488731     0.00062346579254     0.00001432316590     0.00001269894743
   17     0.00002463570582     0.00043579359070     0.00000851614269     0.00001146674814
   18     0.01150390817881     0.00001387791132     0.00000697420878     0.05920907654808
   19     0.83326195364150     0.00003503699957     0.00000510180747     0.05957064728323
   20     0.05861378029504     0.00001297716142     0.00000310093042     0.83547334047747
   21     0.00022597279069     0.00000215310192     0.00000418668658     0.00021790201507
   22     0.00565033353089     0.00008893299855     0.00000651768773     0.00020858702457
   23     0.00000072911548     0.00046157526427     0.00274087867666     0.00000017920024
   24     0.00005777003614     0.00193995425651     0.00155983040783     0.00001511571141
   25     0.00000192761274     0.00113628362781     0.00000991953551     0.00000197874171
   26     0.00000245284918     0.00000304374239     0.00000708368307     0.00000584047527
   27     0.00000130016256     0.00004074453030     0.00000367977291     0.00000006417497
   28     0.00000226200752     0.00000196524624     0.00000116250065     0.00000072124814
   29     0.00000151423579     0.00000721570300     0.00000059700483     0.00000004560861
   30     0.00027952472914     0.00000062509372     0.00000192924063     0.00511809836066
   31     0.00000000000000     0.00000130958151     0.00000067452108     0.00513865444103
   32     0.00000130958151     0.00000000000000     0.00250676558172     0.00000062774186
   33     0.00000067452108     0.00250676558172     0.00000000000000     0.00000024358058
   34     0.00513865444103     0.00000062774186     0.00000024358058     0.00000000000000



  Atomic Valences: 

 #  #
 Irrep: 1
      1:    4.786369588454939
      2:    4.211682313477946
      3:    4.758273842015947
      4:    4.449637481858188
      5:    0.934733267759440
      6:    4.484963124367657
      7:    4.638877766488441
      8:    4.060329589150382
      9:    4.423010982022104
     10:    5.049004271771669
     11:    4.449765364585545
     12:    4.749283224156879
     13:    4.508574789403811
     14:    4.505048237612531
     15:    4.456046959141222
     16:    4.457583247871664
     17:    4.456247811856417
     18:    4.452482546880425
     19:    4.453871411259057
     20:    4.449962418550939
     21:    0.984605146644172
     22:    0.987258087588522
     23:    0.932099667083648
     24:    2.732916988151420
     25:    0.981647204471585
     26:    0.979395149680001
     27:    0.989270371215098
     28:    0.988906101913743
     29:    0.989859211176434
     30:    0.990217977422429
     31:    0.990300377998140
     32:    0.983527990525919
     33:    0.984483732409577
     34:    0.990766253411461


    Psi4 stopped on: Thursday, 09 June 2022 07:13AM
    Psi4 wall time for execution: 0:06:41.82

*** Psi4 exiting successfully. Buy a developer a beer!
