
    -----------------------------------------------------------------------
          Psi4: An Open-Source Ab Initio Electronic Structure Package
                               Psi4 1.5 release

                         Git: Rev {HEAD} e9f4d6d 


    D. G. A. Smith, L. A. Burns, A. C. Simmonett, R. M. Parrish,
    M. C. Schieber, R. Galvelis, P. Kraus, H. Kruse, R. Di Remigio,
    A. Alenaizan, A. M. James, S. Lehtola, J. P. Misiewicz, M. Scheurer,
    R. A. Shaw, J. B. Schriber, Y. Xie, Z. L. Glick, D. A. Sirianni,
    J. S. O'Brien, J. M. Waldrop, A. Kumar, E. G. Hohenstein,
    B. P. Pritchard, B. R. Brooks, H. F. Schaefer III, A. Yu. Sokolov,
    K. Patkowski, A. E. DePrince III, U. Bozkaya, R. A. King,
    F. A. Evangelista, J. M. Turney, T. D. Crawford, C. D. Sherrill,
    J. Chem. Phys. 152(18) 184108 (2020). https://doi.org/10.1063/5.0006002

                            Additional Code Authors
    E. T. Seidl, C. L. Janssen, E. F. Valeev, M. L. Leininger,
    J. F. Gonthier, R. M. Richard, H. R. McAlexander, M. Saitow, X. Wang,
    P. Verma, M. H. Lechner, and A. Jiang

             Previous Authors, Complete List of Code Contributors,
                       and Citations for Specific Modules
    https://github.com/psi4/psi4/blob/master/codemeta.json
    https://github.com/psi4/psi4/graphs/contributors
    http://psicode.org/psi4manual/master/introduction.html#citing-psifour

    -----------------------------------------------------------------------


    Psi4 started on: Thursday, 09 June 2022 12:53AM

    Process ID: 1252319
    Host:       node74.bme.utexas.edu
    PSIDATADIR: /home/bdw2292/miniconda3/envs/newamoebamdpoltype/share/psi4
    Memory:     500.0 MiB
    Threads:    1
    
  ==> Input File <==

--------------------------------------------------------------------------
molecule { 
0 1
 C   -0.586512   -0.293414    0.357764
 N    0.651495   -0.897511    0.511990
 C    1.887118   -0.579672   -0.100858
 C    2.555153   -1.552515   -0.882218
 H    0.708913   -1.510144    1.348923
 C    2.463590    0.703874    0.057594
 C   -1.598376   -0.573363    1.286270
 N   -2.588657   -1.376308    3.171561
 C   -3.008488   -0.256541    1.260153
 C   -1.373663   -1.337216    2.532851
 C   -3.565228   -0.737531    2.404971
 C   -0.776863    0.703429   -0.735334
 C   -1.359687    1.969395   -0.466118
 C   -0.437964    0.379749   -2.075821
 C   -1.573316    2.888564   -1.501537
 C   -0.649477    1.305246   -3.105935
 C   -1.216711    2.564669   -2.826051
 C    3.773276   -1.239277   -1.500770
 C    3.682168    1.006980   -0.564811
 C    4.346098    0.040698   -1.348897
 H    2.120448   -2.546783   -1.004274
 H    1.958092    1.459762    0.661848
 H   -2.713101   -1.828392    4.065490
 O   -0.308675   -1.861288    2.946431
 H   -1.636411    2.228865    0.557553
 H   -0.010637   -0.598262   -2.304578
 H   -2.017639    3.860390   -1.279400
 H   -0.375398    1.047317   -4.130412
 H   -1.380487    3.284073   -3.630378
 H    4.276979   -1.997110   -2.103055
 H    4.115493    2.000385   -0.437869
 H   -3.536645    0.273865    0.479903
 H   -4.586379   -0.688120    2.756304
 H    5.294651    0.281528   -1.832401
}
set optking { 
  frozen_dihedral = ("
    1 2 3 4
    2 1 12 13
    7 1 2 3
  ")
}
set {
  geom_maxiter 400
  g_convergence GAU_LOOSE
  dynamic_level 1
}
memory 8.166666666666666GB
set_num_threads(2)
psi4_io.set_default_path("/scratch/bdw2292/Psi4-1_16_Index_0-farH_in17")
for _ in range(1):
  try:
    set opt_coordinates both
    optimize('wb97x-d/6-311G')
    break
  except OptimizationConvergenceError:
    break
  else:
    try:
      set opt_coordinates cartesian
      optimize('wb97x-d/6-311G')
      break
    except OptimizationConvergenceError:
      pass
clean()
--------------------------------------------------------------------------

  Memory set to   7.606 GiB by Python driver.
  Threads set to 2 by Python driver.

Scratch directory: /scratch/bdw2292/Psi4-1_16_Index_0-farH_in17/

Scratch directory: /scratch/bdw2292/Psi4-1_16_Index_0-farH_in17/
gradient() will perform analytic gradient computation.

*** tstart() called on node74.bme.utexas.edu
*** at Thu Jun  9 00:53:25 2022

   => Loading Basis Set <=

    Name: 6-311G
    Role: ORBITAL
    Keyword: BASIS
    atoms 1, 3-4, 6-7, 9-20 entry C          line    92 file /home/bdw2292/miniconda3/envs/newamoebamdpoltype/share/psi4/basis/6-311g.gbs 
    atoms 2, 8              entry N          line   109 file /home/bdw2292/miniconda3/envs/newamoebamdpoltype/share/psi4/basis/6-311g.gbs 
    atoms 5, 21-23, 25-34   entry H          line    21 file /home/bdw2292/miniconda3/envs/newamoebamdpoltype/share/psi4/basis/6-311g.gbs 
    atoms 24                entry O          line   126 file /home/bdw2292/miniconda3/envs/newamoebamdpoltype/share/psi4/basis/6-311g.gbs 

   => WB97X-D: Empirical Dispersion <=

    Chai and Head-Gordon Dispersion Correction
    Chai, J.-D.; Head-Gordon, M. (2010), J. Chem. Phys., 132: 6615-6620

        s6 =       1.000000


         ---------------------------------------------------------
                                   SCF
               by Justin Turney, Rob Parrish, Andy Simmonett
                          and Daniel G. A. Smith
                              RKS Reference
                        2 Threads,   7788 MiB Core
         ---------------------------------------------------------

  ==> Geometry <==

    Molecular point group: c1
    Full point group: C1

    Geometry (in Angstrom), charge = 0, multiplicity = 1:

       Center              X                  Y                   Z               Mass       
    ------------   -----------------  -----------------  -----------------  -----------------
         C           -0.589965491826    -0.307201663753     0.337551084395    12.000000000000
         N            0.648041508174    -0.911298663753     0.491777084395    14.003074004430
         C            1.883664508174    -0.593459663753    -0.121070915605    12.000000000000
         C            2.551699508174    -1.566302663753    -0.902430915605    12.000000000000
         H            0.705459508174    -1.523931663753     1.328710084395     1.007825032230
         C            2.460136508174     0.690086336247     0.037381084395    12.000000000000
         C           -1.601829491826    -0.587150663753     1.266057084395    12.000000000000
         N           -2.592110491826    -1.390095663753     3.151348084395    14.003074004430
         C           -3.011941491826    -0.270328663753     1.239940084395    12.000000000000
         C           -1.377116491826    -1.351003663753     2.512638084395    12.000000000000
         C           -3.568681491826    -0.751318663753     2.384758084395    12.000000000000
         C           -0.780316491826     0.689641336247    -0.755546915605    12.000000000000
         C           -1.363140491826     1.955607336247    -0.486330915605    12.000000000000
         C           -0.441417491826     0.365961336247    -2.096033915605    12.000000000000
         C           -1.576769491826     2.874776336247    -1.521749915605    12.000000000000
         C           -0.652930491826     1.291458336247    -3.126147915605    12.000000000000
         C           -1.220164491826     2.550881336247    -2.846263915605    12.000000000000
         C            3.769822508174    -1.253064663753    -1.520982915605    12.000000000000
         C            3.678714508174     0.993192336247    -0.585023915605    12.000000000000
         C            4.342644508174     0.026910336247    -1.369109915605    12.000000000000
         H            2.116994508174    -2.560570663753    -1.024486915605     1.007825032230
         H            1.954638508174     1.445974336247     0.641635084395     1.007825032230
         H           -2.716554491826    -1.842179663753     4.045277084395     1.007825032230
         O           -0.312128491826    -1.875075663753     2.926218084395    15.994914619570
         H           -1.639864491826     2.215077336247     0.537340084395     1.007825032230
         H           -0.014090491826    -0.612049663753    -2.324790915605     1.007825032230
         H           -2.021092491826     3.846602336247    -1.299612915605     1.007825032230
         H           -0.378851491826     1.033529336247    -4.150624915605     1.007825032230
         H           -1.383940491826     3.270285336247    -3.650590915605     1.007825032230
         H            4.273525508174    -2.010897663753    -2.123267915605     1.007825032230
         H            4.112039508174     1.986597336247    -0.458081915605     1.007825032230
         H           -3.540098491826     0.260077336247     0.459690084395     1.007825032230
         H           -4.589832491826    -0.701907663753     2.736091084395     1.007825032230
         H            5.291197508174     0.267740336247    -1.852613915605     1.007825032230

  Running in c1 symmetry.

  Rotational constants: A =      0.01515  B =      0.00926  C =      0.00636 [cm^-1]
  Rotational constants: A =    454.03845  B =    277.74610  C =    190.61396 [MHz]
  Nuclear repulsion = 1413.648860179795065

  Charge       = 0
  Multiplicity = 1
  Electrons    = 138
  Nalpha       = 69
  Nbeta        = 69

  ==> Algorithm <==

  SCF Algorithm Type is DF.
  DIIS enabled.
  MOM disabled.
  Fractional occupation disabled.
  Guess Type is SAD.
  Energy threshold   = 1.00e-08
  Density threshold  = 1.00e-08
  Integral threshold = 1.00e-12

  ==> Primary Basis <==

  Basis Set: 6-311G
    Blend: 6-311G
    Number of shells: 182
    Number of basis functions: 302
    Number of Cartesian functions: 302
    Spherical Harmonics?: true
    Max angular momentum: 1

  ==> DFT Potential <==

   => LibXC <=

    Version 5.1.5
    S. Lehtola, C. Steigemann, M. J. Oliveira, and M. A. Marques, SoftwareX 7, 1 (2018) (10.1016/j.softx.2017.11.002)

   => Composite Functional: WB97X-D <= 

    wB97X-D Hyb-GGA Exchange-Correlation Functional

    J.-D. Chai and M. Head-Gordon, Phys. Chem. Chem. Phys. 10, 6615 (2008) (10.1039/B810189B)

    Deriv               =              1
    GGA                 =           TRUE
    Meta                =          FALSE

    Exchange Hybrid     =           TRUE
    MP2 Hybrid          =          FALSE

   => Exchange-Correlation Functionals <=

    1.0000   wB97X-D range-separated functional

   => Exact (HF) Exchange <=

    0.7780            HF,LR [omega = 0.2000]
    0.2220               HF 

   => LibXC Density Thresholds  <==

    XC_HYB_GGA_XC_WB97X_D:  1.00E-14 

   => Molecular Quadrature <=

    Radial Scheme          =       TREUTLER
    Pruning Scheme         =           NONE
    Nuclear Scheme         =       TREUTLER

    BS radius alpha        =              1
    Pruning alpha          =              1
    Radial Points          =             75
    Spherical Points       =            302
    Total Points           =         700319
    Total Blocks           =           4991
    Max Points             =            256
    Max Functions          =            219
    Weights Tolerance      =       1.00E-15

   => Loading Basis Set <=

    Name: (6-311G AUX)
    Role: JKFIT
    Keyword: DF_BASIS_SCF
    atoms 1, 3-4, 6-7, 9-20 entry C          line   125 file /home/bdw2292/miniconda3/envs/newamoebamdpoltype/share/psi4/basis/cc-pvtz-jkfit.gbs 
    atoms 2, 8              entry N          line   177 file /home/bdw2292/miniconda3/envs/newamoebamdpoltype/share/psi4/basis/cc-pvtz-jkfit.gbs 
    atoms 5, 21-23, 25-34   entry H          line    51 file /home/bdw2292/miniconda3/envs/newamoebamdpoltype/share/psi4/basis/cc-pvtz-jkfit.gbs 
    atoms 24                entry O          line   229 file /home/bdw2292/miniconda3/envs/newamoebamdpoltype/share/psi4/basis/cc-pvtz-jkfit.gbs 

  ==> Integral Setup <==

  DFHelper Memory: AOs need 3.151 GiB; user supplied 3.151 GiB. Using in-core AOs.

  ==> MemDFJK: Density-Fitted J/K Matrices <==

    J tasked:                   Yes
    K tasked:                   Yes
    wK tasked:                  Yes
    Omega:                2.000E-01
    OpenMP threads:               2
    Memory [MiB]:              3226
    Algorithm:                 Core
    Schwarz Cutoff:           1E-12
    Mask sparsity (%):      23.9354
    Fitting Condition:        1E-10

   => Auxiliary Basis Set <=

  Basis Set: (6-311G AUX)
    Blend: CC-PVTZ-JKFIT
    Number of shells: 640
    Number of basis functions: 2000
    Number of Cartesian functions: 2410
    Spherical Harmonics?: true
    Max angular momentum: 4

  Cached 50.0% of DFT collocation blocks in 1.482 [GiB].

  Minimum eigenvalue in the overlap matrix is 2.6757100668E-04.
  Reciprocal condition number of the overlap matrix is 4.0468891506E-05.
    Using symmetric orthogonalization.

  ==> Pre-Iterations <==

  SCF Guess: Superposition of Atomic Densities via on-the-fly atomic UHF (no occupation information).

   -------------------------
    Irrep   Nso     Nmo    
   -------------------------
     A        302     302 
   -------------------------
    Total     302     302
   -------------------------

  ==> Iterations <==

                           Total Energy        Delta E     RMS |[F,P]|

   @DF-RKS iter SAD:  -839.82884449100493   -8.39829e+02   0.00000e+00 
   @DF-RKS iter   1:  -840.09266459939977   -2.63820e-01   3.52157e-03 DIIS
   @DF-RKS iter   2:  -840.30781809093708   -2.15153e-01   3.01968e-03 DIIS
   @DF-RKS iter   3:  -840.62220505882749   -3.14387e-01   8.19893e-04 DIIS
   @DF-RKS iter   4:  -840.64497290018733   -2.27678e-02   1.87457e-04 DIIS
   @DF-RKS iter   5:  -840.64622454158996   -1.25164e-03   6.27315e-05 DIIS
   @DF-RKS iter   6:  -840.64639144533930   -1.66904e-04   1.19030e-05 DIIS
   @DF-RKS iter   7:  -840.64639924245967   -7.79712e-06   7.31077e-06 DIIS
   @DF-RKS iter   8:  -840.64640217709632   -2.93464e-06   1.67174e-06 DIIS
   @DF-RKS iter   9:  -840.64640259607631   -4.18980e-07   1.01843e-06 DIIS
   @DF-RKS iter  10:  -840.64640269774929   -1.01673e-07   2.15091e-07 DIIS
   @DF-RKS iter  11:  -840.64640270467021   -6.92091e-09   1.28596e-07 DIIS
   @DF-RKS iter  12:  -840.64640270572261   -1.05240e-09   3.55604e-08 DIIS
   @DF-RKS iter  13:  -840.64640270584346   -1.20849e-10   1.88772e-08 DIIS
   @DF-RKS iter  14:  -840.64640270586915   -2.56932e-11   5.00116e-09 DIIS
  Energy and wave function converged.


  ==> Post-Iterations <==

   Electrons on quadrature grid:
      Ntotal   =  137.9998721938 ; deviation = -1.278e-04 

    Orbital Energies [Eh]
    ---------------------

    Doubly Occupied:                                                      

       1A    -19.202441     2A    -14.468502     3A    -14.465646  
       4A    -10.384288     5A    -10.374119     6A    -10.347551  
       7A    -10.325315     8A    -10.316499     9A    -10.310545  
      10A    -10.310355    11A    -10.309620    12A    -10.307754  
      13A    -10.307267    14A    -10.305208    15A    -10.304545  
      16A    -10.304455    17A    -10.303935    18A    -10.303705  
      19A    -10.288875    20A    -10.279137    21A     -1.136415  
      22A     -1.063784    23A     -1.056414    24A     -0.975598  
      25A     -0.961290    26A     -0.907722    27A     -0.870679  
      28A     -0.861676    29A     -0.859043    30A     -0.852172  
      31A     -0.811743    32A     -0.768504    33A     -0.724146  
      34A     -0.717530    35A     -0.713731    36A     -0.695048  
      37A     -0.680400    38A     -0.664872    39A     -0.636477  
      40A     -0.614263    41A     -0.595358    42A     -0.581877  
      43A     -0.581400    44A     -0.563494    45A     -0.554867  
      46A     -0.546587    47A     -0.535594    48A     -0.525181  
      49A     -0.521351    50A     -0.520303    51A     -0.513802  
      52A     -0.507729    53A     -0.492864    54A     -0.478371  
      55A     -0.470146    56A     -0.466781    57A     -0.453231  
      58A     -0.449231    59A     -0.445068    60A     -0.439106  
      61A     -0.420831    62A     -0.401896    63A     -0.353093  
      64A     -0.343408    65A     -0.340221    66A     -0.335176  
      67A     -0.331110    68A     -0.314467    69A     -0.252322  

    Virtual:                                                              

      70A      0.005112    71A      0.045060    72A      0.051704  
      73A      0.055977    74A      0.069644    75A      0.115975  
      76A      0.126955    77A      0.131970    78A      0.136126  
      79A      0.146354    80A      0.156183    81A      0.161002  
      82A      0.167962    83A      0.178349    84A      0.184835  
      85A      0.189522    86A      0.194269    87A      0.195690  
      88A      0.204969    89A      0.211947    90A      0.213993  
      91A      0.225443    92A      0.236812    93A      0.257783  
      94A      0.296466    95A      0.305304    96A      0.313092  
      97A      0.320337    98A      0.332271    99A      0.340342  
     100A      0.343367   101A      0.344836   102A      0.353562  
     103A      0.355919   104A      0.368548   105A      0.377333  
     106A      0.385091   107A      0.400727   108A      0.403427  
     109A      0.419291   110A      0.428510   111A      0.437914  
     112A      0.439755   113A      0.452367   114A      0.458758  
     115A      0.465151   116A      0.470659   117A      0.474858  
     118A      0.478480   119A      0.485466   120A      0.488827  
     121A      0.490117   122A      0.498034   123A      0.498953  
     124A      0.503713   125A      0.507379   126A      0.509947  
     127A      0.517441   128A      0.524179   129A      0.529188  
     130A      0.535948   131A      0.540633   132A      0.551998  
     133A      0.554446   134A      0.560319   135A      0.563124  
     136A      0.572380   137A      0.584490   138A      0.594037  
     139A      0.604242   140A      0.620854   141A      0.628345  
     142A      0.631661   143A      0.638541   144A      0.647463  
     145A      0.655068   146A      0.661391   147A      0.671029  
     148A      0.679563   149A      0.686633   150A      0.688437  
     151A      0.692266   152A      0.696442   153A      0.709128  
     154A      0.717895   155A      0.725049   156A      0.725624  
     157A      0.729361   158A      0.734821   159A      0.736747  
     160A      0.749469   161A      0.754484   162A      0.759176  
     163A      0.770227   164A      0.775079   165A      0.790007  
     166A      0.808044   167A      0.824130   168A      0.828816  
     169A      0.839011   170A      0.840755   171A      0.849646  
     172A      0.850712   173A      0.858817   174A      0.867259  
     175A      0.868670   176A      0.869924   177A      0.886547  
     178A      0.911926   179A      0.917873   180A      0.929899  
     181A      0.936440   182A      0.953107   183A      0.967486  
     184A      0.974392   185A      0.980122   186A      0.989961  
     187A      1.002864   188A      1.015208   189A      1.029340  
     190A      1.049659   191A      1.052406   192A      1.066755  
     193A      1.097607   194A      1.120397   195A      1.135611  
     196A      1.139325   197A      1.143645   198A      1.173423  
     199A      1.183138   200A      1.205323   201A      1.246029  
     202A      1.297631   203A      1.342056   204A      1.362975  
     205A      1.392078   206A      1.476292   207A      1.544995  
     208A      1.816824   209A      2.290964   210A      2.307440  
     211A      2.327572   212A      2.342703   213A      2.350677  
     214A      2.385772   215A      2.398871   216A      2.422144  
     217A      2.441759   218A      2.454198   219A      2.470894  
     220A      2.509550   221A      2.608618   222A      2.612826  
     223A      2.624884   224A      2.631388   225A      2.640076  
     226A      2.667288   227A      2.668805   228A      2.681894  
     229A      2.707408   230A      2.728970   231A      2.745684  
     232A      2.771081   233A      2.781919   234A      2.790608  
     235A      2.805332   236A      2.814765   237A      2.831038  
     238A      2.841343   239A      2.848720   240A      2.859559  
     241A      2.860862   242A      2.872667   243A      2.896367  
     244A      2.926414   245A      2.944761   246A      2.953727  
     247A      2.969069   248A      2.981783   249A      3.025971  
     250A      3.040789   251A      3.085623   252A      3.090200  
     253A      3.125613   254A      3.140405   255A      3.170897  
     256A      3.175639   257A      3.211428   258A      3.217823  
     259A      3.243575   260A      3.246511   261A      3.272125  
     262A      3.275396   263A      3.294252   264A      3.309313  
     265A      3.326503   266A      3.332956   267A      3.338162  
     268A      3.352906   269A      3.358268   270A      3.371472  
     271A      3.447779   272A      3.507146   273A      3.535725  
     274A      3.817929   275A      3.939043   276A      4.116834  
     277A      4.197112   278A      4.237371   279A      4.346202  
     280A      4.996237   281A      5.113143   282A      5.173257  
     283A     23.239774   284A     23.264434   285A     23.358281  
     286A     23.461136   287A     23.472527   288A     23.480938  
     289A     23.503669   290A     23.513988   291A     23.580079  
     292A     23.705630   293A     23.714692   294A     23.741267  
     295A     23.748958   296A     23.764292   297A     23.873262  
     298A     23.976680   299A     23.983522   300A     35.529898  
     301A     35.590497   302A     50.087360  

    Final Occupation by Irrep:
              A 
    DOCC [    69 ]

  @DF-RKS Final Energy:  -840.64640270586915

   => Energetics <=

    Nuclear Repulsion Energy =           1413.6488601797950651
    One-Electron Energy =               -3945.6470727228429496
    Two-Electron Energy =                1773.9063683377796679
    DFT Exchange-Correlation Energy =     -82.5306381244126754
    Empirical Dispersion Energy =          -0.0239203761881891
    VV10 Nonlocal Energy =                  0.0000000000000000
    Total Energy =                       -840.6464027058691499

Computation Completed


Properties will be evaluated at   0.000000,   0.000000,   0.000000 [a0]

Properties computed using the SCF density matrix

  Nuclear Dipole Moment: [e a0]
     X:     2.0380      Y:     4.7547      Z:    -6.6857

  Electronic Dipole Moment: [e a0]
     X:    -2.3289      Y:    -3.9038      Z:     5.6799

  Dipole Moment: [e a0]
     X:    -0.2909      Y:     0.8510      Z:    -1.0058     Total:     1.3492

  Dipole Moment: [D]
     X:    -0.7394      Y:     2.1629      Z:    -2.5564     Total:     3.4293


*** tstop() called on node74.bme.utexas.edu at Thu Jun  9 00:55:47 2022
Module time:
	user time   =     271.33 seconds =       4.52 minutes
	system time =       8.35 seconds =       0.14 minutes
	total time  =        142 seconds =       2.37 minutes
Total time:
	user time   =     271.33 seconds =       4.52 minutes
	system time =       8.35 seconds =       0.14 minutes
	total time  =        142 seconds =       2.37 minutes

*** tstart() called on node74.bme.utexas.edu
*** at Thu Jun  9 00:55:47 2022


         ------------------------------------------------------------
                                   SCF GRAD                          
                          Rob Parrish, Justin Turney,                
                       Andy Simmonett, and Alex Sokolov              
         ------------------------------------------------------------

  ==> Geometry <==

    Molecular point group: c1
    Full point group: C1

    Geometry (in Angstrom), charge = 0, multiplicity = 1:

       Center              X                  Y                   Z               Mass       
    ------------   -----------------  -----------------  -----------------  -----------------
         C           -0.589965491826    -0.307201663753     0.337551084395    12.000000000000
         N            0.648041508174    -0.911298663753     0.491777084395    14.003074004430
         C            1.883664508174    -0.593459663753    -0.121070915605    12.000000000000
         C            2.551699508174    -1.566302663753    -0.902430915605    12.000000000000
         H            0.705459508174    -1.523931663753     1.328710084395     1.007825032230
         C            2.460136508174     0.690086336247     0.037381084395    12.000000000000
         C           -1.601829491826    -0.587150663753     1.266057084395    12.000000000000
         N           -2.592110491826    -1.390095663753     3.151348084395    14.003074004430
         C           -3.011941491826    -0.270328663753     1.239940084395    12.000000000000
         C           -1.377116491826    -1.351003663753     2.512638084395    12.000000000000
         C           -3.568681491826    -0.751318663753     2.384758084395    12.000000000000
         C           -0.780316491826     0.689641336247    -0.755546915605    12.000000000000
         C           -1.363140491826     1.955607336247    -0.486330915605    12.000000000000
         C           -0.441417491826     0.365961336247    -2.096033915605    12.000000000000
         C           -1.576769491826     2.874776336247    -1.521749915605    12.000000000000
         C           -0.652930491826     1.291458336247    -3.126147915605    12.000000000000
         C           -1.220164491826     2.550881336247    -2.846263915605    12.000000000000
         C            3.769822508174    -1.253064663753    -1.520982915605    12.000000000000
         C            3.678714508174     0.993192336247    -0.585023915605    12.000000000000
         C            4.342644508174     0.026910336247    -1.369109915605    12.000000000000
         H            2.116994508174    -2.560570663753    -1.024486915605     1.007825032230
         H            1.954638508174     1.445974336247     0.641635084395     1.007825032230
         H           -2.716554491826    -1.842179663753     4.045277084395     1.007825032230
         O           -0.312128491826    -1.875075663753     2.926218084395    15.994914619570
         H           -1.639864491826     2.215077336247     0.537340084395     1.007825032230
         H           -0.014090491826    -0.612049663753    -2.324790915605     1.007825032230
         H           -2.021092491826     3.846602336247    -1.299612915605     1.007825032230
         H           -0.378851491826     1.033529336247    -4.150624915605     1.007825032230
         H           -1.383940491826     3.270285336247    -3.650590915605     1.007825032230
         H            4.273525508174    -2.010897663753    -2.123267915605     1.007825032230
         H            4.112039508174     1.986597336247    -0.458081915605     1.007825032230
         H           -3.540098491826     0.260077336247     0.459690084395     1.007825032230
         H           -4.589832491826    -0.701907663753     2.736091084395     1.007825032230
         H            5.291197508174     0.267740336247    -1.852613915605     1.007825032230

  Nuclear repulsion = 1413.648860179795065

  ==> Basis Set <==

  Basis Set: 6-311G
    Blend: 6-311G
    Number of shells: 182
    Number of basis functions: 302
    Number of Cartesian functions: 302
    Spherical Harmonics?: true
    Max angular momentum: 1

  ==> DFJKGrad: Density-Fitted SCF Gradients <==

    Gradient:                    1
    J tasked:                  Yes
    K tasked:                  Yes
    wK tasked:                 Yes
    Omega:               2.000E-01
    OpenMP threads:              2
    Integrals threads:           2
    Memory [MiB]:             5841
    Schwarz Cutoff:          1E-12
    Fitting Condition:       1E-10

   => Auxiliary Basis Set <=

  Basis Set: (6-311G AUX)
    Blend: CC-PVTZ-JKFIT
    Number of shells: 640
    Number of basis functions: 2000
    Number of Cartesian functions: 2410
    Spherical Harmonics?: true
    Max angular momentum: 4

  ==> DFT Potential <==

   => LibXC <=

    Version 5.1.5
    S. Lehtola, C. Steigemann, M. J. Oliveira, and M. A. Marques, SoftwareX 7, 1 (2018) (10.1016/j.softx.2017.11.002)

   => Composite Functional: WB97X-D <= 

    wB97X-D Hyb-GGA Exchange-Correlation Functional

    J.-D. Chai and M. Head-Gordon, Phys. Chem. Chem. Phys. 10, 6615 (2008) (10.1039/B810189B)

    Deriv               =              1
    GGA                 =           TRUE
    Meta                =          FALSE

    Exchange Hybrid     =           TRUE
    MP2 Hybrid          =          FALSE

   => Exchange-Correlation Functionals <=

    1.0000   wB97X-D range-separated functional

   => Exact (HF) Exchange <=

    0.7780            HF,LR [omega = 0.2000]
    0.2220               HF 

   => LibXC Density Thresholds  <==

    XC_HYB_GGA_XC_WB97X_D:  1.00E-14 

   => Molecular Quadrature <=

    Radial Scheme          =       TREUTLER
    Pruning Scheme         =           NONE
    Nuclear Scheme         =       TREUTLER

    BS radius alpha        =              1
    Pruning alpha          =              1
    Radial Points          =             75
    Spherical Points       =            302
    Total Points           =         700319
    Total Blocks           =           4991
    Max Points             =            256
    Max Functions          =            219
    Weights Tolerance      =       1.00E-15


  -Total Gradient:
     Atom            X                  Y                   Z
    ------   -----------------  -----------------  -----------------
       1       -0.007615878672    -0.000200486772    -0.017675566587
       2        0.019699429829     0.007066219183    -0.019319295301
       3       -0.014853969926    -0.011773049082     0.014930783394
       4        0.001104075984    -0.007537903843    -0.004719270735
       5        0.004598719826    -0.005576541822     0.010482606671
       6        0.000384767909     0.007879498470     0.004258801369
       7       -0.016890572157     0.005196250229     0.006770695492
       8       -0.003425779773     0.004263608591    -0.009189605961
       9        0.010843573764    -0.005606031951    -0.005056341895
      10       -0.002705346615    -0.004906870739     0.015562836745
      11        0.008409817905    -0.005562385959     0.007103234159
      12        0.007220267642    -0.001796329731     0.014367575325
      13       -0.004389651556     0.007410482758     0.001929650897
      14        0.000617314447    -0.004838700053    -0.007117110581
      15       -0.002776362328     0.003338035813     0.006167038781
      16        0.002534544130    -0.004767981985    -0.003599717400
      17       -0.001273105045     0.005575430224    -0.006823089086
      18       -0.002386318798    -0.006414878165    -0.002952889575
      19       -0.001537861187     0.005896796768     0.003795421425
      20        0.008750372697     0.002043083117    -0.004191476962
      21       -0.000902141981    -0.007248277478    -0.001582501420
      22       -0.001626943456     0.006466635088     0.003722788711
      23        0.000469474166    -0.003235164233     0.006944720364
      24       -0.007441044432     0.003350834333    -0.001942045410
      25       -0.002239926120     0.002806327680     0.006093717871
      26        0.002277944470    -0.006326866227    -0.002209690288
      27       -0.002798237101     0.006098762707     0.001172194257
      28        0.001955437900    -0.001379712248    -0.006427920921
      29       -0.000989149136     0.004564162316    -0.005125275104
      30        0.002554961085    -0.004897837824    -0.003520581711
      31        0.002316074919     0.006116209967     0.000924372468
      32       -0.002376890979     0.001987911478    -0.002367791883
      33       -0.003550855841     0.000265293048     0.002625315903
      34        0.006281745730     0.001683651506    -0.003079004320


*** tstop() called on node74.bme.utexas.edu at Thu Jun  9 00:56:49 2022
Module time:
	user time   =     118.57 seconds =       1.98 minutes
	system time =       1.71 seconds =       0.03 minutes
	total time  =         62 seconds =       1.03 minutes
Total time:
	user time   =     389.90 seconds =       6.50 minutes
	system time =      10.06 seconds =       0.17 minutes
	total time  =        204 seconds =       3.40 minutes

			-----------------------------------------
			 OPTKING 2.0: for geometry optimizations 
			  - R.A. King,  Bethel University        
			-----------------------------------------
	At level 1: Red. Int., RFO, no backsteps, dynamic trust

	Internal coordinates to be generated automatically.
	Detected frag 1 with atoms:  1 2 3 4 5 6 7 8 9 10 11 12 13 14 15 16 17 18 19 20
	 21 22 23 24 25 26 27 28 29 30 31 32 33 34
	---Fragment 1 Bond Connectivity---
	 1 : 2 7 12
	 2 : 1 3 5
	 3 : 2 4 6
	 4 : 3 18 21
	 5 : 2
	 6 : 3 19 22
	 7 : 1 9 10
	 8 : 10 11 23
	 9 : 7 11 32
	 10 : 7 8 24
	 11 : 8 9 33
	 12 : 1 13 14
	 13 : 12 15 25
	 14 : 12 16 26
	 15 : 13 17 27
	 16 : 14 17 28
	 17 : 15 16 29
	 18 : 4 20 30
	 19 : 6 20 31
	 20 : 18 19 34
	 21 : 4
	 22 : 6
	 23 : 8
	 24 : 10
	 25 : 13
	 26 : 14
	 27 : 15
	 28 : 16
	 29 : 17
	 30 : 18
	 31 : 19
	 32 : 9
	 33 : 11
	 34 : 20

	Assuming in current code that numbering for constraints corresponds to unified fragment.
	Frozen dihedral atom list: 
	     1     2     3     4
	     2     1    12    13
	     7     1     2     3
	---Fragment 1 Geometry and Gradient---
	 C          -1.1148732030       -0.5805270098        0.6378791029
	 N           1.2246209684       -1.7221048930        0.9293240043
	 C           3.5596100327       -1.1214762310       -0.2287908723
	 C           4.8220132249       -2.9598830641       -1.7053472776
	 H           1.3331252630       -2.8798134784        2.5108981596
	 C           4.6489842317        1.3040741784        0.0706400118
	 C          -3.0270190392       -1.1095539489        2.3925011487
	 N          -4.8983789165       -2.6269000927        5.9551848055
	 C          -5.6917445255       -0.5108471384        2.3431471715
	 C          -2.6023730124       -2.5530269190        4.7481978319
	 C          -6.7438306485       -1.4197865074        4.5065396550
	 C          -1.4745844607        1.3032332503       -1.4277767454
	 C          -2.5759622001        3.6955622744       -0.9190322368
	 C          -0.8341581665        0.6915666980       -3.9609300502
	 C          -2.9796625025        5.4325399475       -2.8756905719
	 C          -1.2338598085        2.4405025579       -5.9075633882
	 C          -2.3057767176        4.8204671040       -5.3786592813
	 C           7.1239320820       -2.3679490320       -2.8742411520
	 C           6.9517629142        1.8768615054       -1.1055349773
	 C           8.2064087807        0.0508531655       -2.5872427761
	 H           4.0005398295       -4.8387772794       -1.9359996896
	 H           3.6937314547        2.7324954799        1.2125145820
	 H          -5.1335439944       -3.4812150384        7.6444657911
	 O          -0.5898373655       -3.5433794690        5.5297507629
	 H          -3.0988947724        4.1858895122        1.0154255957
	 H          -0.0266271705       -1.1566062397       -4.3932181294
	 H          -3.8193112838        7.2690249291       -2.4559124796
	 H          -0.7159255618        1.9530873881       -7.8435443400
	 H          -2.6152685035        6.1799436376       -6.8986170266
	 H           8.0757928006       -3.8000458508       -4.0123948515
	 H           7.7706284875        3.7541248871       -0.8656493635
	 H          -6.6898166067        0.4914749369        0.8686883621
	 H          -8.6735263713       -1.3264132499        5.1704628038
	 H           9.9989141662        0.5059559082       -3.5009329167
	            -0.0076158787       -0.0002004868       -0.0176755666
	             0.0196994298        0.0070662192       -0.0193192953
	            -0.0148539699       -0.0117730491        0.0149307834
	             0.0011040760       -0.0075379038       -0.0047192707
	             0.0045987198       -0.0055765418        0.0104826067
	             0.0003847679        0.0078794985        0.0042588014
	            -0.0168905722        0.0051962502        0.0067706955
	            -0.0034257798        0.0042636086       -0.0091896060
	             0.0108435738       -0.0056060320       -0.0050563419
	            -0.0027053466       -0.0049068707        0.0155628367
	             0.0084098179       -0.0055623860        0.0071032342
	             0.0072202676       -0.0017963297        0.0143675753
	            -0.0043896516        0.0074104828        0.0019296509
	             0.0006173144       -0.0048387001       -0.0071171106
	            -0.0027763623        0.0033380358        0.0061670388
	             0.0025345441       -0.0047679820       -0.0035997174
	            -0.0012731050        0.0055754302       -0.0068230891
	            -0.0023863188       -0.0064148782       -0.0029528896
	            -0.0015378612        0.0058967968        0.0037954214
	             0.0087503727        0.0020430831       -0.0041914770
	            -0.0009021420       -0.0072482775       -0.0015825014
	            -0.0016269435        0.0064666351        0.0037227887
	             0.0004694742       -0.0032351642        0.0069447204
	            -0.0074410444        0.0033508343       -0.0019420454
	            -0.0022399261        0.0028063277        0.0060937179
	             0.0022779445       -0.0063268662       -0.0022096903
	            -0.0027982371        0.0060987627        0.0011721943
	             0.0019554379       -0.0013797122       -0.0064279209
	            -0.0009891491        0.0045641623       -0.0051252751
	             0.0025549611       -0.0048978378       -0.0035205817
	             0.0023160749        0.0061162100        0.0009243725
	            -0.0023768910        0.0019879115       -0.0023677919
	            -0.0035508558        0.0002652930        0.0026253159
	             0.0062817457        0.0016836515       -0.0030790043

	Previous optimization step data not found.  Starting new optimization.

	---Fragment 1 Intrafragment Coordinates---
	 - Coordinate -           - BOHR/RAD -       - ANG/DEG -
	 H(5,24)          =         3.640271	       1.926349
	 R(1,2)           =         2.619422	       1.386139
	 R(1,7)           =         2.648560	       1.401558
	 R(1,12)          =         2.818666	       1.491574
	 R(2,3)           =         2.674726	       1.415404
	 R(2,5)           =         1.963018	       1.038784
	 R(3,4)           =         2.674625	       1.415351
	 R(3,6)           =         2.675760	       1.415951
	 R(4,18)          =         2.648684	       1.401623
	 R(4,21)          =         2.063556	       1.091987
	 R(6,19)          =         2.648445	       1.401497
	 R(6,22)          =         2.063195	       1.091796
	 R(7,9)           =         2.731602	       1.445501
	 R(7,10)          =         2.795218	       1.479166
	 R(8,10)          =         2.594979	       1.373204
	 R(8,11)          =         2.638444	       1.396205
	 R(8,23)          =         1.907571	       1.009443
	 R(9,11)          =         2.571638	       1.360852
	 R(9,32)          =         2.043239	       1.081236
	 R(10,24)         =         2.375273	       1.256940
	 R(11,33)         =         2.042850	       1.081030
	 R(12,13)         =         2.682367	       1.419447
	 R(12,14)         =         2.683495	       1.420045
	 R(13,15)         =         2.647372	       1.400929
	 R(13,25)         =         2.063009	       1.091697
	 R(14,16)         =         2.647248	       1.400863
	 R(14,26)         =         2.062698	       1.091533
	 R(15,17)         =         2.663383	       1.409401
	 R(15,27)         =         2.062499	       1.091427
	 R(16,17)         =         2.663264	       1.409339
	 R(16,28)         =         2.062487	       1.091421
	 R(17,29)         =         2.062579	       1.091470
	 R(18,20)         =         2.665470	       1.410506
	 R(18,30)         =         2.062119	       1.091226
	 R(19,20)         =         2.665314	       1.410424
	 R(19,31)         =         2.062087	       1.091210
	 R(20,34)         =         2.062771	       1.091571
	 B(1,2,3)         =         2.257059	     129.319933
	 B(1,2,5)         =         1.977991	     113.330543
	 B(1,7,9)         =         2.276452	     130.431094
	 B(1,7,10)        =         2.155296	     123.489341
	 B(1,12,13)       =         2.105352	     120.627768
	 B(1,12,14)       =         2.104820	     120.597309
	 B(2,1,7)         =         2.076067	     118.949879
	 B(2,1,12)        =         2.079195	     119.129112
	 B(2,3,4)         =         2.090618	     119.783600
	 B(2,3,6)         =         2.106586	     120.698509
	 B(3,2,5)         =         2.018648	     115.660031
	 B(3,4,18)        =         2.094648	     120.014502
	 B(3,4,21)        =         2.093996	     119.977148
	 B(3,6,19)        =         2.094791	     120.022666
	 B(3,6,22)        =         2.095585	     120.068164
	 B(4,3,6)         =         2.085980	     119.517850
	 B(4,18,20)       =         2.103921	     120.545783
	 B(4,18,30)       =         2.082350	     119.309879
	 B(6,19,20)       =         2.103668	     120.531303
	 B(6,19,31)       =         2.083462	     119.373587
	 B(7,1,12)        =         2.125692	     121.793189
	 B(7,9,11)        =         1.882234	     107.844083
	 B(7,9,32)        =         2.210644	     126.660589
	 B(7,10,8)        =         1.846551	     105.799552
	 B(7,10,24)       =         2.241236	     128.413336
	 B(8,10,24)       =         2.195375	     125.785740
	 B(8,11,9)        =         1.914998	     109.721293
	 B(8,11,33)       =         2.098064	     120.210240
	 B(9,7,10)        =         1.851062	     106.058067
	 B(9,11,33)       =         2.270120	     130.068300
	 B(10,8,11)       =         1.928859	     110.515467
	 B(10,8,23)       =         2.133795	     122.257424
	 B(11,8,23)       =         2.220428	     127.221139
	 B(11,9,32)       =         2.190280	     125.493812
	 B(12,13,15)      =         2.103198	     120.504370
	 B(12,13,25)      =         2.087365	     119.597211
	 B(12,14,16)      =         2.103103	     120.498931
	 B(12,14,26)      =         2.089200	     119.702370
	 B(13,12,14)      =         2.071814	     118.706178
	 B(13,15,17)      =         2.100427	     120.345597
	 B(13,15,27)      =         2.089630	     119.726988
	 B(14,16,17)      =         2.100319	     120.339435
	 B(14,16,28)      =         2.090004	     119.748418
	 B(15,13,25)      =         2.092599	     119.897106
	 B(15,17,16)      =         2.087287	     119.592733
	 B(15,17,29)      =         2.097978	     120.205274
	 B(16,14,26)      =         2.090881	     119.798654
	 B(16,17,29)      =         2.097919	     120.201901
	 B(17,15,27)      =         2.093128	     119.927399
	 B(17,16,28)      =         2.092859	     119.911969
	 B(18,4,21)       =         2.094540	     120.008283
	 B(18,20,19)      =         2.083332	     119.366136
	 B(18,20,34)      =         2.100664	     120.359167
	 B(19,6,22)       =         2.092804	     119.908860
	 B(19,20,34)      =         2.099189	     120.274666
	 B(20,18,30)      =         2.096914	     120.144336
	 B(20,19,31)      =         2.096055	     120.095109
	*D(1,2,3,4)       =        -2.110324	    -120.912674
	 D(1,2,3,6)       =         1.029966	      59.012684
	 D(1,7,9,11)      =        -3.133204	    -179.519347
	 D(1,7,9,32)      =         0.000878	       0.050331
	 D(1,7,10,8)      =         3.124667	     179.030227
	 D(1,7,10,24)     =        -0.024103	      -1.381015
	 D(1,12,13,15)    =        -3.108702	    -178.115516
	 D(1,12,13,25)    =         0.040172	       2.301679
	 D(1,12,14,16)    =         3.112960	     178.359446
	 D(1,12,14,26)    =        -0.027291	      -1.563665
	 D(2,1,7,9)       =        -2.958019	    -169.481998
	 D(2,1,7,10)      =         0.149869	       8.586885
	*D(2,1,12,13)     =        -2.274416	    -130.314443
	 D(2,1,12,14)     =         0.920481	      52.739655
	 D(2,3,4,18)      =         3.131978	     179.449101
	 D(2,3,4,21)      =        -0.007971	      -0.456699
	 D(2,3,6,19)      =        -3.132228	    -179.463434
	 D(2,3,6,22)      =         0.005826	       0.333825
	*D(3,2,1,7)       =        -2.887637	    -165.449399
	 D(3,2,1,12)      =         0.183529	      10.515444
	 D(3,4,18,20)     =         0.003492	       0.200070
	 D(3,4,18,30)     =        -3.138397	    -179.816877
	 D(3,6,19,20)     =        -0.002962	      -0.169720
	 D(3,6,19,31)     =         3.138601	     179.828604
	 D(4,3,2,5)       =         1.309932	      75.053590
	 D(4,3,6,19)      =         0.008066	       0.462121
	 D(4,3,6,22)      =        -3.137066	    -179.740620
	 D(4,18,20,19)    =         0.001653	       0.094685
	 D(4,18,20,34)    =        -3.141051	    -179.968947
	 D(5,2,1,7)       =        -0.019460	      -1.114964
	 D(5,2,1,12)      =         3.051706	     174.849878
	 D(5,2,3,6)       =        -1.832963	    -105.021052
	 D(6,3,4,18)      =        -0.008328	      -0.477144
	 D(6,3,4,21)      =         3.134909	     179.617056
	 D(6,19,20,18)    =        -0.001918	      -0.109879
	 D(6,19,20,34)    =         3.140785	     179.953698
	 D(7,1,12,13)     =         0.794667	      45.531087
	 D(7,1,12,14)     =        -2.293621	    -131.414814
	 D(7,9,11,8)      =        -0.017630	      -1.010114
	 D(7,9,11,33)     =         3.126616	     179.141923
	 D(7,10,8,11)     =         0.034393	       1.970585
	 D(7,10,8,23)     =        -3.121674	    -178.858729
	 D(8,10,7,9)      =        -0.043621	      -2.499289
	 D(8,11,9,32)     =         3.131363	     179.413870
	 D(9,7,1,12)      =         0.255957	      14.665250
	 D(9,7,10,24)     =         3.090794	     177.089470
	 D(9,11,8,10)     =        -0.011417	      -0.654166
	 D(9,11,8,23)     =        -3.137639	    -179.773451
	 D(10,7,1,12)     =        -2.919340	    -167.265868
	 D(10,7,9,11)     =         0.037638	       2.156496
	 D(10,7,9,32)     =        -3.111465	    -178.273826
	 D(10,8,11,33)    =         3.127825	     179.211197
	 D(11,8,10,24)    =        -3.100267	    -177.632197
	 D(12,13,15,17)   =         0.004681	       0.268181
	 D(12,13,15,27)   =        -3.136105	    -179.685564
	 D(12,14,16,17)   =        -0.013177	      -0.755012
	 D(12,14,16,28)   =         3.131096	     179.398581
	 D(13,12,14,16)   =         0.023661	       1.355692
	 D(13,12,14,26)   =        -3.116589	    -178.567418
	 D(13,15,17,16)   =         0.006200	       0.355207
	 D(13,15,17,29)   =        -3.137309	    -179.754559
	 D(14,12,13,15)   =        -0.019420	      -1.112705
	 D(14,12,13,25)   =         3.129454	     179.304490
	 D(14,16,17,15)   =        -0.001952	      -0.111870
	 D(14,16,17,29)   =         3.141556	     179.997893
	 D(15,17,16,28)   =         3.136955	     179.734285
	 D(16,17,15,27)   =        -3.136202	    -179.691141
	 D(17,15,13,25)   =         3.138970	     179.849736
	 D(17,16,14,26)   =         3.127072	     179.168024
	 D(18,20,19,31)   =         3.139704	     179.891809
	 D(19,20,18,30)   =        -3.139642	    -179.888226
	 D(20,18,4,21)    =        -3.139745	    -179.894159
	 D(20,19,6,22)    =        -3.141022	    -179.967303
	 D(21,4,18,30)    =         0.001551	       0.088894
	 D(22,6,19,31)    =         0.000541	       0.031021
	 D(23,8,10,24)    =         0.026852	       1.538490
	 D(23,8,11,33)    =         0.001604	       0.091913
	 D(25,13,15,27)   =        -0.001815	      -0.104009
	 D(26,14,16,28)   =        -0.011840	      -0.678382
	 D(27,15,17,29)   =         0.003475	       0.199093
	 D(28,16,17,29)   =        -0.002722	      -0.155952
	 D(30,18,20,34)   =         0.000840	       0.048142
	 D(31,19,20,34)   =        -0.000779	      -0.044614
	 D(32,9,11,33)    =        -0.007576	      -0.434093
	 R(2,24)          =         5.270031	       2.788780
	 R(3,14)          =         6.043276	       3.197964
	 R(4,14)          =         7.100212	       3.757270
	 R(6,12)          =         6.304232	       3.336056
	 R(6,14)          =         6.833270	       3.616011
	 R(9,13)          =         6.167965	       3.263947

	Current energy   :      -840.6464027059

	Generating empirical Hessian (Schlegel '84) for each fragment.
	Taking RFO optimization step.
	Going to follow RFO solution 1.
	Using RFO vector 1.
	Norm of target step-size    0.34445
	Projected energy change by RFO approximation:        -0.0026326804

	Back-transformation to cartesian coordinates...
	Successfully converged to displaced geometry.
	First geometry is closer to target in internal coordinates, so am using that one.
	First geometry has RMS(Delta(q)) = 1.56e-03

	Back-transformation to cartesian coordinates to adjust frozen coordinates...
	Successfully converged to displaced geometry.

	--- Internal Coordinate Step in ANG or DEG, aJ/ANG or AJ/DEG ---
	 ---------------------------------------------------------------------------
	   Coordinate                Previous        Force       Change         New 
	   ----------                --------       ------       ------       ------
	    1 H(5,24)         =      1.926349    -0.031275    -0.025756     1.900593
	    2 R(1,2)          =      1.386139    -0.131972    -0.020500     1.365639
	    3 R(1,7)          =      1.401558    -0.116680    -0.022603     1.378954
	    4 R(1,12)         =      1.491574     0.010130    -0.004549     1.487025
	    5 R(2,3)          =      1.415404     0.072196     0.008583     1.423987
	    6 R(2,5)          =      1.038784    -0.122104    -0.015854     1.022930
	    7 R(3,4)          =      1.415351    -0.126645    -0.019630     1.395721
	    8 R(3,6)          =      1.415951    -0.138910    -0.021090     1.394861
	    9 R(4,18)         =      1.401623    -0.075876    -0.010373     1.391250
	   10 R(4,21)         =      1.091987    -0.058723    -0.010298     1.081689
	   11 R(6,19)         =      1.401497    -0.079305    -0.010867     1.390630
	   12 R(6,22)         =      1.091796    -0.060167    -0.010486     1.081309
	   13 R(7,9)          =      1.445501     0.083597     0.012425     1.457927
	   14 R(7,10)         =      1.479166    -0.035727    -0.007864     1.471302
	   15 R(8,10)         =      1.373204     0.035802     0.004992     1.378196
	   16 R(8,11)         =      1.396205     0.046535     0.011135     1.407339
	   17 R(8,23)         =      1.009443    -0.062138    -0.006095     1.003348
	   18 R(9,11)         =      1.360852    -0.083300    -0.007641     1.353212
	   19 R(9,32)         =      1.081236    -0.031697    -0.002628     1.078608
	   20 R(10,24)        =      1.256940     0.069511     0.008400     1.265340
	   21 R(11,33)        =      1.081030    -0.034808    -0.005925     1.075105
	   22 R(12,13)        =      1.419447    -0.130660    -0.020814     1.398634
	   23 R(12,14)        =      1.420045    -0.132252    -0.019920     1.400125
	   24 R(13,15)        =      1.400929    -0.079865    -0.010807     1.390122
	   25 R(13,25)        =      1.091697    -0.057303    -0.009754     1.081943
	   26 R(14,16)        =      1.400863    -0.086134    -0.011609     1.389255
	   27 R(14,26)        =      1.091533    -0.057807    -0.010126     1.081406
	   28 R(15,17)        =      1.409401    -0.130421    -0.017088     1.392313
	   29 R(15,27)        =      1.091427    -0.056151    -0.009740     1.081687
	   30 R(16,17)        =      1.409339    -0.126484    -0.016942     1.392397
	   31 R(16,28)        =      1.091421    -0.056387    -0.009561     1.081860
	   32 R(17,29)        =      1.091470    -0.057130    -0.010062     1.081408
	   33 R(18,20)        =      1.410506    -0.130399    -0.018343     1.392162
	   34 R(18,30)        =      1.091226    -0.053648    -0.009459     1.081767
	   35 R(19,20)        =      1.410424    -0.128489    -0.018104     1.392319
	   36 R(19,31)        =      1.091210    -0.054403    -0.009685     1.081525
	   37 R(20,34)        =      1.091571    -0.059234    -0.010554     1.081017
	   38 B(1,2,3)        =    129.319933     0.000053    -1.273396   128.046536
	   39 B(1,2,5)        =    113.330543    -0.000086     0.215634   113.546177
	   40 B(1,7,9)        =    130.431094    -0.000058    -0.337639   130.093456
	   41 B(1,7,10)       =    123.489341     0.000034    -0.458992   123.030349
	   42 B(1,12,13)      =    120.627768    -0.000029    -0.670577   119.957190
	   43 B(1,12,14)      =    120.597309     0.000198     0.681185   121.278494
	   44 B(2,1,7)        =    118.949879    -0.000288    -0.228024   118.721855
	   45 B(2,1,12)       =    119.129112     0.000146     0.382121   119.511233
	   46 B(2,3,4)        =    119.783600    -0.000069    -0.222958   119.560642
	   47 B(2,3,6)        =    120.698509     0.000119     0.240223   120.938732
	   48 B(3,2,5)        =    115.660031     0.000049     1.413209   117.073240
	   49 B(3,4,18)       =    120.014502     0.000053     0.121407   120.135909
	   50 B(3,4,21)       =    119.977148    -0.000196    -0.796321   119.180826
	   51 B(3,6,19)       =    120.022666     0.000071     0.149902   120.172568
	   52 B(3,6,22)       =    120.068164    -0.000213    -0.853872   119.214292
	   53 B(4,3,6)        =    119.517850    -0.000051    -0.018682   119.499167
	   54 B(4,18,20)      =    120.545783    -0.000073    -0.239369   120.306413
	   55 B(4,18,30)      =    119.309879     0.000082     0.312309   119.622188
	   56 B(6,19,20)      =    120.531303    -0.000056    -0.211938   120.319365
	   57 B(6,19,31)      =    119.373587     0.000057     0.230994   119.604581
	   58 B(7,1,12)       =    121.793189     0.000155    -0.031408   121.761780
	   59 B(7,9,11)       =    107.844083     0.000183    -0.145944   107.698139
	   60 B(7,9,32)       =    126.660589    -0.000140    -0.139008   126.521582
	   61 B(7,10,8)       =    105.799552    -0.000245    -0.855515   104.944037
	   62 B(7,10,24)      =    128.413336     0.000681     1.425715   129.839052
	   63 B(8,10,24)      =    125.785740    -0.000436    -0.571276   125.214465
	   64 B(8,11,9)       =    109.721293    -0.000199    -0.500847   109.220446
	   65 B(8,11,33)      =    120.210240     0.000186     0.650346   120.860585
	   66 B(9,7,10)       =    106.058067     0.000023     0.790287   106.848354
	   67 B(9,11,33)      =    130.068300     0.000013    -0.150016   129.918284
	   68 B(10,8,11)      =    110.515467     0.000239     0.727220   111.242687
	   69 B(10,8,23)      =    122.257424    -0.000024    -0.084502   122.172922
	   70 B(11,8,23)      =    127.221139    -0.000216    -0.663956   126.557183
	   71 B(11,9,32)      =    125.493812    -0.000042     0.282203   125.776015
	   72 B(12,13,15)     =    120.504370     0.000118     0.075493   120.579863
	   73 B(12,13,25)     =    119.597211    -0.000162    -0.482407   119.114804
	   74 B(12,14,16)     =    120.498931     0.000139     0.130120   120.629052
	   75 B(12,14,26)     =    119.702370    -0.000123    -0.294512   119.407858
	   76 B(13,12,14)     =    118.706178    -0.000170     0.034803   118.740981
	   77 B(13,15,17)     =    120.345597    -0.000029    -0.114988   120.230609
	   78 B(13,15,27)     =    119.726988    -0.000001    -0.030689   119.696299
	   79 B(14,16,17)     =    120.339435    -0.000030    -0.154486   120.184949
	   80 B(14,16,28)     =    119.748418     0.000003     0.023513   119.771931
	   81 B(15,13,25)     =    119.897106     0.000044     0.405364   120.302470
	   82 B(15,17,16)     =    119.592733    -0.000028     0.038536   119.631269
	   83 B(15,17,29)     =    120.205274     0.000012    -0.018262   120.187012
	   84 B(16,14,26)     =    119.798654    -0.000016     0.164406   119.963060
	   85 B(16,17,29)     =    120.201901     0.000015    -0.020188   120.181714
	   86 B(17,15,27)     =    119.927399     0.000031     0.145669   120.073067
	   87 B(17,16,28)     =    119.911969     0.000027     0.131130   120.043099
	   88 B(18,4,21)      =    120.008283     0.000142     0.673642   120.681925
	   89 B(18,20,19)     =    119.366136     0.000057     0.191520   119.557656
	   90 B(18,20,34)     =    120.359167    -0.000040    -0.149873   120.209294
	   91 B(19,6,22)      =    119.908860     0.000142     0.703355   120.612215
	   92 B(19,20,34)     =    120.274666    -0.000017    -0.041619   120.233047
	   93 B(20,18,30)     =    120.144336    -0.000009    -0.076950   120.067386
	   94 B(20,19,31)     =    120.095109    -0.000001    -0.020065   120.075045
	   95 *D(1,2,3,4)     =   -120.912674    -0.000000     0.000000  -120.912674
	   96 D(1,2,3,6)      =     59.012684     0.000011    -0.366991    58.645693
	   97 D(1,7,9,11)     =   -179.519347    -0.000011    -1.105223  -180.624570
	   98 D(1,7,9,32)     =      0.050331    -0.000002     0.044718     0.095049
	   99 D(1,7,10,8)     =    179.030227     0.000010     0.656839   179.687066
	  100 D(1,7,10,24)    =     -1.381015     0.000010     0.512444    -0.868570
	  101 D(1,12,13,15)   =   -178.115516    -0.000002    -0.837799  -178.953315
	  102 D(1,12,13,25)   =      2.301679     0.000001    -0.641308     1.660371
	  103 D(1,12,14,16)   =    178.359446    -0.000003     0.476207   178.835653
	  104 D(1,12,14,26)   =     -1.563665    -0.000005     0.336046    -1.227619
	  105 D(2,1,7,9)      =   -169.481998     0.000003    -3.112271  -172.594269
	  106 D(2,1,7,10)     =      8.586885    -0.000006    -3.363148     5.223737
	  107 *D(2,1,12,13)   =   -130.314443    -0.000000    -0.000000  -130.314443
	  108 D(2,1,12,14)    =     52.739655     0.000003    -1.274720    51.464936
	  109 D(2,3,4,18)     =    179.449101     0.000015     0.869683   180.318784
	  110 D(2,3,4,21)     =     -0.456699     0.000011     0.357283    -0.099416
	  111 D(2,3,6,19)     =   -179.463434    -0.000007    -0.020046  -179.483480
	  112 D(2,3,6,22)     =      0.333825    -0.000010    -0.164960     0.168865
	  113 *D(3,2,1,7)     =   -165.449399     0.000000     0.000000  -165.449399
	  114 D(3,2,1,12)     =     10.515444     0.000049     3.225768    13.741212
	  115 D(3,4,18,20)    =      0.200070    -0.000009    -1.292007    -1.091936
	  116 D(3,4,18,30)    =   -179.816877    -0.000003    -0.546930  -180.363807
	  117 D(3,6,19,20)    =     -0.169720    -0.000006    -0.403864    -0.573584
	  118 D(3,6,19,31)    =    179.828604    -0.000002    -0.037011   179.791594
	  119 D(4,3,2,5)      =     75.053590    -0.000015    -1.829970    73.223620
	  120 D(4,3,6,19)     =      0.462121     0.000003    -0.386966     0.075155
	  121 D(4,3,6,22)     =   -179.740620     0.000001    -0.531879  -180.272499
	  122 D(4,18,20,19)   =      0.094685     0.000006     0.496892     0.591577
	  123 D(4,18,20,34)   =   -179.968947     0.000005     0.578422  -179.390524
	  124 D(5,2,1,7)      =     -1.114964     0.000018     1.943088     0.828123
	  125 D(5,2,1,12)     =    174.849878     0.000067     5.168856   180.018734
	  126 D(5,2,3,6)      =   -105.021052    -0.000004    -2.196961  -107.218013
	  127 D(6,3,4,18)     =     -0.477144     0.000005     1.231144     0.754001
	  128 D(6,3,4,21)     =    179.617056     0.000001     0.718744   180.335800
	  129 D(6,19,20,18)   =     -0.109879     0.000002     0.350470     0.240591
	  130 D(6,19,20,34)   =    179.953698     0.000003     0.268990   180.222688
	  131 D(7,1,12,13)    =     45.531087     0.000046     3.319643    48.850731
	  132 D(7,1,12,14)    =   -131.414814     0.000049     2.044923  -129.369890
	  133 D(7,9,11,8)     =     -1.010114     0.000008     1.004092    -0.006022
	  134 D(7,9,11,33)    =    179.141923     0.000010     1.157081   180.299004
	  135 D(7,10,8,11)    =      1.970585     0.000004     0.156645     2.127230
	  136 D(7,10,8,23)    =   -178.858729    -0.000005    -0.795661  -179.654390
	  137 D(8,10,7,9)     =     -2.499289     0.000002     0.442428    -2.056861
	  138 D(8,11,9,32)    =    179.413870    -0.000001    -0.132702   179.281168
	  139 D(9,7,1,12)     =     14.665250    -0.000047    -6.431074     8.234175
	  140 D(9,7,10,24)    =    177.089470     0.000002     0.298033   177.387503
	  141 D(9,11,8,10)    =     -0.654166    -0.000007    -0.745947    -1.400114
	  142 D(9,11,8,23)    =   -179.773451     0.000003     0.250768  -179.522683
	  143 D(10,7,1,12)    =   -167.265868    -0.000056    -6.681952  -173.947820
	  144 D(10,7,9,11)    =      2.156496    -0.000003    -0.869782     1.286714
	  145 D(10,7,9,32)    =   -178.273826     0.000006     0.280159  -177.993667
	  146 D(10,8,11,33)   =    179.211197    -0.000009    -0.883839   178.327359
	  147 D(11,8,10,24)   =   -177.632197     0.000003     0.281634  -177.350563
	  148 D(12,13,15,17)  =      0.268181     0.000004     0.119175     0.387356
	  149 D(12,13,15,27)  =   -179.685564     0.000002     0.016265  -179.669299
	  150 D(12,14,16,17)  =     -0.755012     0.000002     0.556509    -0.198503
	  151 D(12,14,16,28)  =    179.398581     0.000002     0.455111   179.853693
	  152 D(13,12,14,16)  =      1.355692    -0.000001    -0.761780     0.593912
	  153 D(13,12,14,26)  =   -178.567418    -0.000003    -0.901941  -179.469359
	  154 D(13,15,17,16)  =      0.355207    -0.000002    -0.335360     0.019847
	  155 D(13,15,17,29)  =   -179.754559    -0.000002    -0.200303  -179.954862
	  156 D(14,12,13,15)  =     -1.112705    -0.000002     0.424974    -0.687732
	  157 D(14,12,13,25)  =    179.304490     0.000001     0.621465   179.925954
	  158 D(14,16,17,15)  =     -0.111870    -0.000002    -0.001753    -0.113623
	  159 D(14,16,17,29)  =    179.997893    -0.000001    -0.136805   179.861088
	  160 D(15,17,16,28)  =    179.734285    -0.000002     0.099754   179.834039
	  161 D(16,17,15,27)  =   -179.691141    -0.000000    -0.232142  -179.923283
	  162 D(17,15,13,25)  =    179.849736     0.000001    -0.083368   179.766368
	  163 D(17,16,14,26)  =    179.168024     0.000005     0.697095   179.865119
	  164 D(18,20,19,31)  =    179.891809    -0.000002    -0.018120   179.873689
	  165 D(19,20,18,30)  =   -179.888226    -0.000000    -0.251579  -180.139806
	  166 D(20,18,4,21)   =   -179.894159    -0.000005    -0.773220  -180.667380
	  167 D(20,19,6,22)   =   -179.967303    -0.000004    -0.253711  -180.221014
	  168 D(21,4,18,30)   =      0.088894     0.000001    -0.028144     0.060750
	  169 D(22,6,19,31)   =      0.031021     0.000000     0.113142     0.144163
	  170 D(23,8,10,24)   =      1.538490    -0.000006    -0.670673     0.867817
	  171 D(23,8,11,33)   =      0.091913     0.000000     0.112876     0.204789
	  172 D(25,13,15,27)  =     -0.104009    -0.000001    -0.186279    -0.290287
	  173 D(26,14,16,28)  =     -0.678382     0.000005     0.595697    -0.082685
	  174 D(27,15,17,29)  =      0.199093    -0.000001    -0.097086     0.102007
	  175 D(28,16,17,29)  =     -0.155952    -0.000001    -0.035298    -0.191250
	  176 D(30,18,20,34)  =      0.048142    -0.000001    -0.170049    -0.121907
	  177 D(31,19,20,34)  =     -0.044614    -0.000001    -0.099599    -0.144213
	  178 D(32,9,11,33)   =     -0.434093     0.000001     0.020287    -0.413806
	  179 R(2,24)         =      2.788780    -0.027554    -0.023704     2.765076
	  180 R(3,14)         =      3.197964    -0.000810    -0.018891     3.179073
	  181 R(4,14)         =      3.757270    -0.039774    -0.060983     3.696287
	  182 R(6,12)         =      3.336056    -0.011083    -0.019869     3.316187
	  183 R(6,14)         =      3.616011    -0.010452     0.001505     3.617516
	  184 R(9,13)         =      3.263947    -0.054582    -0.052398     3.211549
	 ---------------------------------------------------------------------------
	Successfully symmetrized geometry.

  ==> Convergence Check <==

  Measures of convergence in internal coordinates in au.
  Criteria marked as inactive (o), active & met (*), and active & unmet ( ).
  --------------------------------------------------------------------------------------------- ~
   Step     Total Energy     Delta E     MAX Force     RMS Force      MAX Disp      RMS Disp    ~
  --------------------------------------------------------------------------------------------- ~
    Convergence Criteria             o    2.50e-03 *    1.70e-03 *    1.00e-02 *    6.70e-03 *  ~
  --------------------------------------------------------------------------------------------- ~
      1    -840.64640271   -8.41e+02 o    1.69e-02      4.93e-03      1.17e-01      2.51e-02    ~
  ---------------------------------------------------------------------------------------------

	Writing optimization data to binary file.
	Structure for next step:
	Cartesian Geometry (in Angstrom)
	    C    -0.5685723249  -0.2843970256   0.3647596816
	    N     0.6416232814  -0.8996349377   0.5126737507
	    C     1.8778612849  -0.5656621666  -0.1101563038
	    C     2.5267116955  -1.5124648871  -0.9042564632
	    H     0.6797520638  -1.5401822363   1.3093116388
	    C     2.4455553936   0.6977608153   0.0545330918
	    C    -1.5681950389  -0.5613263951   1.2733739774
	    N    -2.5823484950  -1.4246515858   3.0998807897
	    C    -2.9722291218  -0.1685938360   1.2734122200
	    C    -1.3610020840  -1.4037830364   2.4616785067
	    C    -3.5480652224  -0.7001893387   2.3765899795
	    C    -0.7707027472   0.6751769496  -0.7530976313
	    C    -1.3182827374   1.9370240866  -0.4999682969
	    C    -0.4568405589   0.3299600150  -2.0731983717
	    C    -1.5329472506   2.8360344682  -1.5383030935
	    C    -0.6735875086   1.2284453482  -3.1103931434
	    C    -1.2113922800   2.4854526817  -2.8468257009
	    C     3.7383523686  -1.2011868588  -1.5130336932
	    C     3.6481856231   1.0104158507  -0.5697887713
	    C     4.3005279806   0.0623931601  -1.3535336384
	    H     2.0791321993  -2.4887743585  -1.0328774197
	    H     1.9367122203   1.4292125010   0.6671396124
	    H    -2.7298076869  -1.9284730952   3.9549407628
	    O    -0.3216865461  -2.0088044970   2.8551990510
	    H    -1.5642208656   2.2096353006   0.5177734412
	    H    -0.0410050337  -0.6461637526  -2.2822512557
	    H    -1.9522678381   3.8101867354  -1.3255963301
	    H    -0.4238036758   0.9480824839  -4.1249990912
	    H    -1.3780002384   3.1856335711  -3.6539386899
	    H     4.2370079704  -1.9433138384  -2.1219752237
	    H     4.0784318626   1.9939592150  -0.4385368183
	    H    -3.4721254690   0.4272582573   0.5261113330
	    H    -4.5641835054  -0.6382374959   2.7223018145
	    H     5.2371535530   0.3057693120  -1.8352998136
			--------------------------
			 OPTKING Finished Execution 
			--------------------------

    Structure for next step:
    Molecular point group: c1
    Full point group: C1

    Geometry (in Angstrom), charge = 0, multiplicity = 1:

    C           -0.570412956083    -0.280076705932     0.366806727141
    N            0.639782654990    -0.895314620445     0.514720796891
    C            1.876020663394    -0.561341847943    -0.108109260064
    C            2.524871076504    -1.508144572199    -0.902209422597
    H            0.677911437573    -1.535861921501     1.311358688111
    C            2.443714774281     0.702081138913     0.056580136141
    C           -1.570035674022    -0.557006076498     1.275421026593
    N           -2.584189134039    -1.420331270616     3.101927846070
    C           -2.974069762439    -0.164273515879     1.275459269100
    C           -1.362842718263    -1.399462721054     2.463725560502
    C           -3.549905865306    -0.695869020591     2.378637032935
    C           -0.772543379157     0.679497273056    -0.751050590073
    C           -1.320123371475     1.941344415079    -0.497921254695
    C           -0.458681189600     0.334280337160    -2.071151335673
    C           -1.534787885579     2.840354800145    -1.536256055369
    C           -0.675428140163     1.232765673889    -3.108346111483
    C           -1.213232913716     2.489773012302    -2.844778667940
    C            3.736511754375    -1.196866542657    -1.510986654972
    C            3.646345008555     1.014736175541    -0.567741729362
    C            4.298687368542     0.066713481213    -1.351486599547
    H            2.077291578511    -2.484454047469    -1.030830379647
    H            1.934871598942     1.433532827468     0.669186659123
    H           -2.731648326569    -1.924152781909     3.956987822462
    O           -0.323527176333    -2.004484184087     2.857246106349
    H           -1.566061500637     2.213955630151     0.519820487354
    H           -0.042845662796    -0.641843434289    -2.280204220545
    H           -1.954108474734     3.814507071165    -1.323549291131
    H           -0.425644306439     0.952402808465    -4.122952063303
    H           -1.379840872773     3.189953904454    -3.651891660155
    H            4.235167358112    -1.938993525248    -2.119928187862
    H            4.076591249693     1.998279543636    -0.436489775924
    H           -3.473966111562     0.431578579803     0.528158379184
    H           -4.566024152246    -0.633917177531     2.724348869360
    H            5.235312944661     0.310089634073    -1.833252776701


Scratch directory: /scratch/bdw2292/Psi4-1_16_Index_0-farH_in17/

Scratch directory: /scratch/bdw2292/Psi4-1_16_Index_0-farH_in17/
gradient() will perform analytic gradient computation.

*** tstart() called on node74.bme.utexas.edu
*** at Thu Jun  9 00:56:50 2022

   => Loading Basis Set <=

    Name: 6-311G
    Role: ORBITAL
    Keyword: BASIS
    atoms 1, 3-4, 6-7, 9-20 entry C          line    92 file /home/bdw2292/miniconda3/envs/newamoebamdpoltype/share/psi4/basis/6-311g.gbs 
    atoms 2, 8              entry N          line   109 file /home/bdw2292/miniconda3/envs/newamoebamdpoltype/share/psi4/basis/6-311g.gbs 
    atoms 5, 21-23, 25-34   entry H          line    21 file /home/bdw2292/miniconda3/envs/newamoebamdpoltype/share/psi4/basis/6-311g.gbs 
    atoms 24                entry O          line   126 file /home/bdw2292/miniconda3/envs/newamoebamdpoltype/share/psi4/basis/6-311g.gbs 

   => WB97X-D: Empirical Dispersion <=

    Chai and Head-Gordon Dispersion Correction
    Chai, J.-D.; Head-Gordon, M. (2010), J. Chem. Phys., 132: 6615-6620

        s6 =       1.000000


         ---------------------------------------------------------
                                   SCF
               by Justin Turney, Rob Parrish, Andy Simmonett
                          and Daniel G. A. Smith
                              RKS Reference
                        2 Threads,   7788 MiB Core
         ---------------------------------------------------------

  ==> Geometry <==

    Molecular point group: c1
    Full point group: C1

    Geometry (in Angstrom), charge = 0, multiplicity = 1:

       Center              X                  Y                   Z               Mass       
    ------------   -----------------  -----------------  -----------------  -----------------
         C           -0.570412956083    -0.280076705932     0.366806727141    12.000000000000
         N            0.639782654990    -0.895314620445     0.514720796891    14.003074004430
         C            1.876020663394    -0.561341847943    -0.108109260064    12.000000000000
         C            2.524871076504    -1.508144572199    -0.902209422597    12.000000000000
         H            0.677911437573    -1.535861921501     1.311358688111     1.007825032230
         C            2.443714774281     0.702081138913     0.056580136141    12.000000000000
         C           -1.570035674022    -0.557006076498     1.275421026593    12.000000000000
         N           -2.584189134039    -1.420331270616     3.101927846070    14.003074004430
         C           -2.974069762439    -0.164273515879     1.275459269100    12.000000000000
         C           -1.362842718263    -1.399462721054     2.463725560502    12.000000000000
         C           -3.549905865306    -0.695869020591     2.378637032935    12.000000000000
         C           -0.772543379157     0.679497273056    -0.751050590073    12.000000000000
         C           -1.320123371475     1.941344415079    -0.497921254695    12.000000000000
         C           -0.458681189600     0.334280337160    -2.071151335673    12.000000000000
         C           -1.534787885579     2.840354800145    -1.536256055369    12.000000000000
         C           -0.675428140163     1.232765673889    -3.108346111483    12.000000000000
         C           -1.213232913716     2.489773012302    -2.844778667940    12.000000000000
         C            3.736511754375    -1.196866542657    -1.510986654972    12.000000000000
         C            3.646345008555     1.014736175541    -0.567741729362    12.000000000000
         C            4.298687368542     0.066713481213    -1.351486599547    12.000000000000
         H            2.077291578511    -2.484454047469    -1.030830379647     1.007825032230
         H            1.934871598942     1.433532827468     0.669186659123     1.007825032230
         H           -2.731648326569    -1.924152781909     3.956987822462     1.007825032230
         O           -0.323527176333    -2.004484184087     2.857246106349    15.994914619570
         H           -1.566061500637     2.213955630151     0.519820487354     1.007825032230
         H           -0.042845662796    -0.641843434289    -2.280204220545     1.007825032230
         H           -1.954108474734     3.814507071165    -1.323549291131     1.007825032230
         H           -0.425644306439     0.952402808465    -4.122952063303     1.007825032230
         H           -1.379840872773     3.189953904454    -3.651891660155     1.007825032230
         H            4.235167358112    -1.938993525248    -2.119928187862     1.007825032230
         H            4.076591249693     1.998279543636    -0.436489775924     1.007825032230
         H           -3.473966111562     0.431578579803     0.528158379184     1.007825032230
         H           -4.566024152246    -0.633917177531     2.724348869360     1.007825032230
         H            5.235312944661     0.310089634073    -1.833252776701     1.007825032230

  Running in c1 symmetry.

  Rotational constants: A =      0.01541  B =      0.00942  C =      0.00647 [cm^-1]
  Rotational constants: A =    461.85752  B =    282.45641  C =    193.94785 [MHz]
  Nuclear repulsion = 1424.798641026653058

  Charge       = 0
  Multiplicity = 1
  Electrons    = 138
  Nalpha       = 69
  Nbeta        = 69

  ==> Algorithm <==

  SCF Algorithm Type is DF.
  DIIS enabled.
  MOM disabled.
  Fractional occupation disabled.
  Guess Type is READ.
  Energy threshold   = 1.00e-08
  Density threshold  = 1.00e-08
  Integral threshold = 1.00e-12

  ==> Primary Basis <==

  Basis Set: 6-311G
    Blend: 6-311G
    Number of shells: 182
    Number of basis functions: 302
    Number of Cartesian functions: 302
    Spherical Harmonics?: true
    Max angular momentum: 1

  ==> DFT Potential <==

   => LibXC <=

    Version 5.1.5
    S. Lehtola, C. Steigemann, M. J. Oliveira, and M. A. Marques, SoftwareX 7, 1 (2018) (10.1016/j.softx.2017.11.002)

   => Composite Functional: WB97X-D <= 

    wB97X-D Hyb-GGA Exchange-Correlation Functional

    J.-D. Chai and M. Head-Gordon, Phys. Chem. Chem. Phys. 10, 6615 (2008) (10.1039/B810189B)

    Deriv               =              1
    GGA                 =           TRUE
    Meta                =          FALSE

    Exchange Hybrid     =           TRUE
    MP2 Hybrid          =          FALSE

   => Exchange-Correlation Functionals <=

    1.0000   wB97X-D range-separated functional

   => Exact (HF) Exchange <=

    0.7780            HF,LR [omega = 0.2000]
    0.2220               HF 

   => LibXC Density Thresholds  <==

    XC_HYB_GGA_XC_WB97X_D:  1.00E-14 

   => Molecular Quadrature <=

    Radial Scheme          =       TREUTLER
    Pruning Scheme         =           NONE
    Nuclear Scheme         =       TREUTLER

    BS radius alpha        =              1
    Pruning alpha          =              1
    Radial Points          =             75
    Spherical Points       =            302
    Total Points           =         699597
    Total Blocks           =           4969
    Max Points             =            256
    Max Functions          =            220
    Weights Tolerance      =       1.00E-15

   => Loading Basis Set <=

    Name: (6-311G AUX)
    Role: JKFIT
    Keyword: DF_BASIS_SCF
    atoms 1, 3-4, 6-7, 9-20 entry C          line   125 file /home/bdw2292/miniconda3/envs/newamoebamdpoltype/share/psi4/basis/cc-pvtz-jkfit.gbs 
    atoms 2, 8              entry N          line   177 file /home/bdw2292/miniconda3/envs/newamoebamdpoltype/share/psi4/basis/cc-pvtz-jkfit.gbs 
    atoms 5, 21-23, 25-34   entry H          line    51 file /home/bdw2292/miniconda3/envs/newamoebamdpoltype/share/psi4/basis/cc-pvtz-jkfit.gbs 
    atoms 24                entry O          line   229 file /home/bdw2292/miniconda3/envs/newamoebamdpoltype/share/psi4/basis/cc-pvtz-jkfit.gbs 

   => Loading Basis Set <=

    Name: 6-311G
    Role: ORBITAL
    Keyword: BASIS
    atoms 1, 3-4, 6-7, 9-20 entry C          line    92 file /home/bdw2292/miniconda3/envs/newamoebamdpoltype/share/psi4/basis/6-311g.gbs 
    atoms 2, 8              entry N          line   109 file /home/bdw2292/miniconda3/envs/newamoebamdpoltype/share/psi4/basis/6-311g.gbs 
    atoms 5, 21-23, 25-34   entry H          line    21 file /home/bdw2292/miniconda3/envs/newamoebamdpoltype/share/psi4/basis/6-311g.gbs 
    atoms 24                entry O          line   126 file /home/bdw2292/miniconda3/envs/newamoebamdpoltype/share/psi4/basis/6-311g.gbs 

  Reading orbitals from file /scratch/bdw2292/Psi4-1_16_Index_0-farH_in17/1_16_Index_0-opt-1_2-3-239.default.1252319.180.npy, no projection.

  ==> Integral Setup <==

  DFHelper Memory: AOs need 3.166 GiB; user supplied 3.166 GiB. Using in-core AOs.

  ==> MemDFJK: Density-Fitted J/K Matrices <==

    J tasked:                   Yes
    K tasked:                   Yes
    wK tasked:                  Yes
    Omega:                2.000E-01
    OpenMP threads:               2
    Memory [MiB]:              3241
    Algorithm:                 Core
    Schwarz Cutoff:           1E-12
    Mask sparsity (%):      23.5691
    Fitting Condition:        1E-10

   => Auxiliary Basis Set <=

  Basis Set: (6-311G AUX)
    Blend: CC-PVTZ-JKFIT
    Number of shells: 640
    Number of basis functions: 2000
    Number of Cartesian functions: 2410
    Spherical Harmonics?: true
    Max angular momentum: 4

  Cached 50.0% of DFT collocation blocks in 1.499 [GiB].

  Minimum eigenvalue in the overlap matrix is 2.3583264074E-04.
  Reciprocal condition number of the overlap matrix is 3.5056660228E-05.
    Using symmetric orthogonalization.

  ==> Pre-Iterations <==

  SCF Guess: Orbitals guess was supplied from a previous computation.

   -------------------------------------------------------
    Irrep   Nso     Nmo     Nalpha   Nbeta   Ndocc  Nsocc
   -------------------------------------------------------
     A        302     302      69      69      69       0
   -------------------------------------------------------
    Total     302     302      69      69      69       0
   -------------------------------------------------------

  ==> Iterations <==

                           Total Energy        Delta E     RMS |[F,P]|

   @DF-RKS iter   0:  -840.80995685877565   -8.40810e+02   9.15836e-04 
   @DF-RKS iter   1:  -840.65178147769484    1.58175e-01   1.38699e-04 DIIS
   @DF-RKS iter   2:  -840.65250732652248   -7.25849e-04   1.37366e-04 DIIS
   @DF-RKS iter   3:  -840.65342599923122   -9.18673e-04   3.15389e-05 DIIS
   @DF-RKS iter   4:  -840.65348573676249   -5.97375e-05   1.40814e-05 DIIS
   @DF-RKS iter   5:  -840.65349788176547   -1.21450e-05   4.41586e-06 DIIS
   @DF-RKS iter   6:  -840.65349885656622   -9.74801e-07   2.32078e-06 DIIS
   @DF-RKS iter   7:  -840.65349912477632   -2.68210e-07   7.27784e-07 DIIS
   @DF-RKS iter   8:  -840.65349916360617   -3.88299e-08   2.95705e-07 DIIS
   @DF-RKS iter   9:  -840.65349917393883   -1.03327e-08   1.02423e-07 DIIS
   @DF-RKS iter  10:  -840.65349917528908   -1.35026e-09   4.81498e-08 DIIS
[...]
	   24 R(13,15)        =      1.392536     0.000598     0.000075     1.392611
	   25 R(13,25)        =      1.081460    -0.000316    -0.000089     1.081371
	   26 R(14,16)        =      1.390126     0.000160    -0.000026     1.390100
	   27 R(14,26)        =      1.080676    -0.000114    -0.000035     1.080641
	   28 R(15,17)        =      1.392976    -0.000390    -0.000107     1.392869
	   29 R(15,27)        =      1.081451    -0.000068    -0.000031     1.081420
	   30 R(16,17)        =      1.394209    -0.000406    -0.000037     1.394172
	   31 R(16,28)        =      1.081221    -0.000115    -0.000065     1.081156
	   32 R(17,29)        =      1.081449     0.000088    -0.000014     1.081434
	   33 R(18,20)        =      1.393907    -0.000194    -0.000038     1.393870
	   34 R(18,30)        =      1.081458    -0.000107    -0.000037     1.081422
	   35 R(19,20)        =      1.393898    -0.000191    -0.000036     1.393862
	   36 R(19,31)        =      1.081271     0.000009    -0.000022     1.081248
	   37 R(20,34)        =      1.081216     0.000193     0.000012     1.081228
	   38 B(1,2,3)        =    125.767872     0.000005     0.014778   125.782650
	   39 B(1,2,5)        =    114.484234    -0.000007    -0.011427   114.472807
	   40 B(1,7,9)        =    131.066140    -0.000003     0.008219   131.074359
	   41 B(1,7,10)       =    122.109153     0.000004     0.006777   122.115929
	   42 B(1,12,13)      =    120.317040    -0.000001    -0.008663   120.308377
	   43 B(1,12,14)      =    120.428245     0.000002     0.008485   120.436730
	   44 B(2,1,7)        =    119.233258    -0.000001     0.001689   119.234947
	   45 B(2,1,12)       =    118.792298    -0.000002    -0.029292   118.763006
	   46 B(2,3,4)        =    119.661432    -0.000002    -0.013657   119.647775
	   47 B(2,3,6)        =    120.379448     0.000002     0.016269   120.395717
	   48 B(3,2,5)        =    118.798061     0.000002     0.018633   118.816694
	   49 B(3,4,18)       =    119.945901    -0.000001     0.001074   119.946975
	   50 B(3,4,21)       =    119.139097    -0.000000    -0.003381   119.135716
	   51 B(3,6,19)       =    119.960285    -0.000001     0.001072   119.961357
	   52 B(3,6,22)       =    119.232812    -0.000001    -0.007587   119.225226
	   53 B(4,3,6)        =    119.937006     0.000001    -0.002216   119.934790
	   54 B(4,18,20)      =    120.155230    -0.000000     0.000797   120.156027
	   55 B(4,18,30)      =    119.747389     0.000000    -0.000934   119.746455
	   56 B(6,19,20)      =    120.191776     0.000001     0.001173   120.192950
	   57 B(6,19,31)      =    119.654004    -0.000001    -0.001503   119.652502
	   58 B(7,1,12)       =    121.973020     0.000003     0.027743   122.000763
	   59 B(7,9,11)       =    107.581127     0.000001     0.014863   107.595990
	   60 B(7,9,32)       =    126.312239     0.000000    -0.001547   126.310691
	   61 B(7,10,8)       =    105.593810     0.000004     0.020741   105.614551
	   62 B(7,10,24)      =    128.843125     0.000001    -0.009515   128.833610
	   63 B(8,10,24)      =    125.556231    -0.000004    -0.010403   125.545828
	   64 B(8,11,9)       =    109.404790    -0.000002    -0.012528   109.392262
	   65 B(8,11,33)      =    120.625006    -0.000001     0.001323   120.626328
	   66 B(9,7,10)       =    106.803790    -0.000002    -0.013877   106.789912
	   67 B(9,11,33)      =    129.968903     0.000003     0.010386   129.979288
	   68 B(10,8,11)      =    110.583228    -0.000001    -0.005012   110.578216
	   69 B(10,8,23)      =    122.975144    -0.000001    -0.004768   122.970376
	   70 B(11,8,23)      =    126.407197     0.000002     0.015137   126.422334
	   71 B(11,9,32)      =    126.100333    -0.000001    -0.012926   126.087407
	   72 B(12,13,15)     =    120.308647    -0.000001    -0.000958   120.307689
	   73 B(12,13,25)     =    119.397479     0.000001     0.007503   119.404982
	   74 B(12,14,16)     =    120.332207     0.000001    -0.002327   120.329880
	   75 B(12,14,26)     =    119.613143    -0.000000     0.002556   119.615700
	   76 B(13,12,14)     =    119.251678    -0.000001     0.000016   119.251694
	   77 B(13,15,17)     =    120.123814    -0.000000    -0.001499   120.122314
	   78 B(13,15,27)     =    119.760091     0.000000     0.001448   119.761539
	   79 B(14,16,17)     =    120.159352     0.000003     0.008954   120.168305
	   80 B(14,16,28)     =    119.693698    -0.000001    -0.005874   119.687824
	   81 B(15,13,25)     =    120.282151    -0.000001    -0.006746   120.275405
	   82 B(15,17,16)     =    119.819402    -0.000001    -0.004088   119.815314
	   83 B(15,17,29)     =    120.094385     0.000002     0.003721   120.098106
	   84 B(16,14,26)     =    120.054642    -0.000001    -0.000226   120.054417
	   85 B(16,17,29)     =    120.086197    -0.000000     0.000359   120.086556
	   86 B(17,15,27)     =    120.115243    -0.000000     0.000105   120.115348
	   87 B(17,16,28)     =    120.146737    -0.000002    -0.003029   120.143708
	   88 B(18,4,21)      =    120.914941     0.000001     0.002297   120.917238
	   89 B(18,20,19)     =    119.799775    -0.000000    -0.001814   119.797961
	   90 B(18,20,34)     =    120.082303     0.000000    -0.000066   120.082237
	   91 B(19,6,22)      =    120.806021     0.000001     0.006519   120.812540
	   92 B(19,20,34)     =    120.117917     0.000000     0.001878   120.119796
	   93 B(20,18,30)     =    120.092541    -0.000000     0.000313   120.092854
	   94 B(20,19,31)     =    120.153741    -0.000000     0.000342   120.154083
	   95 *D(1,2,3,4)     =   -120.912674     0.000000    -0.000000  -120.912674
	   96 D(1,2,3,6)      =     57.375813    -0.000000     0.015352    57.391165
	   97 D(1,7,9,11)     =    179.710702     0.000001     0.056452   179.767154
	   98 D(1,7,9,32)     =      0.582174     0.000000     0.029199     0.611374
	   99 D(1,7,10,8)     =    179.659420     0.000001     0.069000   179.728419
	  100 D(1,7,10,24)    =     -1.262102     0.000001     0.126156    -1.135946
	  101 D(1,12,13,15)   =    179.832123     0.000000     0.016425   179.848548
	  102 D(1,12,13,25)   =      1.073986    -0.000000     0.027135     1.101121
	  103 D(1,12,14,16)   =    179.836595    -0.000000    -0.002703   179.833892
	  104 D(1,12,14,26)   =     -0.131754    -0.000000    -0.012425    -0.144179
	  105 D(2,1,7,9)      =   -175.675539     0.000001     0.152213  -175.523326
	  106 D(2,1,7,10)     =      2.428886     0.000002     0.203324     2.632211
	  107 *D(2,1,12,13)   =   -130.314443     0.000000     0.000000  -130.314443
	  108 D(2,1,12,14)    =     50.324235     0.000000     0.016839    50.341074
	  109 D(2,3,4,18)     =    179.134933    -0.000000     0.019304   179.154237
	  110 D(2,3,4,21)     =     -0.775623     0.000000     0.026564    -0.749059
	  111 D(2,3,6,19)     =   -178.257200    -0.000000    -0.023443  -178.280644
	  112 D(2,3,6,22)     =      1.403982     0.000000    -0.022498     1.381484
	  113 *D(3,2,1,7)     =   -165.449399    -0.000000    -0.000000  -165.449399
	  114 D(3,2,1,12)     =     14.976105     0.000000    -0.021668    14.954437
	  115 D(3,4,18,20)    =     -1.164346     0.000000     0.007832    -1.156514
	  116 D(3,4,18,30)    =    179.635146     0.000000    -0.006812   179.628333
	  117 D(3,6,19,20)    =     -0.569803     0.000000     0.001203    -0.568600
	  118 D(3,6,19,31)    =    179.681411     0.000000    -0.002141   179.679270
	  119 D(4,3,2,5)      =     70.888575    -0.000000    -0.134648    70.753927
	  120 D(4,3,6,19)     =      0.026565    -0.000000    -0.008242     0.018322
	  121 D(4,3,6,22)     =    179.687747    -0.000000    -0.007297   179.680450
	  122 D(4,18,20,19)   =      0.622095    -0.000000    -0.014862     0.607232
	  123 D(4,18,20,34)   =   -179.353792    -0.000000    -0.010409  -179.364202
	  124 D(5,2,1,7)      =      3.192972     0.000000     0.132517     3.325489
	  125 D(5,2,1,12)     =   -176.381524     0.000001     0.110850  -176.270674
	  126 D(5,2,3,6)      =   -110.822938    -0.000000    -0.119296  -110.942234
	  127 D(6,3,4,18)     =      0.838781    -0.000000     0.003703     0.842484
	  128 D(6,3,4,21)     =   -179.071774     0.000000     0.010962  -179.060812
	  129 D(6,19,20,18)   =      0.246488     0.000000     0.010310     0.256798
	  130 D(6,19,20,34)   =   -179.777634    -0.000000     0.005855  -179.771779
	  131 D(7,1,12,13)    =     50.123270     0.000000    -0.022171    50.101100
	  132 D(7,1,12,14)    =   -129.238052     0.000000    -0.005331  -129.243383
	  133 D(7,9,11,8)     =     -0.399171    -0.000001    -0.127420    -0.526591
	  134 D(7,9,11,33)    =   -179.977753    -0.000000    -0.010845  -179.988599
	  135 D(7,10,8,11)    =      1.646451    -0.000002    -0.190142     1.456309
	  136 D(7,10,8,23)    =    179.635780    -0.000000    -0.026882   179.608898
	  137 D(8,10,7,9)     =     -1.833396     0.000001     0.109534    -1.723863
	  138 D(8,11,9,32)    =    178.731714    -0.000001    -0.100119   178.631594
	  139 D(9,7,1,12)     =      3.884875     0.000001     0.174354     4.059229
	  140 D(9,7,10,24)    =    177.245082     0.000001     0.166690   177.411772
	  141 D(9,11,8,10)    =     -0.817478     0.000002     0.206626    -0.610852
	  142 D(9,11,8,23)    =   -178.721609     0.000001     0.036922  -178.684687
	  143 D(10,7,1,12)    =   -178.010700     0.000001     0.225466  -177.785234
	  144 D(10,7,9,11)    =      1.387876     0.000000     0.010992     1.398868
	  145 D(10,7,9,32)    =   -177.740652    -0.000000    -0.016260  -177.756913
	  146 D(10,8,11,33)   =    178.807201     0.000001     0.102870   178.910071
	  147 D(11,8,10,24)   =   -177.471312    -0.000002    -0.244858  -177.716170
	  148 D(12,13,15,17)  =      0.509926    -0.000000    -0.002562     0.507364
	  149 D(12,13,15,27)  =   -179.154687    -0.000000    -0.013189  -179.167876
	  150 D(12,14,16,17)  =      0.152478    -0.000000    -0.025181     0.127297
	  151 D(12,14,16,28)  =    179.984597     0.000000    -0.003768   179.980829
	  152 D(13,12,14,16)  =      0.468511    -0.000000     0.014015     0.482527
	  153 D(13,12,14,26)  =   -179.499837    -0.000000     0.004293  -179.495544
	  154 D(13,15,17,16)  =      0.117296    -0.000000    -0.008542     0.108754
	  155 D(13,15,17,29)  =   -179.837204    -0.000000     0.002596  -179.834608
	  156 D(14,12,13,15)  =     -0.799076     0.000000    -0.000160    -0.799236
	  157 D(14,12,13,25)  =   -179.557212    -0.000000     0.010549  -179.546662
	  158 D(14,16,17,15)  =     -0.447855     0.000000     0.022343    -0.425511
	  159 D(14,16,17,29)  =    179.506650     0.000000     0.011208   179.517857
	  160 D(15,17,16,28)  =    179.720792     0.000000     0.000837   179.721628
	  161 D(16,17,15,27)  =    179.780710     0.000000     0.002127   179.782837
	  162 D(17,15,13,25)  =    179.257012     0.000000    -0.013186   179.243825
	  163 D(17,16,14,26)  =   -179.879313    -0.000000    -0.015416  -179.894729
	  164 D(18,20,19,31)  =    179.994011     0.000000     0.013667   180.007677
	  165 D(19,20,18,30)  =    179.819826    -0.000000    -0.000177   179.819649
	  166 D(20,18,4,21)   =    178.744593     0.000000     0.000435   178.745028
	  167 D(20,19,6,22)   =    179.774434     0.000000     0.000292   179.774725
	  168 D(21,4,18,30)   =     -0.455916    -0.000000    -0.014209    -0.470124
	  169 D(22,6,19,31)   =      0.025648    -0.000000    -0.003053     0.022595
	  170 D(23,8,10,24)   =      0.518016    -0.000001    -0.081598     0.436418
	  171 D(23,8,11,33)   =      0.903070    -0.000000    -0.066834     0.836236
	  172 D(25,13,15,27)  =     -0.407601     0.000000    -0.023813    -0.431415
	  173 D(26,14,16,28)  =     -0.047194     0.000000     0.005998    -0.041196
	  174 D(27,15,17,29)  =     -0.173791     0.000000     0.013266    -0.160525
	  175 D(28,16,17,29)  =     -0.324704     0.000000    -0.010299    -0.335003
	  176 D(30,18,20,34)  =     -0.156061     0.000000     0.004276    -0.151785
	  177 D(31,19,20,34)  =     -0.030111     0.000000     0.009211    -0.020900
	  178 D(32,9,11,33)   =     -0.846869     0.000000     0.016455    -0.830413
	  179 R(2,24)         =      2.709186    -0.000452    -0.000207     2.708979
	  180 R(3,14)         =      3.087736    -0.000318    -0.000752     3.086985
	  181 R(4,14)         =      3.569836    -0.000182    -0.000644     3.569191
	  182 R(6,12)         =      3.220140     0.000029    -0.000201     3.219940
	  183 R(6,14)         =      3.514727    -0.000038    -0.000526     3.514201
	  184 R(9,13)         =      3.230972     0.000113     0.001540     3.232512
	 ---------------------------------------------------------------------------
	Successfully symmetrized geometry.

  ==> Convergence Check <==

  Measures of convergence in internal coordinates in au.
  Criteria marked as inactive (o), active & met (*), and active & unmet ( ).
  ---------------------------------------------------------------------------------------------
   Step     Total Energy     Delta E     MAX Force     RMS Force      MAX Disp      RMS Disp   
  ---------------------------------------------------------------------------------------------
    Convergence Criteria             o    2.50e-03 *    1.70e-03 *    1.00e-02 *    6.70e-03 *
  ---------------------------------------------------------------------------------------------
      8    -840.65451752   -6.67e-06 o    2.33e-04 *    4.78e-05 *    4.27e-03 *    9.40e-04 *  ~
  ---------------------------------------------------------------------------------------------


  **** Optimization is complete! (in 8 steps) ****

  ==> Optimization Summary <==

  Measures of convergence in internal coordinates in au.
  --------------------------------------------------------------------------------------------------------------- ~
   Step         Total Energy             Delta E       MAX Force       RMS Force        MAX Disp        RMS Disp  ~
  --------------------------------------------------------------------------------------------------------------- ~
      1    -840.646402705869   -840.646402705869      0.01686065      0.00492739      0.11662206      0.02505423  ~
      2    -840.653499175700     -0.007096469831      0.00516286      0.00087989      0.10728907      0.01733192  ~
      3    -840.654233767356     -0.000734591656      0.00260458      0.00041815      0.06063874      0.01076840  ~
      4    -840.654338964619     -0.000105197263      0.00105464      0.00027930      0.06267266      0.01058157  ~
      5    -840.654444750037     -0.000105785418      0.00146628      0.00030138      0.03552588      0.00567793  ~
      6    -840.654491354757     -0.000046604720      0.00075805      0.00016561      0.03122431      0.00471190  ~
      7    -840.654510841269     -0.000019486513      0.00052499      0.00012619      0.01075330      0.00222129  ~
      8    -840.654517516216     -0.000006674947      0.00023318      0.00004784      0.00427358      0.00094010  ~
  --------------------------------------------------------------------------------------------------------------- ~

	Writing optimization data to binary file.
	Final energy is   -840.6545175162162
	Final (previous) structure:
	Cartesian Geometry (in Angstrom)
	    C    -0.5716872738  -0.2939246140   0.3921937442
	    N     0.6295580642  -0.9146879174   0.5583178325
	    C     1.8564088649  -0.5348541836  -0.0604391532
	    C     2.5293927296  -1.4452934878  -0.8755931187
	    H     0.6524275886  -1.5974089224   1.3205859932
	    C     2.3671735349   0.7512150442   0.1163257391
	    C    -1.5991131633  -0.5700677578   1.2688017512
	    N    -2.6488121895  -1.4921314849   3.0459160110
	    C    -2.9872762904  -0.1289873662   1.2855593113
	    C    -1.4285854586  -1.4694080646   2.4048224009
	    C    -3.5821910284  -0.6931203679   2.3610897687
	    C    -0.7360334214   0.6556590938  -0.7382381474
	    C    -1.2701701397   1.9293197449  -0.5183519456
	    C    -0.3709750467   0.2819476134  -2.0367264139
	    C    -1.4209207018   2.8206179089  -1.5776059554
	    C    -0.5287881702   1.1709839606  -3.0936843605
	    C    -1.0496996647   2.4440811525  -2.8663252032
	    C     3.7188865687  -1.0744676827  -1.4973579166
	    C     3.5466180328   1.1241930083  -0.5209681790
	    C     4.2265521493   0.2124529049  -1.3268041851
	    H     2.1139205388  -2.4339711564  -1.0156625064
	    H     1.8337349834   1.4491273614   0.7463851714
	    H    -2.8233101878  -2.0390621126   3.8665181344
	    O    -0.4025995264  -2.1235516474   2.7521697563
	    H    -1.5463377630   2.2231555521   0.4851157082
	    H     0.0347805602  -0.7037473470  -2.2145705568
	    H    -1.8221860208   3.8081714812  -1.3952294400
	    H    -0.2431422742   0.8715890934  -4.0925880665
	    H    -1.1645260052   3.1375738863  -3.6881610545
	    H     4.2410028369  -1.7847255362  -2.1238407407
	    H     3.9353157528   2.1239266057  -0.3846103952
	    H    -3.4594261706   0.5157980889   0.5657707016
	    H    -4.5948414703  -0.6108369639   2.7124378295
	    H     5.1447846137   0.5024042974  -1.8185419427
	Saving final (previous) structure.
	Cleaning optimization helper files.
			--------------------------
			 OPTKING Finished Execution 
			--------------------------

    Final optimized geometry and variables:
    Molecular point group: c1
    Full point group: C1

    Geometry (in Angstrom), charge = 0, multiplicity = 1:

    C           -0.571687276055    -0.293924615160     0.392193745773
    N            0.629558066631    -0.914687920971     0.558317834682
    C            1.856408872208    -0.534854185676    -0.060439153404
    C            2.529392739508    -1.445293493502    -0.875593122182
    H            0.652427591134    -1.597408928677     1.320585998406
    C            2.367173544209     0.751215047124     0.116325739565
    C           -1.599113169586    -0.570067760050     1.268801756154
    N           -2.648812199908    -1.492131490745     3.045916022952
    C           -2.987276302138    -0.128987366711     1.285559316305
    C           -1.428585464176    -1.469408070384     2.404822410327
    C           -3.582191042529    -0.693120370606     2.361089778000
    C           -0.736033424301     0.655659096412    -0.738238150262
    C           -1.270170144742     1.929319752465    -0.518351947613
    C           -0.370975048158     0.281947614495    -2.036726421946
    C           -1.420920707375     2.820617920036    -1.577605961570
    C           -0.528788172296     1.170983965248    -3.093684372654
    C           -1.049699668833     2.444081162148    -2.866325214496
    C            3.718886583283    -1.074467686877    -1.497357922478
    C            3.546618046745     1.124193012763    -0.520968180999
    C            4.226552165916     0.212452905749    -1.326804190319
    H            2.113920547082    -2.433971165989    -1.015662510427
    H            1.833734990591     1.449127367061     0.746385174351
    H           -2.823310198930    -2.039062120656     3.866518149580
    O           -0.402599527948    -2.123551655701     2.752169767135
    H           -1.546337769102     2.223155560798     0.485115710063
    H            0.034780560381    -0.703747349787    -2.214570565471
    H           -1.822186027930     3.808171496166    -1.395229445452
    H           -0.243142275146     0.871589096779    -4.092588082598
    H           -1.164526009769     3.137573898655    -3.688161068999
    H            4.241002853572    -1.784725543177    -2.123840749022
    H            3.935315768308     2.123926614002    -0.384610396707
    H           -3.459426184159     0.515798090943     0.565770703824
    H           -4.594841488379    -0.610836966265     2.712437840186
    H            5.144784633935     0.502404299364    -1.818541949890

	Removing binary optimization data file.
	Cleaning optimization helper files.

    Psi4 stopped on: Thursday, 09 June 2022 01:16AM
    Psi4 wall time for execution: 0:23:34.04

*** Psi4 exiting successfully. Buy a developer a beer!
