
    -----------------------------------------------------------------------
          Psi4: An Open-Source Ab Initio Electronic Structure Package
                               Psi4 1.5 release

                         Git: Rev {HEAD} e9f4d6d 


    D. G. A. Smith, L. A. Burns, A. C. Simmonett, R. M. Parrish,
    M. C. Schieber, R. Galvelis, P. Kraus, H. Kruse, R. Di Remigio,
    A. Alenaizan, A. M. James, S. Lehtola, J. P. Misiewicz, M. Scheurer,
    R. A. Shaw, J. B. Schriber, Y. Xie, Z. L. Glick, D. A. Sirianni,
    J. S. O'Brien, J. M. Waldrop, A. Kumar, E. G. Hohenstein,
    B. P. Pritchard, B. R. Brooks, H. F. Schaefer III, A. Yu. Sokolov,
    K. Patkowski, A. E. DePrince III, U. Bozkaya, R. A. King,
    F. A. Evangelista, J. M. Turney, T. D. Crawford, C. D. Sherrill,
    J. Chem. Phys. 152(18) 184108 (2020). https://doi.org/10.1063/5.0006002

                            Additional Code Authors
    E. T. Seidl, C. L. Janssen, E. F. Valeev, M. L. Leininger,
    J. F. Gonthier, R. M. Richard, H. R. McAlexander, M. Saitow, X. Wang,
    P. Verma, M. H. Lechner, and A. Jiang

             Previous Authors, Complete List of Code Contributors,
                       and Citations for Specific Modules
    https://github.com/psi4/psi4/blob/master/codemeta.json
    https://github.com/psi4/psi4/graphs/contributors
    http://psicode.org/psi4manual/master/introduction.html#citing-psifour

    -----------------------------------------------------------------------


    Psi4 started on: Thursday, 09 June 2022 05:14AM

    Process ID: 1288604
    Host:       node74.bme.utexas.edu
    PSIDATADIR: /home/bdw2292/miniconda3/envs/newamoebamdpoltype/share/psi4
    Memory:     500.0 MiB
    Threads:    1
    
  ==> Input File <==

--------------------------------------------------------------------------
molecule { 
0 1
 C   -0.574518   -0.253012    0.219634
 N    0.677733   -0.675357    0.550113
 C    1.988930   -0.337019    0.132605
 C    2.929322   -1.377000    0.218464
 H    0.654209   -1.329197    1.341978
 C    2.410324    0.913205   -0.322109
 C   -1.619599   -0.600129    1.051496
 N   -2.720416   -1.593554    2.756083
 C   -3.030805   -0.252043    0.973830
 C   -1.463885   -1.478824    2.204402
 C   -3.657024   -0.852257    2.010944
 C   -0.865596    0.682456   -0.906849
 C   -0.546721    2.041312   -0.847121
 C   -1.468515    0.174721   -2.061328
 C   -0.838122    2.880814   -1.918141
 C   -1.755013    1.014315   -3.135198
 C   -1.436693    2.368045   -3.067150
 C    4.256581   -1.167097   -0.126848
 C    3.741832    1.110469   -0.686759
 C    4.671628    0.081322   -0.590011
 H    2.601803   -2.350168    0.559662
 H    1.725177    1.736479   -0.393787
 H   -2.910508   -2.140908    3.572687
 O   -0.413053   -2.039966    2.632749
 H   -0.125037    2.452666    0.059783
 H   -1.712871   -0.877474   -2.110815
 H   -0.602473    3.934133   -1.852875
 H   -2.223812    0.611046   -4.022024
 H   -1.658476    3.020748   -3.900233
 H    4.963586   -1.981145   -0.043954
 H    4.048007    2.085540   -1.040677
 H   -3.484609    0.386127    0.236429
 H   -4.690608   -0.824276    2.304989
 H    5.702768    0.247014   -0.868813
}
memory 8.166666666666666GB
set_num_threads(2)
psi4_io.set_default_path("/scratch/bdw2292/Psi4-1_16_Index_0-farH_in17")
set freeze_core True
E, wfn = energy('wb97x-d/6-311+G*',return_wfn=True)
oeprop(wfn,"WIBERG_LOWDIN_INDICES")
clean()
--------------------------------------------------------------------------

  Memory set to   7.606 GiB by Python driver.
  Threads set to 2 by Python driver.

Scratch directory: /scratch/bdw2292/Psi4-1_16_Index_0-farH_in17/

Scratch directory: /scratch/bdw2292/Psi4-1_16_Index_0-farH_in17/

*** tstart() called on node74.bme.utexas.edu
*** at Thu Jun  9 05:14:33 2022

   => Loading Basis Set <=

    Name: 6-311+G*
    Role: ORBITAL
    Keyword: BASIS
    atoms 1, 3-4, 6-7, 9-20 entry C          line   130 file /home/bdw2292/miniconda3/envs/newamoebamdpoltype/share/psi4/basis/6-311pgs.gbs 
    atoms 2, 8              entry N          line   151 file /home/bdw2292/miniconda3/envs/newamoebamdpoltype/share/psi4/basis/6-311pgs.gbs 
    atoms 5, 21-23, 25-34   entry H          line    47 file /home/bdw2292/miniconda3/envs/newamoebamdpoltype/share/psi4/basis/6-311pgs.gbs 
    atoms 24                entry O          line   172 file /home/bdw2292/miniconda3/envs/newamoebamdpoltype/share/psi4/basis/6-311pgs.gbs 

   => WB97X-D: Empirical Dispersion <=

    Chai and Head-Gordon Dispersion Correction
    Chai, J.-D.; Head-Gordon, M. (2010), J. Chem. Phys., 132: 6615-6620

        s6 =       1.000000


         ---------------------------------------------------------
                                   SCF
               by Justin Turney, Rob Parrish, Andy Simmonett
                          and Daniel G. A. Smith
                              RKS Reference
                        2 Threads,   7788 MiB Core
         ---------------------------------------------------------

  ==> Geometry <==

    Molecular point group: c1
    Full point group: C1

    Geometry (in Angstrom), charge = 0, multiplicity = 1:

       Center              X                  Y                   Z               Mass       
    ------------   -----------------  -----------------  -----------------  -----------------
         C           -0.574517909902    -0.253012020406     0.219633996485    12.000000000000
         N            0.677733090098    -0.675357020406     0.550112996485    14.003074004430
         C            1.988930090098    -0.337019020406     0.132604996485    12.000000000000
         C            2.929322090098    -1.377000020406     0.218463996485    12.000000000000
         H            0.654209090098    -1.329197020406     1.341977996485     1.007825032230
         C            2.410324090098     0.913204979594    -0.322109003515    12.000000000000
         C           -1.619598909902    -0.600129020406     1.051495996485    12.000000000000
         N           -2.720415909902    -1.593554020406     2.756082996485    14.003074004430
         C           -3.030804909902    -0.252043020406     0.973829996485    12.000000000000
         C           -1.463884909902    -1.478824020406     2.204401996485    12.000000000000
         C           -3.657023909902    -0.852257020406     2.010943996485    12.000000000000
         C           -0.865595909902     0.682455979594    -0.906849003515    12.000000000000
         C           -0.546720909902     2.041311979594    -0.847121003515    12.000000000000
         C           -1.468514909902     0.174720979594    -2.061328003515    12.000000000000
         C           -0.838121909902     2.880813979594    -1.918141003515    12.000000000000
         C           -1.755012909902     1.014314979594    -3.135198003515    12.000000000000
         C           -1.436692909902     2.368044979594    -3.067150003515    12.000000000000
         C            4.256581090098    -1.167097020406    -0.126848003515    12.000000000000
         C            3.741832090098     1.110468979594    -0.686759003515    12.000000000000
         C            4.671628090098     0.081321979594    -0.590011003515    12.000000000000
         H            2.601803090098    -2.350168020406     0.559661996485     1.007825032230
         H            1.725177090098     1.736478979594    -0.393787003515     1.007825032230
         H           -2.910507909902    -2.140908020406     3.572686996485     1.007825032230
         O           -0.413052909902    -2.039966020406     2.632748996485    15.994914619570
         H           -0.125036909902     2.452665979594     0.059782996485     1.007825032230
         H           -1.712870909902    -0.877474020406    -2.110815003515     1.007825032230
         H           -0.602472909902     3.934132979594    -1.852875003515     1.007825032230
         H           -2.223811909902     0.611045979594    -4.022024003515     1.007825032230
         H           -1.658475909902     3.020747979594    -3.900233003515     1.007825032230
         H            4.963586090098    -1.981145020406    -0.043954003515     1.007825032230
         H            4.048007090098     2.085539979594    -1.040677003515     1.007825032230
         H           -3.484608909902     0.386126979594     0.236428996485     1.007825032230
         H           -4.690607909902    -0.824276020406     2.304988996485     1.007825032230
         H            5.702768090098     0.247013979594    -0.868813003515     1.007825032230

  Running in c1 symmetry.

  Rotational constants: A =      0.01382  B =      0.00974  C =      0.00619 [cm^-1]
  Rotational constants: A =    414.40854  B =    291.86296  C =    185.55502 [MHz]
  Nuclear repulsion = 1414.591918275032867

  Charge       = 0
  Multiplicity = 1
  Electrons    = 138
  Nalpha       = 69
  Nbeta        = 69

  ==> Algorithm <==

  SCF Algorithm Type is DF.
  DIIS enabled.
  MOM disabled.
  Fractional occupation disabled.
  Guess Type is SAD.
  Energy threshold   = 1.00e-06
  Density threshold  = 1.00e-06
  Integral threshold = 1.00e-12

  ==> Primary Basis <==

  Basis Set: 6-311+G*
    Blend: 6-311+G*
    Number of shells: 242
    Number of basis functions: 482
    Number of Cartesian functions: 502
    Spherical Harmonics?: true
    Max angular momentum: 2

  ==> DFT Potential <==

   => LibXC <=

    Version 5.1.5
    S. Lehtola, C. Steigemann, M. J. Oliveira, and M. A. Marques, SoftwareX 7, 1 (2018) (10.1016/j.softx.2017.11.002)

   => Composite Functional: WB97X-D <= 

    wB97X-D Hyb-GGA Exchange-Correlation Functional

    J.-D. Chai and M. Head-Gordon, Phys. Chem. Chem. Phys. 10, 6615 (2008) (10.1039/B810189B)

    Deriv               =              1
    GGA                 =           TRUE
    Meta                =          FALSE

    Exchange Hybrid     =           TRUE
    MP2 Hybrid          =          FALSE

   => Exchange-Correlation Functionals <=

    1.0000   wB97X-D range-separated functional

   => Exact (HF) Exchange <=

    0.7780            HF,LR [omega = 0.2000]
    0.2220               HF 

   => LibXC Density Thresholds  <==

    XC_HYB_GGA_XC_WB97X_D:  1.00E-14 

   => Molecular Quadrature <=

    Radial Scheme          =       TREUTLER
    Pruning Scheme         =           NONE
    Nuclear Scheme         =       TREUTLER

    BS radius alpha        =              1
    Pruning alpha          =              1
    Radial Points          =             75
    Spherical Points       =            302
    Total Points           =         704045
    Total Blocks           =           5034
    Max Points             =            256
    Max Functions          =            387
    Weights Tolerance      =       1.00E-15

   => Loading Basis Set <=

    Name: (6-311+G* AUX)
    Role: JKFIT
    Keyword: DF_BASIS_SCF
    atoms 1, 3-4, 6-7, 9-20 entry C          line   200 file /home/bdw2292/miniconda3/envs/newamoebamdpoltype/share/psi4/basis/heavy-aug-cc-pvtz-jkfit.gbs 
    atoms 2, 8              entry N          line   262 file /home/bdw2292/miniconda3/envs/newamoebamdpoltype/share/psi4/basis/heavy-aug-cc-pvtz-jkfit.gbs 
    atoms 5, 21-23, 25-34   entry H          line   116 file /home/bdw2292/miniconda3/envs/newamoebamdpoltype/share/psi4/basis/heavy-aug-cc-pvtz-jkfit.gbs 
    atoms 24                entry O          line   324 file /home/bdw2292/miniconda3/envs/newamoebamdpoltype/share/psi4/basis/heavy-aug-cc-pvtz-jkfit.gbs 

  ==> Integral Setup <==

  ==> DiskDFJK: Density-Fitted J/K Matrices <==

    J tasked:                  Yes
    K tasked:                  Yes
    wK tasked:                 Yes
    Omega:               2.000E-01
    OpenMP threads:              2
    Integrals threads:           2
    Memory [MiB]:             1947
    Algorithm:                Disk
    Integral Cache:           NONE
    Schwarz Cutoff:          1E-12
    Fitting Condition:       1E-10

   => Auxiliary Basis Set <=

  Basis Set: (6-311+G* AUX)
    Blend: HEAVY-AUG-CC-PVTZ-JKFIT
    Number of shells: 740
    Number of basis functions: 2500
    Number of Cartesian functions: 3110
    Spherical Harmonics?: true
    Max angular momentum: 4

  Cached 50.0% of DFT collocation blocks in 2.693 [GiB].

  Minimum eigenvalue in the overlap matrix is 4.6192260368E-07.
  Reciprocal condition number of the overlap matrix is 2.7592576946E-08.
    Using symmetric orthogonalization.

  ==> Pre-Iterations <==

  SCF Guess: Superposition of Atomic Densities via on-the-fly atomic UHF (no occupation information).

   -------------------------
    Irrep   Nso     Nmo    
   -------------------------
     A        482     482 
   -------------------------
    Total     482     482
   -------------------------

  ==> Iterations <==

                           Total Energy        Delta E     RMS |[F,P]|

   @DF-RKS iter SAD:  -840.37329133529215   -8.40373e+02   0.00000e+00 
   @DF-RKS iter   1:  -840.05274290619491    3.20548e-01   2.63942e-03 DIIS
   @DF-RKS iter   2:  -840.41619124762735   -3.63448e-01   2.09227e-03 DIIS
   @DF-RKS iter   3:  -840.84911044050295   -4.32919e-01   3.64095e-04 DIIS
   @DF-RKS iter   4:  -840.85882461241488   -9.71417e-03   1.69320e-04 DIIS
   @DF-RKS iter   5:  -840.86137356952679   -2.54896e-03   4.01505e-05 DIIS
   @DF-RKS iter   6:  -840.86152733957306   -1.53770e-04   1.25224e-05 DIIS
   @DF-RKS iter   7:  -840.86154455062126   -1.72110e-05   3.64088e-06 DIIS
   @DF-RKS iter   8:  -840.86154618607827   -1.63546e-06   1.48556e-06 DIIS
   @DF-RKS iter   9:  -840.86154663457273   -4.48494e-07   4.79033e-07 DIIS
  Energy and wave function converged.


  ==> Post-Iterations <==

   Electrons on quadrature grid:
      Ntotal   =  138.0000056722 ; deviation = 5.672e-06 

    Orbital Energies [Eh]
    ---------------------

    Doubly Occupied:                                                      

       1A    -19.206898     2A    -14.472342     3A    -14.465735  
       4A    -10.378620     5A    -10.367700     6A    -10.343115  
       7A    -10.319565     8A    -10.316658     9A    -10.307818  
      10A    -10.305726    11A    -10.304863    12A    -10.304203  
      13A    -10.303467    14A    -10.294866    15A    -10.294268  
      16A    -10.292770    17A    -10.292303    18A    -10.289862  
      19A    -10.282988    20A    -10.278821    21A     -1.124167  
      22A     -1.068695    23A     -1.048853    24A     -0.981943  
      25A     -0.962970    26A     -0.911228    27A     -0.872724  
      28A     -0.865867    29A     -0.855518    30A     -0.854731  
      31A     -0.812999    32A     -0.769526    33A     -0.726537  
      34A     -0.724112    35A     -0.713105    36A     -0.696443  
      37A     -0.679422    38A     -0.663910    39A     -0.641504  
      40A     -0.616132    41A     -0.600076    42A     -0.585461  
      43A     -0.580238    44A     -0.563425    45A     -0.553602  
      46A     -0.545125    47A     -0.536927    48A     -0.526137  
      49A     -0.520970    50A     -0.516255    51A     -0.514365  
      52A     -0.509407    53A     -0.497699    54A     -0.483390  
      55A     -0.477857    56A     -0.472491    57A     -0.453084  
      58A     -0.450459    59A     -0.444742    60A     -0.437557  
      61A     -0.428599    62A     -0.405514    63A     -0.360273  
      64A     -0.347582    65A     -0.345606    66A     -0.337367  
      67A     -0.335274    68A     -0.310996    69A     -0.258614  

    Virtual:                                                              

      70A      0.006163    71A      0.036600    72A      0.039467  
      73A      0.050957    74A      0.053501    75A      0.063057  
      76A      0.066613    77A      0.069831    78A      0.073098  
      79A      0.080875    80A      0.081907    81A      0.084697  
      82A      0.093415    83A      0.099169    84A      0.100361  
      85A      0.105632    86A      0.107063    87A      0.110944  
      88A      0.118092    89A      0.119044    90A      0.125091  
      91A      0.127401    92A      0.136440    93A      0.137985  
      94A      0.143690    95A      0.146985    96A      0.151599  
      97A      0.157952    98A      0.163121    99A      0.167334  
     100A      0.172100   101A      0.177271   102A      0.179725  
     103A      0.180502   104A      0.183560   105A      0.189864  
     106A      0.190615   107A      0.195973   108A      0.198259  
     109A      0.202896   110A      0.207055   111A      0.209820  
     112A      0.211414   113A      0.213188   114A      0.214385  
     115A      0.220178   116A      0.221650   117A      0.228423  
     118A      0.229483   119A      0.235236   120A      0.238675  
     121A      0.239294   122A      0.243151   123A      0.247154  
     124A      0.251784   125A      0.253280   126A      0.255029  
     127A      0.259917   128A      0.262037   129A      0.262748  
     130A      0.266179   131A      0.268008   132A      0.269877  
     133A      0.274006   134A      0.276113   135A      0.277880  
     136A      0.281375   137A      0.282849   138A      0.288264  
     139A      0.289905   140A      0.293458   141A      0.298431  
     142A      0.300104   143A      0.304692   144A      0.308746  
     145A      0.309170   146A      0.313129   147A      0.314710  
     148A      0.319231   149A      0.323982   150A      0.328759  
     151A      0.334932   152A      0.337565   153A      0.338204  
     154A      0.339952   155A      0.344005   156A      0.344450  
     157A      0.350887   158A      0.353358   159A      0.355383  
     160A      0.364367   161A      0.365432   162A      0.372210  
     163A      0.378181   164A      0.383317   165A      0.386176  
     166A      0.390574   167A      0.392395   168A      0.395915  
     169A      0.402873   170A      0.406588   171A      0.412339  
     172A      0.413740   173A      0.416747   174A      0.425883  
     175A      0.428121   176A      0.434346   177A      0.437547  
     178A      0.440996   179A      0.446289   180A      0.457009  
     181A      0.462281   182A      0.473318   183A      0.474998  
     184A      0.487657   185A      0.501508   186A      0.514295  
     187A      0.536829   188A      0.539754   189A      0.552469  
     190A      0.566432   191A      0.580434   192A      0.595867  
     193A      0.603074   194A      0.608071   195A      0.608996  
     196A      0.614937   197A      0.621151   198A      0.626357  
     199A      0.630083   200A      0.632205   201A      0.639157  
     202A      0.640712   203A      0.647934   204A      0.656080  
     205A      0.663851   206A      0.670179   207A      0.674489  
     208A      0.678966   209A      0.691749   210A      0.701983  
     211A      0.705127   212A      0.719322   213A      0.720218  
     214A      0.721048   215A      0.731038   216A      0.740590  
     217A      0.748106   218A      0.750496   219A      0.758359  
     220A      0.763927   221A      0.767798   222A      0.777209  
     223A      0.780865   224A      0.783515   225A      0.791798  
     226A      0.793260   227A      0.796486   228A      0.810616  
     229A      0.812640   230A      0.818187   231A      0.821749  
     232A      0.827455   233A      0.828642   234A      0.834470  
     235A      0.845768   236A      0.848507   237A      0.858769  
     238A      0.864487   239A      0.869346   240A      0.875793  
     241A      0.882595   242A      0.899211   243A      0.900839  
     244A      0.907943   245A      0.914963   246A      0.918069  
     247A      0.922247   248A      0.924975   249A      0.931205  
     250A      0.935936   251A      0.946659   252A      0.947379  
     253A      0.951966   254A      0.955574   255A      0.964601  
     256A      0.975684   257A      0.984734   258A      0.996588  
     259A      1.001940   260A      1.010363   261A      1.023904  
     262A      1.025896   263A      1.031684   264A      1.049780  
     265A      1.056171   266A      1.066424   267A      1.077887  
     268A      1.087456   269A      1.097115   270A      1.102228  
     271A      1.108369   272A      1.114100   273A      1.121084  
     274A      1.140334   275A      1.156679   276A      1.165687  
     277A      1.168880   278A      1.178438   279A      1.191159  
     280A      1.209446   281A      1.217887   282A      1.234475  
     283A      1.248146   284A      1.257961   285A      1.269479  
     286A      1.277813   287A      1.285549   288A      1.290601  
     289A      1.297289   290A      1.312455   291A      1.313217  
     292A      1.325428   293A      1.341116   294A      1.360686  
     295A      1.363332   296A      1.373621   297A      1.382749  
     298A      1.395946   299A      1.407065   300A      1.434042  
     301A      1.444715   302A      1.465152   303A      1.480470  
     304A      1.548912   305A      1.566854   306A      1.581085  
     307A      1.590142   308A      1.605063   309A      1.617889  
     310A      1.622428   311A      1.631687   312A      1.637324  
     313A      1.660806   314A      1.677348   315A      1.689346  
     316A      1.720904   317A      1.735979   318A      1.744542  
     319A      1.774475   320A      1.812376   321A      1.835459  
     322A      1.838257   323A      1.849721   324A      1.851629  
     325A      1.864008   326A      1.870464   327A      1.879945  
     328A      1.883691   329A      1.887869   330A      1.898697  
     331A      1.909730   332A      1.928374   333A      1.932503  
     334A      1.944585   335A      1.955371   336A      1.964453  
     337A      1.980812   338A      1.985472   339A      1.996377  
     340A      2.016228   341A      2.020389   342A      2.026563  
     343A      2.032701   344A      2.039528   345A      2.050482  
     346A      2.076113   347A      2.078632   348A      2.083016  
     349A      2.091763   350A      2.099311   351A      2.128735  
     352A      2.129717   353A      2.187474   354A      2.193912  
     355A      2.245462   356A      2.256310   357A      2.291749  
     358A      2.309126   359A      2.328517   360A      2.336055  
     361A      2.348363   362A      2.369279   363A      2.375611  
     364A      2.387017   365A      2.392574   366A      2.412140  
     367A      2.419883   368A      2.422270   369A      2.431079  
     370A      2.452703   371A      2.479887   372A      2.482728  
     373A      2.510640   374A      2.520806   375A      2.531891  
     376A      2.548853   377A      2.554732   378A      2.561312  
     379A      2.613627   380A      2.671066   381A      2.686170  
     382A      2.734006   383A      2.750849   384A      2.760012  
     385A      2.780345   386A      2.783926   387A      2.803170  
     388A      2.837910   389A      2.861936   390A      2.865483  
     391A      2.882369   392A      2.885517   393A      2.896341  
     394A      2.908490   395A      2.913698   396A      2.934693  
     397A      2.955340   398A      2.970028   399A      2.979446  
     400A      2.997891   401A      3.024223   402A      3.034534  
     403A      3.044561   404A      3.051626   405A      3.063217  
     406A      3.092323   407A      3.107039   408A      3.120165  
     409A      3.147328   410A      3.168793   411A      3.188842  
     412A      3.210020   413A      3.243604   414A      3.254842  
     415A      3.280911   416A      3.323098   417A      3.337649  
     418A      3.398706   419A      3.402360   420A      3.408828  
     421A      3.415874   422A      3.420287   423A      3.424462  
     424A      3.428389   425A      3.441970   426A      3.453180  
     427A      3.461744   428A      3.466664   429A      3.508092  
     430A      3.534012   431A      3.550631   432A      3.571127  
     433A      3.613458   434A      3.633916   435A      3.647577  
     436A      3.675132   437A      3.704861   438A      3.737334  
     439A      3.768563   440A      3.774616   441A      3.782985  
     442A      3.887151   443A      3.930677   444A      3.985224  
     445A      4.013035   446A      4.068167   447A      4.104308  
     448A      4.134191   449A      4.139413   450A      4.161795  
     451A      4.226897   452A      4.360052   453A      4.491400  
     454A      4.640138   455A      4.668229   456A      4.880904  
     457A      4.893979   458A      5.126554   459A      5.197410  
     460A      5.265627   461A      5.410335   462A      5.916301  
     463A     23.498075   464A     23.534346   465A     23.713878  
     466A     23.933363   467A     23.981995   468A     23.986434  
     469A     24.011008   470A     24.022083   471A     24.031281  
     472A     24.136754   473A     24.158492   474A     24.168685  
     475A     24.183769   476A     24.238091   477A     24.277364  
     478A     24.280429   479A     24.305864   480A     35.648012  
     481A     35.732913   482A     50.194906  

    Final Occupation by Irrep:
              A 
    DOCC [    69 ]

  @DF-RKS Final Energy:  -840.86154663457273

   => Energetics <=

    Nuclear Repulsion Energy =           1414.5919182750328673
    One-Electron Energy =               -3947.8912336389421398
    Two-Electron Energy =                1775.1445536862290737
    DFT Exchange-Correlation Energy =     -82.6831725934113564
    Empirical Dispersion Energy =          -0.0236123634813707
    VV10 Nonlocal Energy =                  0.0000000000000000
    Total Energy =                       -840.8615466345726190

Computation Completed


Properties will be evaluated at   0.000000,   0.000000,   0.000000 [a0]

Properties computed using the SCF density matrix

  Nuclear Dipole Moment: [e a0]
     X:     2.1481      Y:     4.6566      Z:    -5.7696

  Electronic Dipole Moment: [e a0]
     X:    -2.6536      Y:    -3.8514      Z:     4.8764

  Dipole Moment: [e a0]
     X:    -0.5055      Y:     0.8052      Z:    -0.8932     Total:     1.3045

  Dipole Moment: [D]
     X:    -1.2848      Y:     2.0466      Z:    -2.2702     Total:     3.3156


*** tstop() called on node74.bme.utexas.edu at Thu Jun  9 05:21:12 2022
Module time:
	user time   =     743.72 seconds =      12.40 minutes
	system time =      27.13 seconds =       0.45 minutes
	total time  =        399 seconds =       6.65 minutes
Total time:
	user time   =     743.72 seconds =      12.40 minutes
	system time =      27.13 seconds =       0.45 minutes
	total time  =        399 seconds =       6.65 minutes


Properties will be evaluated at   0.000000,   0.000000,   0.000000 [a0]
OEProp: No title given, name of density matrix used for the following properties is 'SCF density'


  Wiberg Bond Indices using Orthogonal Lowdin Orbitals:

  Irrep: 1 Size: 34 x 34

                 1                   2                   3                   4                   5

    1     0.00000000000000     1.40513492853516     0.09901216493939     0.02707253993403     0.04319514180775
    2     1.40513492853516     0.00000000000000     1.17871234526940     0.13834981487889     0.71454405846215
    3     0.09901216493939     1.17871234526940     0.00000000000000     1.38826296687008     0.03820578530871
    4     0.02707253993403     0.13834981487889     1.38826296687008     0.00000000000000     0.01327777822094
    5     0.04319514180775     0.71454405846215     0.03820578530871     0.01327777822094     0.00000000000000
    6     0.03187969899712     0.11739863797784     1.41058512263131     0.12739995747622     0.00767435255663
    7     1.42867509933670     0.17895564691117     0.02271518175372     0.00828236092766     0.01427277822814
    8     0.01822467112736     0.00568663972102     0.00069825413771     0.00037885330632     0.00128987165045
    9     0.10960690490588     0.02183172323784     0.00288340984742     0.00097979366405     0.00115138628667
   10     0.12943989363241     0.06494471922457     0.00616500777619     0.00374834540335     0.01370302434568
   11     0.06749377651194     0.02595327545682     0.00251167838743     0.00263885343797     0.00039330491358
   12     0.99227025593533     0.09437360226605     0.02386088485896     0.00364402511633     0.00760156790592
   13     0.11532550294860     0.02528748309384     0.01383406752379     0.00162604725873     0.00090224564863
   14     0.12377549713527     0.02191714156646     0.00615418388675     0.00073848423009     0.00080873538894
   15     0.01670077023301     0.00287233906336     0.00215693619169     0.00035420855425     0.00013423802089
   16     0.01673184988549     0.00226649565600     0.00085328903907     0.00013136864525     0.00019128008213
   17     0.01047881217331     0.00331414073649     0.00088151879787     0.00017639430477     0.00019337319033
   18     0.00330408037575     0.01855918747483     0.13344551431495     1.54533465652602     0.00112791621923
   19     0.00305435798307     0.01626837964664     0.13626977625471     0.14505985613760     0.00078364358611
   20     0.00642121456572     0.01341269190188     0.13331808426975     0.13871746339113     0.00131882449672
   21     0.00223338604337     0.02127355261815     0.05564044820418     0.81564683685887     0.00158835202324
   22     0.00532194358662     0.01216706439902     0.05416158933490     0.00923202599828     0.00006374536092
   23     0.00153752966923     0.00028755927977     0.00005641888639     0.00002325838153     0.00010984124330
   24     0.07869004652743     0.11726000498800     0.01157009919386     0.00710177264463     0.06900405229502
   25     0.01559350507975     0.00261301706434     0.00282531704188     0.00013165133740     0.00008828698834
   26     0.01830899946007     0.00121098062135     0.00042480986726     0.00002738720875     0.00003736507902
   27     0.00121653211051     0.00016489155388     0.00006841869825     0.00001160791891     0.00000718321524
   28     0.00123283668075     0.00021347865367     0.00005005777327     0.00001153671220     0.00001182547413
   29     0.00027949017521     0.00003381574072     0.00001450531255     0.00000525887013     0.00000778719240
   30     0.00035687603699     0.00084717048254     0.01078094141580     0.06113382262427     0.00002763796496
   31     0.00022877414924     0.00088674472909     0.01081223223215     0.00249525534840     0.00019950910659
   32     0.01078078929324     0.00015071200635     0.00009907580263     0.00004648926117     0.00005091890823
   33     0.00166527710286     0.00037411138288     0.00012395611293     0.00005309779344     0.00018561117404
   34     0.00004565864169     0.00025857166345     0.00284235207000     0.01123845896707     0.00001463757683

                 6                   7                   8                   9                  10

    1     0.03187969899712     1.42867509933670     0.01822467112736     0.10960690490588     0.12943989363241
    2     0.11739863797784     0.17895564691117     0.00568663972102     0.02183172323784     0.06494471922457
    3     1.41058512263131     0.02271518175372     0.00069825413771     0.00288340984742     0.00616500777619
    4     0.12739995747622     0.00828236092766     0.00037885330632     0.00097979366405     0.00374834540335
    5     0.00767435255663     0.01427277822814     0.00128987165045     0.00115138628667     0.01370302434568
    6     0.00000000000000     0.00908335343473     0.00027771850111     0.00101955116533     0.00336365827969
    7     0.00908335343473     0.00000000000000     0.13556843244553     1.14774279459256     1.09498496722101
    8     0.00027771850111     0.13556843244553     0.00000000000000     0.19491522089607     1.34965468761335
    9     0.00101955116533     1.14774279459256     0.19491522089607     0.00000000000000     0.13440547664288
   10     0.00336365827969     1.09498496722101     1.34965468761335     0.13440547664288     0.00000000000000
   11     0.00285034948479     0.16527568151680     1.25894254932911     1.80472691702259     0.13986148629001
   12     0.02598950326382     0.11975889717835     0.00300257078531     0.04029785119916     0.01506338436798
   13     0.04547815091221     0.03141758226144     0.00091883710688     0.01322178687562     0.00383325444538
   14     0.00525896301713     0.04171681415681     0.00148111945197     0.02633840972564     0.00470881555914
   15     0.01253770742117     0.00401693459900     0.00025554822144     0.00236921392373     0.00055383662142
   16     0.00268931638710     0.00470159376869     0.00034326542990     0.00479611858123     0.00069375805047
   17     0.00219650162701     0.00456071538697     0.00017827367467     0.00186915153091     0.00089781457185
   18     0.14005116161413     0.00113120983452     0.00003489802677     0.00016953973088     0.00037954071220
   19     1.50642163943841     0.00085192600525     0.00003717530674     0.00014000089674     0.00034083005926
   20     0.13703586818077     0.00449062845767     0.00011983628154     0.00039763043126     0.00186068776798
   21     0.00966128756088     0.00039466163066     0.00001799915600     0.00005071030721     0.00034129635170
   22     0.79414327181740     0.00034486716399     0.00002217962575     0.00008508631265     0.00006369076923
   23     0.00002211934337     0.01148564550932     0.80962428909340     0.01058463237177     0.04364408030051
   24     0.00371297725705     0.14102295084374     0.21182008184738     0.02214701744458     2.01478206301087
   25     0.01222194828377     0.00323695406320     0.00004148744488     0.00086911761786     0.00016501167254
   26     0.00012876635102     0.00679207134124     0.00014254059921     0.00390250423635     0.00048209592656
   27     0.00026305331477     0.00032314490088     0.00001536590665     0.00007282507351     0.00006024849353
   28     0.00004161593077     0.00025683309197     0.00001331059302     0.00009032815734     0.00005003900948
   29     0.00004034222054     0.00005065874811     0.00000435824441     0.00001725536836     0.00001211774837
   30     0.00258377085241     0.00006098217442     0.00000205309506     0.00001918889911     0.00001833466552
   31     0.06010836910514     0.00007476734304     0.00000327872433     0.00001486863479     0.00005289722143
   32     0.00011516096831     0.04810750131559     0.01117147881994     0.81340816191572     0.00938961106249
   33     0.00002431839756     0.01380301888080     0.05472403130827     0.05859737158749     0.01215624009905
   34     0.01115715311039     0.00001816086192     0.00000136206862     0.00000413855669     0.00000939867341

                11                  12                  13                  14                  15

    1     0.06749377651194     0.99227025593533     0.11532550294860     0.12377549713527     0.01670077023301
    2     0.02595327545682     0.09437360226605     0.02528748309384     0.02191714156646     0.00287233906336
    3     0.00251167838743     0.02386088485896     0.01383406752379     0.00615418388675     0.00215693619169
    4     0.00263885343797     0.00364402511633     0.00162604725873     0.00073848423009     0.00035420855425
    5     0.00039330491358     0.00760156790592     0.00090224564863     0.00080873538894     0.00013423802089
    6     0.00285034948479     0.02598950326382     0.04547815091221     0.00525896301713     0.01253770742117
    7     0.16527568151680     0.11975889717835     0.03141758226144     0.04171681415681     0.00401693459900
    8     1.25894254932911     0.00300257078531     0.00091883710688     0.00148111945197     0.00025554822144
    9     1.80472691702259     0.04029785119916     0.01322178687562     0.02633840972564     0.00236921392373
   10     0.13986148629001     0.01506338436798     0.00383325444538     0.00470881555914     0.00055383662142
   11     0.00000000000000     0.00634356357791     0.00206141150612     0.00388288783848     0.00037920615756
   12     0.00634356357791     0.00000000000000     1.40805447432486     1.41897819170852     0.13452854925380
   13     0.00206141150612     1.40805447432486     0.00000000000000     0.12911620021570     1.51421608203053
   14     0.00388288783848     1.41897819170852     0.12911620021570     0.00000000000000     0.14533165911194
   15     0.00037920615756     0.13452854925380     1.51421608203053     0.14533165911194     0.00000000000000
   16     0.00063272289332     0.13424233667270     0.14556078847261     1.51267984569342     0.13809121142629
   17     0.00043181713162     0.13815597319481     0.13863300265291     0.13874961729395     1.51528810535852
   18     0.00027735333682     0.00100675325611     0.00092047679115     0.00035091590590     0.00031718454466
   19     0.00023591164340     0.00295882994770     0.00570607022345     0.00057744999425     0.00133102489653
   20     0.00203615288238     0.00100127555850     0.00117849056496     0.00023091697435     0.00030228028380
   21     0.00006478236300     0.00025610222265     0.00012524243622     0.00006462509321     0.00003348272354
   22     0.00002467655014     0.00939064723587     0.02550460302517     0.00151825595655     0.00536215633621
   23     0.04112549415825     0.00044746509225     0.00012769880602     0.00013705826441     0.00002031880596
   24     0.02419367424658     0.00467100669891     0.00191107838644     0.00231763096202     0.00029756329477
   25     0.00006878318702     0.05447085112837     0.80690691950624     0.00921213139356     0.05425603187715
   26     0.00025890749172     0.05581785026641     0.00943610065103     0.80971474509920     0.00214880370258
   27     0.00003699575443     0.01068181887033     0.06029877437977     0.00247172625806     0.83246975607386
   28     0.00004073969087     0.01055372953953     0.00250508626443     0.06010255777261     0.01125533369777
   29     0.00000569151317     0.00291199927087     0.01130315839539     0.01128595704964     0.05890005343640
   30     0.00000656686956     0.00004624275398     0.00004922652571     0.00001022336330     0.00001506454780
   31     0.00001719183899     0.00014626220109     0.00024728013925     0.00001774226094     0.00004368591221
   32     0.05896981845063     0.01061037198946     0.00319408001219     0.00765131236203     0.00063727223406
   33     0.83553900331232     0.00036923314102     0.00008176320108     0.00013939044778     0.00001526853082
   34     0.00000197562260     0.00004647263736     0.00008246967134     0.00001153557795     0.00003787205715

                16                  17                  18                  19                  20

    1     0.01673184988549     0.01047881217331     0.00330408037575     0.00305435798307     0.00642121456572
    2     0.00226649565600     0.00331414073649     0.01855918747483     0.01626837964664     0.01341269190188
    3     0.00085328903907     0.00088151879787     0.13344551431495     0.13626977625471     0.13331808426975
    4     0.00013136864525     0.00017639430477     1.54533465652602     0.14505985613760     0.13871746339113
    5     0.00019128008213     0.00019337319033     0.00112791621923     0.00078364358611     0.00131882449672
    6     0.00268931638710     0.00219650162701     0.14005116161413     1.50642163943841     0.13703586818077
    7     0.00470159376869     0.00456071538697     0.00113120983452     0.00085192600525     0.00449062845767
    8     0.00034326542990     0.00017827367467     0.00003489802677     0.00003717530674     0.00011983628154
    9     0.00479611858123     0.00186915153091     0.00016953973088     0.00014000089674     0.00039763043126
   10     0.00069375805047     0.00089781457185     0.00037954071220     0.00034083005926     0.00186068776798
   11     0.00063272289332     0.00043181713162     0.00027735333682     0.00023591164340     0.00203615288238
   12     0.13424233667270     0.13815597319481     0.00100675325611     0.00295882994770     0.00100127555850
   13     0.14556078847261     0.13863300265291     0.00092047679115     0.00570607022345     0.00117849056496
   14     1.51267984569342     0.13874961729395     0.00035091590590     0.00057744999425     0.00023091697435
   15     0.13809121142629     1.51528810535852     0.00031718454466     0.00133102489653     0.00030228028380
   16     0.00000000000000     1.52225888599276     0.00013748817295     0.00036556713076     0.00012358098303
   17     1.52225888599276     0.00000000000000     0.00014171420002     0.00026633883501     0.00007221724008
   18     0.00013748817295     0.00014171420002     0.00000000000000     0.13859746518516     1.50264548746839
   19     0.00036556713076     0.00026633883501     0.13859746518516     0.00000000000000     1.53076391131208
   20     0.00012358098303     0.00007221724008     1.50264548746839     1.53076391131208     0.00000000000000
   21     0.00002063984600     0.00001848582633     0.05675728225013     0.00258811686338     0.01093057425971
   22     0.00108890827726     0.00050187277698     0.00221013235268     0.05489912499867     0.00983027847101
   23     0.00002285218094     0.00005165405632     0.00000406636104     0.00000319821819     0.00000267054173
   24     0.00036234901739     0.00035872889268     0.00045374059496     0.00044876988962     0.00185494197358
   25     0.00208018905080     0.01023977126839     0.00007056255752     0.00088295529547     0.00018217512442
   26     0.05516802417605     0.01038054237738     0.00001052214440     0.00001010063732     0.00001692236144
   27     0.01121152815050     0.05879571870465     0.00000637319122     0.00001472545443     0.00001356897136
   28     0.83319638895242     0.05888275112557     0.00000243042490     0.00000595282959     0.00000237597329
   29     0.05892885542529     0.83524250955480     0.00000342502189     0.00000882025505     0.00000207348883
   30     0.00000364973979     0.00000446468200     0.83344867897079     0.01135098548037     0.05837937968079
   31     0.00002048129968     0.00001042744138     0.01152474228944     0.83326552924666     0.05877572088752
   32     0.00144801138681     0.00058249985611     0.00001856502877     0.00003331310482     0.00001426084932
   33     0.00001822467933     0.00000740427040     0.00000736256019     0.00000561605289     0.00000321269067
   34     0.00001409147275     0.00000540819351     0.05899843972207     0.05965136744680     0.83541556026079

                21                  22                  23                  24                  25

    1     0.00223338604337     0.00532194358662     0.00153752966923     0.07869004652743     0.01559350507975
    2     0.02127355261815     0.01216706439902     0.00028755927977     0.11726000498800     0.00261301706434
    3     0.05564044820418     0.05416158933490     0.00005641888639     0.01157009919386     0.00282531704188
    4     0.81564683685887     0.00923202599828     0.00002325838153     0.00710177264463     0.00013165133740
    5     0.00158835202324     0.00006374536092     0.00010984124330     0.06900405229502     0.00008828698834
    6     0.00966128756088     0.79414327181740     0.00002211934337     0.00371297725705     0.01222194828377
    7     0.00039466163066     0.00034486716399     0.01148564550932     0.14102295084374     0.00323695406320
    8     0.00001799915600     0.00002217962575     0.80962428909340     0.21182008184738     0.00004148744488
    9     0.00005071030721     0.00008508631265     0.01058463237177     0.02214701744458     0.00086911761786
   10     0.00034129635170     0.00006369076923     0.04364408030051     2.01478206301087     0.00016501167254
   11     0.00006478236300     0.00002467655014     0.04112549415825     0.02419367424658     0.00006878318702
   12     0.00025610222265     0.00939064723587     0.00044746509225     0.00467100669891     0.05447085112837
   13     0.00012524243622     0.02550460302517     0.00012769880602     0.00191107838644     0.80690691950624
   14     0.00006462509321     0.00151825595655     0.00013705826441     0.00231763096202     0.00921213139356
   15     0.00003348272354     0.00536215633621     0.00002031880596     0.00029756329477     0.05425603187715
   16     0.00002063984600     0.00108890827726     0.00002285218094     0.00036234901739     0.00208018905080
   17     0.00001848582633     0.00050187277698     0.00005165405632     0.00035872889268     0.01023977126839
   18     0.05675728225013     0.00221013235268     0.00000406636104     0.00045374059496     0.00007056255752
   19     0.00258811686338     0.05489912499867     0.00000319821819     0.00044876988962     0.00088295529547
   20     0.01093057425971     0.00983027847101     0.00000267054173     0.00185494197358     0.00018217512442
   21     0.00000000000000     0.00043102695713     0.00000140262862     0.00054142488732     0.00003190280712
   22     0.00043102695713     0.00000000000000     0.00000116025184     0.00008249331624     0.00409651881968
   23     0.00000140262862     0.00000116025184     0.00000000000000     0.00983861302234     0.00000176579256
   24     0.00054142488732     0.00008249331624     0.00983861302234     0.00000000000000     0.00016404385961
   25     0.00003190280712     0.00409651881968     0.00000176579256     0.00016404385961     0.00000000000000
   26     0.00000567060412     0.00000214632085     0.00000277796888     0.00019086787136     0.00034461828391
   27     0.00000119716061     0.00013333034922     0.00000042620184     0.00004177686788     0.00524648828136
   28     0.00000126904782     0.00001452527778     0.00000054012573     0.00004109908585     0.00024645000080
   29     0.00000012393408     0.00000639582665     0.00000051960490     0.00000398143047     0.00023927109994
   30     0.00533224872255     0.00021235330921     0.00000016896094     0.00001297907216     0.00000918351752
   31     0.00022698075009     0.00563429912220     0.00000063304419     0.00005322395383     0.00004017361786
   32     0.00000285082759     0.00004593101897     0.00046730594573     0.00193218437073     0.00011157584355
   33     0.00000291682827     0.00000433763452     0.00272681317472     0.00155456172176     0.00000576212998
   34     0.00022376669924     0.00020329714804     0.00000013086954     0.00001341000061     0.00002372924294

                26                  27                  28                  29                  30

    1     0.01830899946007     0.00121653211051     0.00123283668075     0.00027949017521     0.00035687603699
    2     0.00121098062135     0.00016489155388     0.00021347865367     0.00003381574072     0.00084717048254
    3     0.00042480986726     0.00006841869825     0.00005005777327     0.00001450531255     0.01078094141580
    4     0.00002738720875     0.00001160791891     0.00001153671220     0.00000525887013     0.06113382262427
    5     0.00003736507902     0.00000718321524     0.00001182547413     0.00000778719240     0.00002763796496
    6     0.00012876635102     0.00026305331477     0.00004161593077     0.00004034222054     0.00258377085241
    7     0.00679207134124     0.00032314490088     0.00025683309197     0.00005065874811     0.00006098217442
    8     0.00014254059921     0.00001536590665     0.00001331059302     0.00000435824441     0.00000205309506
    9     0.00390250423635     0.00007282507351     0.00009032815734     0.00001725536836     0.00001918889911
   10     0.00048209592656     0.00006024849353     0.00005003900948     0.00001211774837     0.00001833466552
   11     0.00025890749172     0.00003699575443     0.00004073969087     0.00000569151317     0.00000656686956
   12     0.05581785026641     0.01068181887033     0.01055372953953     0.00291199927087     0.00004624275398
   13     0.00943610065103     0.06029877437977     0.00250508626443     0.01130315839539     0.00004922652571
   14     0.80971474509920     0.00247172625806     0.06010255777261     0.01128595704964     0.00001022336330
   15     0.00214880370258     0.83246975607386     0.01125533369777     0.05890005343640     0.00001506454780
   16     0.05516802417605     0.01121152815050     0.83319638895242     0.05892885542529     0.00000364973979
   17     0.01038054237738     0.05879571870465     0.05888275112557     0.83524250955480     0.00000446468200
   18     0.00001052214440     0.00000637319122     0.00000243042490     0.00000342502189     0.83344867897079
   19     0.00001010063732     0.00001472545443     0.00000595282959     0.00000882025505     0.01135098548037
   20     0.00001692236144     0.00001356897136     0.00000237597329     0.00000207348883     0.05837937968079
   21     0.00000567060412     0.00000119716061     0.00000126904782     0.00000012393408     0.00533224872255
   22     0.00000214632085     0.00013333034922     0.00001452527778     0.00000639582665     0.00021235330921
   23     0.00000277796888     0.00000042620184     0.00000054012573     0.00000051960490     0.00000016896094
   24     0.00019086787136     0.00004177686788     0.00004109908585     0.00000398143047     0.00001297907216
   25     0.00034461828391     0.00524648828136     0.00024645000080     0.00023927109994     0.00000918351752
   26     0.00000000000000     0.00024939877767     0.00514131524287     0.00024193476711     0.00000100119372
   27     0.00024939877767     0.00000000000000     0.00025014296295     0.00521562797812     0.00000034335342
   28     0.00514131524287     0.00025014296295     0.00000000000000     0.00522964352088     0.00000035070169
   29     0.00024193476711     0.00521562797812     0.00522964352088     0.00000000000000     0.00000015089836
   30     0.00000100119372     0.00000034335342     0.00000035070169     0.00000015089836     0.00000000000000
   31     0.00000100682258     0.00000121768451     0.00000051687936     0.00000109444551     0.00028144151265
   32     0.00057568908670     0.00000147223064     0.00001787157570     0.00000212339687     0.00000047582360
   33     0.00000744140056     0.00000146899187     0.00000253449242     0.00000054580627     0.00000175177733
   34     0.00000066747925     0.00000037150055     0.00000019662427     0.00000007681545     0.00510202296366

                31                  32                  33                  34

    1     0.00022877414924     0.01078078929324     0.00166527710286     0.00004565864169
    2     0.00088674472909     0.00015071200635     0.00037411138288     0.00025857166345
    3     0.01081223223215     0.00009907580263     0.00012395611293     0.00284235207000
    4     0.00249525534840     0.00004648926117     0.00005309779344     0.01123845896707
    5     0.00019950910659     0.00005091890823     0.00018561117404     0.00001463757683
    6     0.06010836910514     0.00011516096831     0.00002431839756     0.01115715311039
    7     0.00007476734304     0.04810750131559     0.01380301888080     0.00001816086192
    8     0.00000327872433     0.01117147881994     0.05472403130827     0.00000136206862
    9     0.00001486863479     0.81340816191572     0.05859737158749     0.00000413855669
   10     0.00005289722143     0.00938961106249     0.01215624009905     0.00000939867341
   11     0.00001719183899     0.05896981845063     0.83553900331232     0.00000197562260
   12     0.00014626220109     0.01061037198946     0.00036923314102     0.00004647263736
   13     0.00024728013925     0.00319408001219     0.00008176320108     0.00008246967134
   14     0.00001774226094     0.00765131236203     0.00013939044778     0.00001153557795
   15     0.00004368591221     0.00063727223406     0.00001526853082     0.00003787205715
   16     0.00002048129968     0.00144801138681     0.00001822467933     0.00001409147275
   17     0.00001042744138     0.00058249985611     0.00000740427040     0.00000540819351
   18     0.01152474228944     0.00001856502877     0.00000736256019     0.05899843972207
   19     0.83326552924666     0.00003331310482     0.00000561605289     0.05965136744680
   20     0.05877572088752     0.00001426084932     0.00000321269067     0.83541556026079
   21     0.00022698075009     0.00000285082759     0.00000291682827     0.00022376669924
   22     0.00563429912220     0.00004593101897     0.00000433763452     0.00020329714804
   23     0.00000063304419     0.00046730594573     0.00272681317472     0.00000013086954
   24     0.00005322395383     0.00193218437073     0.00155456172176     0.00001341000061
   25     0.00004017361786     0.00011157584355     0.00000576212998     0.00002372924294
   26     0.00000100682258     0.00057568908670     0.00000744140056     0.00000066747925
   27     0.00000121768451     0.00000147223064     0.00000146899187     0.00000037150055
   28     0.00000051687936     0.00001787157570     0.00000253449242     0.00000019662427
   29     0.00000109444551     0.00000212339687     0.00000054580627     0.00000007681545
   30     0.00028144151265     0.00000047582360     0.00000175177733     0.00510202296366
   31     0.00000000000000     0.00000081072815     0.00000082952894     0.00516704698023
   32     0.00000081072815     0.00000000000000     0.00246354581666     0.00000031316119
   33     0.00000082952894     0.00246354581666     0.00000000000000     0.00000026889675
   34     0.00516704698023     0.00000031316119     0.00000026889675     0.00000000000000



  Atomic Valences: 

 #  #
 Irrep: 1
      1:    4.785288805520251
      2:    4.207524926263621
      3:    4.749996394004956
      4:    4.453332228208718
      5:    0.932166059921876
      6:    4.483415366879891
      7:    4.644174815885592
      8:    4.059612239540143
      9:    4.418726087639874
     10:    5.049830313589498
     11:    4.447283200367930
     12:    4.731552543420221
     13:    4.519065436257701
     14:    4.487450740715981
     15:    4.457229699143854
     16:    4.451074956618179
     17:    4.453826606920361
     18:    4.451448867160427
     19:    4.453198730256108
     20:    4.450870958546457
     21:    0.984510646492999
     22:    0.996803935701658
     23:    0.932360108155540
     24:    2.728451209469654
     25:    0.986718150279685
     26:    0.981184575417936
     27:    0.989347519335360
     28:    0.989465663885694
     29:    0.989999622556716
     30:    0.990099732631972
     31:    0.990355035181429
     32:    0.982101554453933
     33:    0.984666290925869
     34:    0.990590383234100


    Psi4 stopped on: Thursday, 09 June 2022 05:21AM
    Psi4 wall time for execution: 0:06:39.19

*** Psi4 exiting successfully. Buy a developer a beer!
