
    -----------------------------------------------------------------------
          Psi4: An Open-Source Ab Initio Electronic Structure Package
                               Psi4 1.5 release

                         Git: Rev {HEAD} e9f4d6d 


    D. G. A. Smith, L. A. Burns, A. C. Simmonett, R. M. Parrish,
    M. C. Schieber, R. Galvelis, P. Kraus, H. Kruse, R. Di Remigio,
    A. Alenaizan, A. M. James, S. Lehtola, J. P. Misiewicz, M. Scheurer,
    R. A. Shaw, J. B. Schriber, Y. Xie, Z. L. Glick, D. A. Sirianni,
    J. S. O'Brien, J. M. Waldrop, A. Kumar, E. G. Hohenstein,
    B. P. Pritchard, B. R. Brooks, H. F. Schaefer III, A. Yu. Sokolov,
    K. Patkowski, A. E. DePrince III, U. Bozkaya, R. A. King,
    F. A. Evangelista, J. M. Turney, T. D. Crawford, C. D. Sherrill,
    J. Chem. Phys. 152(18) 184108 (2020). https://doi.org/10.1063/5.0006002

                            Additional Code Authors
    E. T. Seidl, C. L. Janssen, E. F. Valeev, M. L. Leininger,
    J. F. Gonthier, R. M. Richard, H. R. McAlexander, M. Saitow, X. Wang,
    P. Verma, M. H. Lechner, and A. Jiang

             Previous Authors, Complete List of Code Contributors,
                       and Citations for Specific Modules
    https://github.com/psi4/psi4/blob/master/codemeta.json
    https://github.com/psi4/psi4/graphs/contributors
    http://psicode.org/psi4manual/master/introduction.html#citing-psifour

    -----------------------------------------------------------------------


    Psi4 started on: Thursday, 09 June 2022 06:33AM

    Process ID: 1294600
    Host:       node74.bme.utexas.edu
    PSIDATADIR: /home/bdw2292/miniconda3/envs/newamoebamdpoltype/share/psi4
    Memory:     500.0 MiB
    Threads:    1
    
  ==> Input File <==

--------------------------------------------------------------------------
molecule { 
0 1
 C   -0.536840   -0.289000    0.382103
 N    0.681078   -0.866807    0.577080
 C    1.906603   -0.531614   -0.082991
 C    2.296431   -1.181412   -1.252671
 H    0.736496   -1.440090    1.424649
 C    2.709739    0.476214    0.451170
 C   -1.536913   -0.521697    1.306354
 N   -2.514291   -1.298198    3.190410
 C   -2.939367   -0.126474    1.315947
 C   -1.308804   -1.292985    2.521899
 C   -3.491249   -0.603951    2.454636
 C   -0.774727    0.585278   -0.796541
 C   -1.351065    1.846558   -0.601421
 C   -0.526559    0.150984   -2.102997
 C   -1.629177    2.673241   -1.685402
 C   -0.811797    0.975634   -3.186863
 C   -1.356576    2.241148   -2.981442
 C    3.484776   -0.825431   -1.885134
 C    3.898638    0.830322   -0.181148
 C    4.285605    0.183114   -1.352928
 H    1.682107   -1.980064   -1.643285
 H    2.391336    0.974455    1.356314
 H   -2.649207   -1.764187    4.066541
 O   -0.246914   -1.858794    2.917286
 H   -1.558655    2.181030    0.405464
 H   -0.132788   -0.838274   -2.274665
 H   -2.058577    3.651334   -1.517304
 H   -0.614723    0.626514   -4.191167
 H   -1.573232    2.882230   -3.824983
 H    3.784800   -1.335404   -2.790266
 H    4.517019    1.612707    0.236821
 H   -3.449973    0.426008    0.547278
 H   -4.499671   -0.526768    2.819077
 H    5.206502    0.460751   -1.846895
}
memory 8.166666666666666GB
set_num_threads(2)
psi4_io.set_default_path("/scratch/bdw2292/Psi4-1_16_Index_0-farH_in17")
set freeze_core True
E, wfn = energy('wb97x-d/6-311+G*',return_wfn=True)
oeprop(wfn,"WIBERG_LOWDIN_INDICES")
clean()
--------------------------------------------------------------------------

  Memory set to   7.606 GiB by Python driver.
  Threads set to 2 by Python driver.

Scratch directory: /scratch/bdw2292/Psi4-1_16_Index_0-farH_in17/

Scratch directory: /scratch/bdw2292/Psi4-1_16_Index_0-farH_in17/

*** tstart() called on node74.bme.utexas.edu
*** at Thu Jun  9 06:33:51 2022

   => Loading Basis Set <=

    Name: 6-311+G*
    Role: ORBITAL
    Keyword: BASIS
    atoms 1, 3-4, 6-7, 9-20 entry C          line   130 file /home/bdw2292/miniconda3/envs/newamoebamdpoltype/share/psi4/basis/6-311pgs.gbs 
    atoms 2, 8              entry N          line   151 file /home/bdw2292/miniconda3/envs/newamoebamdpoltype/share/psi4/basis/6-311pgs.gbs 
    atoms 5, 21-23, 25-34   entry H          line    47 file /home/bdw2292/miniconda3/envs/newamoebamdpoltype/share/psi4/basis/6-311pgs.gbs 
    atoms 24                entry O          line   172 file /home/bdw2292/miniconda3/envs/newamoebamdpoltype/share/psi4/basis/6-311pgs.gbs 

   => WB97X-D: Empirical Dispersion <=

    Chai and Head-Gordon Dispersion Correction
    Chai, J.-D.; Head-Gordon, M. (2010), J. Chem. Phys., 132: 6615-6620

        s6 =       1.000000


         ---------------------------------------------------------
                                   SCF
               by Justin Turney, Rob Parrish, Andy Simmonett
                          and Daniel G. A. Smith
                              RKS Reference
                        2 Threads,   7788 MiB Core
         ---------------------------------------------------------

  ==> Geometry <==

    Molecular point group: c1
    Full point group: C1

    Geometry (in Angstrom), charge = 0, multiplicity = 1:

       Center              X                  Y                   Z               Mass       
    ------------   -----------------  -----------------  -----------------  -----------------
         C           -0.536840015738    -0.288999972310     0.382102928105    12.000000000000
         N            0.681077984262    -0.866806972310     0.577079928105    14.003074004430
         C            1.906602984262    -0.531613972310    -0.082991071895    12.000000000000
         C            2.296430984262    -1.181411972310    -1.252671071895    12.000000000000
         H            0.736495984262    -1.440089972310     1.424648928105     1.007825032230
         C            2.709738984262     0.476214027690     0.451169928105    12.000000000000
         C           -1.536913015738    -0.521696972310     1.306353928105    12.000000000000
         N           -2.514291015738    -1.298197972310     3.190409928105    14.003074004430
         C           -2.939367015738    -0.126473972310     1.315946928105    12.000000000000
         C           -1.308804015738    -1.292984972310     2.521898928105    12.000000000000
         C           -3.491249015738    -0.603950972310     2.454635928105    12.000000000000
         C           -0.774727015738     0.585278027690    -0.796541071895    12.000000000000
         C           -1.351065015738     1.846558027690    -0.601421071895    12.000000000000
         C           -0.526559015738     0.150984027690    -2.102997071895    12.000000000000
         C           -1.629177015738     2.673241027690    -1.685402071895    12.000000000000
         C           -0.811797015738     0.975634027690    -3.186863071895    12.000000000000
         C           -1.356576015738     2.241148027690    -2.981442071895    12.000000000000
         C            3.484775984262    -0.825430972310    -1.885134071895    12.000000000000
         C            3.898637984262     0.830322027690    -0.181148071895    12.000000000000
         C            4.285604984262     0.183114027690    -1.352928071895    12.000000000000
         H            1.682106984262    -1.980063972310    -1.643285071895     1.007825032230
         H            2.391335984262     0.974455027690     1.356313928105     1.007825032230
         H           -2.649207015738    -1.764186972310     4.066540928105     1.007825032230
         O           -0.246914015738    -1.858793972310     2.917285928105    15.994914619570
         H           -1.558655015738     2.181030027690     0.405463928105     1.007825032230
         H           -0.132788015738    -0.838273972310    -2.274665071895     1.007825032230
         H           -2.058577015738     3.651334027690    -1.517304071895     1.007825032230
         H           -0.614723015738     0.626514027690    -4.191167071895     1.007825032230
         H           -1.573232015738     2.882230027690    -3.824983071895     1.007825032230
         H            3.784799984262    -1.335403972310    -2.790266071895     1.007825032230
         H            4.517018984262     1.612707027690     0.236820928105     1.007825032230
         H           -3.449973015738     0.426008027690     0.547277928105     1.007825032230
         H           -4.499671015738    -0.526767972310     2.819076928105     1.007825032230
         H            5.206501984262     0.460751027690    -1.846895071895     1.007825032230

  Running in c1 symmetry.

  Rotational constants: A =      0.01537  B =      0.00944  C =      0.00653 [cm^-1]
  Rotational constants: A =    460.76005  B =    283.00613  C =    195.71366 [MHz]
  Nuclear repulsion = 1425.860628280215451

  Charge       = 0
  Multiplicity = 1
  Electrons    = 138
  Nalpha       = 69
  Nbeta        = 69

  ==> Algorithm <==

  SCF Algorithm Type is DF.
  DIIS enabled.
  MOM disabled.
  Fractional occupation disabled.
  Guess Type is SAD.
  Energy threshold   = 1.00e-06
  Density threshold  = 1.00e-06
  Integral threshold = 1.00e-12

  ==> Primary Basis <==

  Basis Set: 6-311+G*
    Blend: 6-311+G*
    Number of shells: 242
    Number of basis functions: 482
    Number of Cartesian functions: 502
    Spherical Harmonics?: true
    Max angular momentum: 2

  ==> DFT Potential <==

   => LibXC <=

    Version 5.1.5
    S. Lehtola, C. Steigemann, M. J. Oliveira, and M. A. Marques, SoftwareX 7, 1 (2018) (10.1016/j.softx.2017.11.002)

   => Composite Functional: WB97X-D <= 

    wB97X-D Hyb-GGA Exchange-Correlation Functional

    J.-D. Chai and M. Head-Gordon, Phys. Chem. Chem. Phys. 10, 6615 (2008) (10.1039/B810189B)

    Deriv               =              1
    GGA                 =           TRUE
    Meta                =          FALSE

    Exchange Hybrid     =           TRUE
    MP2 Hybrid          =          FALSE

   => Exchange-Correlation Functionals <=

    1.0000   wB97X-D range-separated functional

   => Exact (HF) Exchange <=

    0.7780            HF,LR [omega = 0.2000]
    0.2220               HF 

   => LibXC Density Thresholds  <==

    XC_HYB_GGA_XC_WB97X_D:  1.00E-14 

   => Molecular Quadrature <=

    Radial Scheme          =       TREUTLER
    Pruning Scheme         =           NONE
    Nuclear Scheme         =       TREUTLER

    BS radius alpha        =              1
    Pruning alpha          =              1
    Radial Points          =             75
    Spherical Points       =            302
    Total Points           =         702963
    Total Blocks           =           5012
    Max Points             =            256
    Max Functions          =            387
    Weights Tolerance      =       1.00E-15

   => Loading Basis Set <=

    Name: (6-311+G* AUX)
    Role: JKFIT
    Keyword: DF_BASIS_SCF
    atoms 1, 3-4, 6-7, 9-20 entry C          line   200 file /home/bdw2292/miniconda3/envs/newamoebamdpoltype/share/psi4/basis/heavy-aug-cc-pvtz-jkfit.gbs 
    atoms 2, 8              entry N          line   262 file /home/bdw2292/miniconda3/envs/newamoebamdpoltype/share/psi4/basis/heavy-aug-cc-pvtz-jkfit.gbs 
    atoms 5, 21-23, 25-34   entry H          line   116 file /home/bdw2292/miniconda3/envs/newamoebamdpoltype/share/psi4/basis/heavy-aug-cc-pvtz-jkfit.gbs 
    atoms 24                entry O          line   324 file /home/bdw2292/miniconda3/envs/newamoebamdpoltype/share/psi4/basis/heavy-aug-cc-pvtz-jkfit.gbs 

  ==> Integral Setup <==

  ==> DiskDFJK: Density-Fitted J/K Matrices <==

    J tasked:                  Yes
    K tasked:                  Yes
    wK tasked:                 Yes
    Omega:               2.000E-01
    OpenMP threads:              2
    Integrals threads:           2
    Memory [MiB]:             1969
    Algorithm:                Disk
    Integral Cache:           NONE
    Schwarz Cutoff:          1E-12
    Fitting Condition:       1E-10

   => Auxiliary Basis Set <=

  Basis Set: (6-311+G* AUX)
    Blend: HEAVY-AUG-CC-PVTZ-JKFIT
    Number of shells: 740
    Number of basis functions: 2500
    Number of Cartesian functions: 3110
    Spherical Harmonics?: true
    Max angular momentum: 4

  Cached 50.0% of DFT collocation blocks in 2.730 [GiB].

  Minimum eigenvalue in the overlap matrix is 3.3010806003E-07.
  Reciprocal condition number of the overlap matrix is 1.9365840117E-08.
    Using symmetric orthogonalization.

  ==> Pre-Iterations <==

  SCF Guess: Superposition of Atomic Densities via on-the-fly atomic UHF (no occupation information).

   -------------------------
    Irrep   Nso     Nmo    
   -------------------------
     A        482     482 
   -------------------------
    Total     482     482
   -------------------------

  ==> Iterations <==

                           Total Energy        Delta E     RMS |[F,P]|

   @DF-RKS iter SAD:  -840.35781473323618   -8.40358e+02   0.00000e+00 
   @DF-RKS iter   1:  -840.05860957313712    2.99205e-01   2.63818e-03 DIIS
   @DF-RKS iter   2:  -840.42352895069655   -3.64919e-01   2.08822e-03 DIIS
   @DF-RKS iter   3:  -840.85535627492004   -4.31827e-01   3.49283e-04 DIIS
   @DF-RKS iter   4:  -840.86385443177687   -8.49816e-03   1.70146e-04 DIIS
   @DF-RKS iter   5:  -840.86635871467433   -2.50428e-03   3.89462e-05 DIIS
   @DF-RKS iter   6:  -840.86650376099817   -1.45046e-04   1.20797e-05 DIIS
   @DF-RKS iter   7:  -840.86651981328271   -1.60523e-05   3.07986e-06 DIIS
   @DF-RKS iter   8:  -840.86652107731345   -1.26403e-06   1.47552e-06 DIIS
   @DF-RKS iter   9:  -840.86652147910138   -4.01788e-07   5.21102e-07 DIIS
  Energy and wave function converged.


  ==> Post-Iterations <==

   Electrons on quadrature grid:
      Ntotal   =  138.0000729087 ; deviation = 7.291e-05 

    Orbital Energies [Eh]
    ---------------------

    Doubly Occupied:                                                      

       1A    -19.201334     2A    -14.462607     3A    -14.461713  
       4A    -10.373849     5A    -10.363687     6A    -10.338230  
       7A    -10.315194     8A    -10.312705     9A    -10.303599  
      10A    -10.302050    11A    -10.301723    12A    -10.300625  
      13A    -10.300349    14A    -10.300068    15A    -10.300058  
      16A    -10.299607    17A    -10.298873    18A    -10.298357  
      19A    -10.278162    20A    -10.276039    21A     -1.118861  
      22A     -1.063448    23A     -1.044163    24A     -0.978144  
      25A     -0.965573    26A     -0.906164    27A     -0.868997  
      28A     -0.862301    29A     -0.860000    30A     -0.854255  
      31A     -0.811247    32A     -0.764569    33A     -0.723326  
      34A     -0.722170    35A     -0.714198    36A     -0.692876  
      37A     -0.677860    38A     -0.666181    39A     -0.637865  
      40A     -0.616622    41A     -0.596816    42A     -0.583302  
      43A     -0.577321    44A     -0.563904    45A     -0.555692  
      46A     -0.546088    47A     -0.538775    48A     -0.525060  
      49A     -0.519452    50A     -0.517125    51A     -0.511258  
      52A     -0.507117    53A     -0.493918    54A     -0.478707  
      55A     -0.473079    56A     -0.466420    57A     -0.454233  
      58A     -0.452792    59A     -0.443067    60A     -0.439171  
      61A     -0.424193    62A     -0.401253    63A     -0.350544  
      64A     -0.345611    65A     -0.342940    66A     -0.338490  
      67A     -0.327976    68A     -0.324097    69A     -0.258923  

    Virtual:                                                              

      70A      0.008031    71A      0.037075    72A      0.043628  
      73A      0.052396    74A      0.054812    75A      0.058615  
      76A      0.063539    77A      0.067042    78A      0.071004  
      79A      0.078934    80A      0.082400    81A      0.088176  
      82A      0.091708    83A      0.097755    84A      0.101346  
      85A      0.104194    86A      0.108771    87A      0.110517  
      88A      0.113429    89A      0.121222    90A      0.124768  
      91A      0.127795    92A      0.133169    93A      0.141813  
      94A      0.144739    95A      0.146472    96A      0.151088  
      97A      0.160134    98A      0.166132    99A      0.168867  
     100A      0.171558   101A      0.177044   102A      0.180422  
     103A      0.182616   104A      0.186729   105A      0.187612  
     106A      0.191843   107A      0.194806   108A      0.203341  
     109A      0.204255   110A      0.206736   111A      0.209971  
     112A      0.213260   113A      0.216742   114A      0.217309  
     115A      0.219150   116A      0.222098   117A      0.226832  
     118A      0.228302   119A      0.232323   120A      0.235256  
     121A      0.241023   122A      0.243750   123A      0.245391  
     124A      0.248901   125A      0.251969   126A      0.258129  
     127A      0.259584   128A      0.262445   129A      0.263412  
     130A      0.264155   131A      0.267058   132A      0.270036  
     133A      0.272839   134A      0.276916   135A      0.278187  
     136A      0.281220   137A      0.282886   138A      0.287602  
     139A      0.289783   140A      0.294098   141A      0.295462  
     142A      0.300960   143A      0.303925   144A      0.306994  
     145A      0.308475   146A      0.310385   147A      0.315786  
     148A      0.321033   149A      0.324884   150A      0.325198  
     151A      0.328934   152A      0.335341   153A      0.336237  
     154A      0.339013   155A      0.346393   156A      0.350159  
     157A      0.352440   158A      0.359084   159A      0.361460  
     160A      0.364083   161A      0.367186   162A      0.371742  
     163A      0.378527   164A      0.382567   165A      0.387955  
     166A      0.389030   167A      0.398259   168A      0.401218  
     169A      0.404303   170A      0.408747   171A      0.413101  
     172A      0.417360   173A      0.421572   174A      0.426500  
     175A      0.428144   176A      0.432474   177A      0.436188  
     178A      0.441816   179A      0.445819   180A      0.454478  
     181A      0.459693   182A      0.463469   183A      0.471929  
     184A      0.495584   185A      0.506859   186A      0.513854  
     187A      0.531531   188A      0.545575   189A      0.553658  
     190A      0.566860   191A      0.581688   192A      0.590154  
     193A      0.599561   194A      0.604683   195A      0.610025  
     196A      0.615127   197A      0.622826   198A      0.627047  
     199A      0.631413   200A      0.637663   201A      0.642323  
     202A      0.648064   203A      0.656013   204A      0.660469  
     205A      0.667495   206A      0.671738   207A      0.676206  
     208A      0.686012   209A      0.689874   210A      0.694751  
     211A      0.697121   212A      0.712404   213A      0.716626  
     214A      0.721212   215A      0.731809   216A      0.733967  
     217A      0.744403   218A      0.753334   219A      0.757141  
     220A      0.768153   221A      0.776605   222A      0.780356  
     223A      0.782916   224A      0.790966   225A      0.795509  
     226A      0.795874   227A      0.805160   228A      0.808125  
     229A      0.814810   230A      0.821679   231A      0.824598  
     232A      0.829091   233A      0.836275   234A      0.840656  
     235A      0.844850   236A      0.847350   237A      0.859206  
     238A      0.865764   239A      0.868597   240A      0.881359  
     241A      0.884018   242A      0.885033   243A      0.894919  
     244A      0.903896   245A      0.909754   246A      0.919651  
     247A      0.922916   248A      0.925012   249A      0.931090  
     250A      0.936815   251A      0.941451   252A      0.944398  
     253A      0.950782   254A      0.955615   255A      0.963137  
     256A      0.972697   257A      0.976991   258A      0.980990  
     259A      1.001003   260A      1.007232   261A      1.010191  
     262A      1.025906   263A      1.032548   264A      1.059675  
     265A      1.063251   266A      1.073660   267A      1.087598  
     268A      1.091728   269A      1.098705   270A      1.104540  
     271A      1.113649   272A      1.133754   273A      1.135590  
     274A      1.138411   275A      1.159036   276A      1.167301  
     277A      1.170658   278A      1.186736   279A      1.200052  
     280A      1.222093   281A      1.237178   282A      1.237501  
     283A      1.258012   284A      1.263214   285A      1.274102  
     286A      1.276520   287A      1.285490   288A      1.288536  
     289A      1.293599   290A      1.307564   291A      1.308404  
     292A      1.324507   293A      1.354678   294A      1.367569  
     295A      1.372480   296A      1.383822   297A      1.387583  
     298A      1.403945   299A      1.421343   300A      1.428359  
     301A      1.452013   302A      1.457604   303A      1.491892  
     304A      1.565003   305A      1.573195   306A      1.584466  
     307A      1.587299   308A      1.605567   309A      1.611811  
     310A      1.616604   311A      1.627856   312A      1.637969  
     313A      1.644719   314A      1.673342   315A      1.687745  
     316A      1.725339   317A      1.732897   318A      1.736936  
     319A      1.769034   320A      1.812198   321A      1.836563  
     322A      1.843910   323A      1.848644   324A      1.863998  
     325A      1.867751   326A      1.873516   327A      1.883891  
     328A      1.890960   329A      1.897926   330A      1.909443  
     331A      1.913810   332A      1.926248   333A      1.933576  
     334A      1.940019   335A      1.948043   336A      1.971774  
     337A      1.976722   338A      1.989735   339A      2.007648  
     340A      2.017183   341A      2.022945   342A      2.025766  
     343A      2.042090   344A      2.056899   345A      2.060230  
     346A      2.075830   347A      2.078727   348A      2.084826  
     349A      2.094875   350A      2.104073   351A      2.108326  
     352A      2.146565   353A      2.170417   354A      2.200911  
     355A      2.234158   356A      2.251041   357A      2.307492  
     358A      2.324603   359A      2.332260   360A      2.339959  
     361A      2.353279   362A      2.360833   363A      2.378666  
     364A      2.384946   365A      2.389185   366A      2.404624  
     367A      2.411124   368A      2.423520   369A      2.446192  
     370A      2.476629   371A      2.485252   372A      2.493449  
     373A      2.511314   374A      2.520918   375A      2.529085  
     376A      2.546206   377A      2.563055   378A      2.570390  
     379A      2.626862   380A      2.665372   381A      2.718792  
     382A      2.751462   383A      2.766329   384A      2.773995  
     385A      2.797396   386A      2.802991   387A      2.815146  
     388A      2.829165   389A      2.843107   390A      2.863815  
     391A      2.884615   392A      2.895207   393A      2.906577  
     394A      2.913448   395A      2.921700   396A      2.942053  
     397A      2.959322   398A      2.985124   399A      2.989085  
     400A      3.002064   401A      3.019815   402A      3.030818  
     403A      3.047662   404A      3.063666   405A      3.064425  
     406A      3.073457   407A      3.106097   408A      3.123574  
     409A      3.142271   410A      3.165817   411A      3.183111  
     412A      3.204554   413A      3.241124   414A      3.256144  
     415A      3.287321   416A      3.322169   417A      3.335323  
     418A      3.398046   419A      3.403033   420A      3.408219  
     421A      3.414668   422A      3.420811   423A      3.429188  
     424A      3.430701   425A      3.433664   426A      3.450326  
     427A      3.458219   428A      3.462240   429A      3.505269  
     430A      3.530308   431A      3.558815   432A      3.564032  
     433A      3.601313   434A      3.630787   435A      3.648820  
     436A      3.664975   437A      3.689889   438A      3.737564  
     439A      3.758748   440A      3.776812   441A      3.786507  
     442A      3.881505   443A      3.922539   444A      3.989703  
     445A      4.012172   446A      4.058895   447A      4.126282  
     448A      4.140382   449A      4.149123   450A      4.187795  
     451A      4.207739   452A      4.360991   453A      4.533195  
     454A      4.652398   455A      4.717942   456A      4.883942  
     457A      4.886835   458A      5.130619   459A      5.204963  
     460A      5.223565   461A      5.412688   462A      5.919313  
     463A     23.490159   464A     23.536929   465A     23.717701  
     466A     23.930764   467A     23.981060   468A     23.988934  
     469A     24.014467   470A     24.027268   471A     24.035518  
     472A     24.146405   473A     24.170135   474A     24.173379  
     475A     24.175328   476A     24.234329   477A     24.278777  
     478A     24.280018   479A     24.286719   480A     35.654594  
     481A     35.728987   482A     50.202087  

    Final Occupation by Irrep:
              A 
    DOCC [    69 ]

  @DF-RKS Final Energy:  -840.86652147910138

   => Energetics <=

    Nuclear Repulsion Energy =           1425.8606282802154510
    One-Electron Energy =               -3970.6722222140815575
    Two-Electron Energy =                1786.6507412788528200
    DFT Exchange-Correlation Energy =     -82.6814527458543722
    Empirical Dispersion Energy =          -0.0242160782339068
    VV10 Nonlocal Energy =                  0.0000000000000000
    Total Energy =                       -840.8665214791013796

Computation Completed


Properties will be evaluated at   0.000000,   0.000000,   0.000000 [a0]

Properties computed using the SCF density matrix

  Nuclear Dipole Moment: [e a0]
     X:     1.6742      Y:     4.6193      Z:    -6.7771

  Electronic Dipole Moment: [e a0]
     X:    -1.8794      Y:    -3.7360      Z:     5.6970

  Dipole Moment: [e a0]
     X:    -0.2052      Y:     0.8833      Z:    -1.0801     Total:     1.4103

  Dipole Moment: [D]
     X:    -0.5217      Y:     2.2451      Z:    -2.7454     Total:     3.5846


*** tstop() called on node74.bme.utexas.edu at Thu Jun  9 06:40:34 2022
Module time:
	user time   =     750.80 seconds =      12.51 minutes
	system time =      28.52 seconds =       0.48 minutes
	total time  =        403 seconds =       6.72 minutes
Total time:
	user time   =     750.80 seconds =      12.51 minutes
	system time =      28.52 seconds =       0.48 minutes
	total time  =        403 seconds =       6.72 minutes


Properties will be evaluated at   0.000000,   0.000000,   0.000000 [a0]
OEProp: No title given, name of density matrix used for the following properties is 'SCF density'


  Wiberg Bond Indices using Orthogonal Lowdin Orbitals:

  Irrep: 1 Size: 34 x 34

                 1                   2                   3                   4                   5

    1     0.00000000000000     1.41526016858542     0.10187694304536     0.02810839254383     0.04301440163940
    2     1.41526016858542     0.00000000000000     1.13348659973220     0.12617627512227     0.71725637921106
    3     0.10187694304536     1.13348659973220     0.00000000000000     1.42148205891802     0.03577257674854
    4     0.02810839254383     0.12617627512227     1.42148205891802     0.00000000000000     0.00934378929173
    5     0.04301440163940     0.71725637921106     0.03577257674854     0.00934378929173     0.00000000000000
    6     0.03227859853684     0.12582565434439     1.42385625112658     0.13043279098130     0.00997831731200
    7     1.41549603353294     0.18092044008497     0.02152608740007     0.00486517455650     0.01376942667276
    8     0.01836465456827     0.00584721919288     0.00071669909092     0.00019353584912     0.00126876108868
    9     0.10867479357694     0.02135403348345     0.00278139417175     0.00070757889203     0.00107757697645
   10     0.13092876924151     0.06649175929927     0.00630557478030     0.00168402908524     0.01334157006597
   11     0.06544466073997     0.02675428794054     0.00245548577628     0.00086431280634     0.00038314177209
   12     1.00909339944095     0.09813693902747     0.03307360899848     0.01636950855224     0.00770765571109
   13     0.12064090211206     0.02037236508064     0.00721991512299     0.00269816841415     0.00089819487162
   14     0.11444294234048     0.03415827965016     0.02611489021831     0.03865698022043     0.00105548914321
   15     0.01672360635428     0.00227695043137     0.00157433334079     0.00121551893542     0.00024217472294
   16     0.01667700080925     0.00305291411028     0.00467638884102     0.00706959136134     0.00009466103039
   17     0.01057416586386     0.00425614949284     0.00143195684837     0.00120127271198     0.00014595780902
   18     0.00334438353170     0.01629959099181     0.13663998849380     1.51315165783924     0.00064905153539
   19     0.00365074801751     0.01665448926634     0.13666312885084     0.14550343252580     0.00060487111652
   20     0.00428829568286     0.00900019148264     0.14004330091751     0.13861463807928     0.00267401256970
   21     0.00371348858820     0.01709075057012     0.05551833310169     0.81004867128558     0.00003745787827
   22     0.00522957116577     0.01847468829886     0.05656109518924     0.00944459626487     0.00017114969736
   23     0.00152912833569     0.00028713397698     0.00006789043626     0.00002097667620     0.00010380783410
   24     0.07868259803395     0.11953159805466     0.01162727406062     0.00206225711116     0.06548137702103
   25     0.01686655541801     0.00080495094977     0.00032930662489     0.00005934097586     0.00001990268174
   26     0.01492368682648     0.00559560055079     0.00728801894164     0.01442978143171     0.00010038819415
   27     0.00119989607669     0.00031116315785     0.00005506563629     0.00004105110375     0.00001875600667
   28     0.00118728665744     0.00009600496031     0.00013712181066     0.00029375614362     0.00000449434647
   29     0.00028232889653     0.00005060228792     0.00003005992687     0.00004501438079     0.00000775135651
   30     0.00027410808527     0.00087865979244     0.01076542965959     0.06040296243065     0.00009346243300
   31     0.00033065288614     0.00086346117999     0.01060647891825     0.00242244723711     0.00006435351228
   32     0.01017913256564     0.00019347614574     0.00010890540240     0.00007045375927     0.00005717104940
   33     0.00166613129197     0.00038073589319     0.00011765043972     0.00003187055568     0.00018033541673
   34     0.00003989299822     0.00022921560098     0.00301492381492     0.01131093700324     0.00002272028709

                 6                   7                   8                   9                  10

    1     0.03227859853684     1.41549603353294     0.01836465456827     0.10867479357694     0.13092876924151
    2     0.12582565434439     0.18092044008497     0.00584721919288     0.02135403348345     0.06649175929927
    3     1.42385625112658     0.02152608740007     0.00071669909092     0.00278139417175     0.00630557478030
    4     0.13043279098130     0.00486517455650     0.00019353584912     0.00070757889203     0.00168402908524
    5     0.00997831731200     0.01376942667276     0.00126876108868     0.00107757697645     0.01334157006597
    6     0.00000000000000     0.00599436391316     0.00027774208867     0.00075718889993     0.00229856952322
    7     0.00599436391316     0.00000000000000     0.13553936773232     1.14914996929200     1.10274931179370
    8     0.00027774208867     0.13553936773232     0.00000000000000     0.19590508769245     1.34527124861645
    9     0.00075718889993     1.14914996929200     0.19590508769245     0.00000000000000     0.13462460841649
   10     0.00229856952322     1.10274931179370     1.34527124861645     0.13462460841649     0.00000000000000
   11     0.00109507597010     0.16687443445902     1.26245549464009     1.80255484173584     0.14067256724660
   12     0.01416664242721     0.11302798743219     0.00267942396342     0.03476758814041     0.01504850717695
   13     0.00434449496453     0.05064266951814     0.00211117836533     0.04052666472180     0.00598196360312
   14     0.00780949641614     0.02744143261642     0.00066463031277     0.00643548910349     0.00398930539325
   15     0.00062473898148     0.00508869757487     0.00037847429162     0.00729115756337     0.00068335443774
   16     0.00117311268873     0.00335447438838     0.00016150228475     0.00180908749856     0.00054699818415
   17     0.00048191750700     0.00685732507381     0.00018654015726     0.00166552962424     0.00139522232965
   18     0.14621460102792     0.00078516959130     0.00003130067126     0.00012303135058     0.00025924101131
   19     1.51788866585402     0.00095148147603     0.00003511161365     0.00013704321200     0.00036767529620
   20     0.13903833055632     0.00042628528172     0.00005142980707     0.00013717457433     0.00021063890362
   21     0.00918777574034     0.00040938953421     0.00002013997502     0.00005256720582     0.00010122275640
   22     0.81266809282368     0.00085581289618     0.00001585365400     0.00005028819914     0.00032188738700
   23     0.00002007146007     0.01145676476471     0.80983668667304     0.01064430780239     0.04352067763409
   24     0.00329422672785     0.14257209517255     0.21169288405620     0.02220401350640     2.01230343291036
   25     0.00021414187680     0.01005433276765     0.00048503179668     0.01031898851519     0.00078896978164
   26     0.00091510448910     0.00160498299256     0.00004635105027     0.00017282249476     0.00010045923986
   27     0.00002197945590     0.00018675525679     0.00001204267328     0.00012416976368     0.00002953835563
   28     0.00001946659048     0.00034587702564     0.00001637277845     0.00007989767845     0.00007941619876
   29     0.00001171747259     0.00006860546555     0.00000816615195     0.00003259377104     0.00001680314073
   30     0.00242671718192     0.00007451176857     0.00000235993834     0.00001835025597     0.00004345485829
   31     0.06032216755860     0.00014599721373     0.00000429040038     0.00002184452951     0.00006356717146
   32     0.00006993906604     0.04762999142830     0.01113307244476     0.81368065885558     0.00939582191787
   33     0.00003889437518     0.01384214390220     0.05484766408947     0.05861810689118     0.01213918901852
   34     0.01134404387191     0.00001404353615     0.00000135810004     0.00000280635450     0.00000703727669

                11                  12                  13                  14                  15

    1     0.06544466073997     1.00909339944095     0.12064090211206     0.11444294234048     0.01672360635428
    2     0.02675428794054     0.09813693902747     0.02037236508064     0.03415827965016     0.00227695043137
    3     0.00245548577628     0.03307360899848     0.00721991512299     0.02611489021831     0.00157433334079
    4     0.00086431280634     0.01636950855224     0.00269816841415     0.03865698022043     0.00121551893542
    5     0.00038314177209     0.00770765571109     0.00089819487162     0.00105548914321     0.00024217472294
    6     0.00109507597010     0.01416664242721     0.00434449496453     0.00780949641614     0.00062473898148
    7     0.16687443445902     0.11302798743219     0.05064266951814     0.02744143261642     0.00508869757487
    8     1.26245549464009     0.00267942396342     0.00211117836533     0.00066463031277     0.00037847429162
    9     1.80255484173584     0.03476758814041     0.04052666472180     0.00643548910349     0.00729115756337
   10     0.14067256724660     0.01504850717695     0.00598196360312     0.00398930539325     0.00068335443774
   11     0.00000000000000     0.00590404307323     0.00699471135756     0.00237705474164     0.00090752103693
   12     0.00590404307323     0.00000000000000     1.40346201913860     1.40218566494194     0.13306099933372
   13     0.00699471135756     1.40346201913860     0.00000000000000     0.12795256465127     1.51856570612660
   14     0.00237705474164     1.40218566494194     0.12795256465127     0.00000000000000     0.14393829092777
   15     0.00090752103693     0.13306099933372     1.51856570612660     0.14393829092777     0.00000000000000
   16     0.00042911402517     0.13402936392084     0.14393660555335     1.51470493753938     0.13766198208741
   17     0.00128612230290     0.13609510291761     0.13886726138925     0.13822720882723     1.51708655358067
   18     0.00013925442118     0.00317826023052     0.00058274835855     0.00938300014791     0.00069945886227
   19     0.00021756411680     0.00221755344004     0.00059852158090     0.00265509770242     0.00031679743288
   20     0.00006177882268     0.00130491990438     0.00030923535004     0.00211960960163     0.00023486952492
   21     0.00004712054589     0.00279718349839     0.00011217618464     0.00923121546260     0.00010197768494
   22     0.00003772291770     0.00190664814336     0.00049428498138     0.00033319742533     0.00001841134237
   23     0.04127721357461     0.00044924203013     0.00012875011558     0.00010484557583     0.00002873320116
   24     0.02457211397352     0.00449738808207     0.00308222060189     0.00279298175124     0.00036974951658
   25     0.00105239396026     0.05390158052489     0.80462332526469     0.00919388150990     0.05449756199147
   26     0.00002484918201     0.05388456605509     0.00924397580826     0.80269128391508     0.00205120356037
   27     0.00004107797749     0.01066155650241     0.06030707559955     0.00253759146696     0.83303195415933
   28     0.00005392826139     0.01064016735858     0.00251114906116     0.06028845893727     0.01124902157641
   29     0.00000911369597     0.00282740718632     0.01118816192151     0.01118335395521     0.05890562813733
   30     0.00001474423712     0.00008970893953     0.00001396692290     0.00023823979933     0.00000949789569
   31     0.00004661663301     0.00007906824003     0.00001729123551     0.00005619738057     0.00000721426681
   32     0.05901442729421     0.00845338431725     0.01281796081329     0.00124117088119     0.00239461036731
   33     0.83557737926563     0.00030669031433     0.00020873619508     0.00006601115070     0.00002067194705
   34     0.00000122564604     0.00001962612956     0.00000795786605     0.00004627407896     0.00000385664353

                16                  17                  18                  19                  20

    1     0.01667700080925     0.01057416586386     0.00334438353170     0.00365074801751     0.00428829568286
    2     0.00305291411028     0.00425614949284     0.01629959099181     0.01665448926634     0.00900019148264
    3     0.00467638884102     0.00143195684837     0.13663998849380     0.13666312885084     0.14004330091751
    4     0.00706959136134     0.00120127271198     1.51315165783924     0.14550343252580     0.13861463807928
    5     0.00009466103039     0.00014595780902     0.00064905153539     0.00060487111652     0.00267401256970
    6     0.00117311268873     0.00048191750700     0.14621460102792     1.51788866585402     0.13903833055632
    7     0.00335447438838     0.00685732507381     0.00078516959130     0.00095148147603     0.00042628528172
    8     0.00016150228475     0.00018654015726     0.00003130067126     0.00003511161365     0.00005142980707
    9     0.00180908749856     0.00166552962424     0.00012303135058     0.00013704321200     0.00013717457433
   10     0.00054699818415     0.00139522232965     0.00025924101131     0.00036767529620     0.00021063890362
   11     0.00042911402517     0.00128612230290     0.00013925442118     0.00021756411680     0.00006177882268
   12     0.13402936392084     0.13609510291761     0.00317826023052     0.00221755344004     0.00130491990438
   13     0.14393660555335     0.13886726138925     0.00058274835855     0.00059852158090     0.00030923535004
   14     1.51470493753938     0.13822720882723     0.00938300014791     0.00265509770242     0.00211960960163
   15     0.13766198208741     1.51708655358067     0.00069945886227     0.00031679743288     0.00023486952492
   16     0.00000000000000     1.51670758366344     0.00253715099681     0.00052057693975     0.00045351682744
   17     1.51670758366344     0.00000000000000     0.00027380766965     0.00018872961048     0.00012227920539
   18     0.00253715099681     0.00027380766965     0.00000000000000     0.13778361538948     1.52030156786905
   19     0.00052057693975     0.00018872961048     0.13778361538948     0.00000000000000     1.52007799308645
   20     0.00045351682744     0.00012227920539     1.52030156786905     1.52007799308645     0.00000000000000
   21     0.00090285042321     0.00011444065134     0.05527852238453     0.00230598046662     0.01061426068726
   22     0.00002052698265     0.00003490776400     0.00241839779330     0.05592860913978     0.01078550217150
   23     0.00002850292129     0.00003582868342     0.00000301386949     0.00000236319526     0.00000381566724
   24     0.00030492101869     0.00134323963243     0.00034333527969     0.00032216644586     0.00069170778470
   25     0.00209754116267     0.01022803587305     0.00002664846388     0.00002435729113     0.00001695923741
   26     0.05434442303888     0.01011419254019     0.00258831896468     0.00054517976102     0.00022918606312
   27     0.01125834973279     0.05879122184366     0.00000975868170     0.00000544093163     0.00000392924261
   28     0.83255095519702     0.05881567319202     0.00004704130926     0.00000813214531     0.00000900518428
   29     0.05903446664938     0.83554699226365     0.00002159070805     0.00000668676064     0.00000530993560
   30     0.00002748007444     0.00001180139232     0.83308926616197     0.01129938221290     0.05896530109377
   31     0.00000769992548     0.00000481902113     0.01132391242335     0.83362964809511     0.05894372500899
   32     0.00059480730464     0.00037931976655     0.00002485339322     0.00002725988791     0.00001816007981
   33     0.00001269128751     0.00000822724503     0.00000643957711     0.00000642329615     0.00000948528286
   34     0.00001132589844     0.00000486212132     0.05893981711319     0.05888516349220     0.83546709380465

                21                  22                  23                  24                  25

    1     0.00371348858820     0.00522957116577     0.00152912833569     0.07868259803395     0.01686655541801
    2     0.01709075057012     0.01847468829886     0.00028713397698     0.11953159805466     0.00080495094977
    3     0.05551833310169     0.05656109518924     0.00006789043626     0.01162727406062     0.00032930662489
    4     0.81004867128558     0.00944459626487     0.00002097667620     0.00206225711116     0.00005934097586
    5     0.00003745787827     0.00017114969736     0.00010380783410     0.06548137702103     0.00001990268174
    6     0.00918777574034     0.81266809282368     0.00002007146007     0.00329422672785     0.00021414187680
    7     0.00040938953421     0.00085581289618     0.01145676476471     0.14257209517255     0.01005433276765
    8     0.00002013997502     0.00001585365400     0.80983668667304     0.21169288405620     0.00048503179668
    9     0.00005256720582     0.00005028819914     0.01064430780239     0.02220401350640     0.01031898851519
   10     0.00010122275640     0.00032188738700     0.04352067763409     2.01230343291036     0.00078896978164
   11     0.00004712054589     0.00003772291770     0.04127721357461     0.02457211397352     0.00105239396026
   12     0.00279718349839     0.00190664814336     0.00044924203013     0.00449738808207     0.05390158052489
   13     0.00011217618464     0.00049428498138     0.00012875011558     0.00308222060189     0.80462332526469
   14     0.00923121546260     0.00033319742533     0.00010484557583     0.00279298175124     0.00919388150990
   15     0.00010197768494     0.00001841134237     0.00002873320116     0.00036974951658     0.05449756199147
   16     0.00090285042321     0.00002052698265     0.00002850292129     0.00030492101869     0.00209754116267
   17     0.00011444065134     0.00003490776400     0.00003582868342     0.00134323963243     0.01022803587305
   18     0.05527852238453     0.00241839779330     0.00000301386949     0.00034333527969     0.00002664846388
   19     0.00230598046662     0.05592860913978     0.00000236319526     0.00032216644586     0.00002435729113
   20     0.01061426068726     0.01078550217150     0.00000381566724     0.00069170778470     0.00001695923741
   21     0.00000000000000     0.00037822135865     0.00000073516532     0.00005638690388     0.00001508036981
   22     0.00037822135865     0.00000000000000     0.00000066316044     0.00022440422765     0.00001226245112
   23     0.00000073516532     0.00000066316044     0.00000000000000     0.01000679201158     0.00000695278704
   24     0.00005638690388     0.00022440422765     0.01000679201158     0.00000000000000     0.00015253179951
   25     0.00001508036981     0.00001226245112     0.00000695278704     0.00015253179951     0.00000000000000
   26     0.00250243396561     0.00000437970952     0.00000272005287     0.00012694327469     0.00034093499658
   27     0.00001052084172     0.00000370926702     0.00000108666625     0.00002734567235     0.00518834407933
   28     0.00003161732382     0.00000202433347     0.00000078343897     0.00004280473511     0.00023906358290
   29     0.00001536379597     0.00000271238517     0.00000041373931     0.00000455084911     0.00024976333075
   30     0.00516491002367     0.00023511535343     0.00000044874736     0.00003271999867     0.00000055402142
   31     0.00023084315470     0.00510710235940     0.00000032395435     0.00003554216783     0.00000393323696
   32     0.00002103414427     0.00001234131610     0.00046636778352     0.00194474332641     0.00137190937437
   33     0.00000317982596     0.00000278524450     0.00273259560864     0.00156938320252     0.00000654811300
   34     0.00023315779533     0.00023437739961     0.00000013179190     0.00000728795349     0.00000092199237

                26                  27                  28                  29                  30

    1     0.01492368682648     0.00119989607669     0.00118728665744     0.00028232889653     0.00027410808527
    2     0.00559560055079     0.00031116315785     0.00009600496031     0.00005060228792     0.00087865979244
    3     0.00728801894164     0.00005506563629     0.00013712181066     0.00003005992687     0.01076542965959
    4     0.01442978143171     0.00004105110375     0.00029375614362     0.00004501438079     0.06040296243065
    5     0.00010038819415     0.00001875600667     0.00000449434647     0.00000775135651     0.00009346243300
    6     0.00091510448910     0.00002197945590     0.00001946659048     0.00001171747259     0.00242671718192
    7     0.00160498299256     0.00018675525679     0.00034587702564     0.00006860546555     0.00007451176857
    8     0.00004635105027     0.00001204267328     0.00001637277845     0.00000816615195     0.00000235993834
    9     0.00017282249476     0.00012416976368     0.00007989767845     0.00003259377104     0.00001835025597
   10     0.00010045923986     0.00002953835563     0.00007941619876     0.00001680314073     0.00004345485829
   11     0.00002484918201     0.00004107797749     0.00005392826139     0.00000911369597     0.00001474423712
   12     0.05388456605509     0.01066155650241     0.01064016735858     0.00282740718632     0.00008970893953
   13     0.00924397580826     0.06030707559955     0.00251114906116     0.01118816192151     0.00001396692290
   14     0.80269128391508     0.00253759146696     0.06028845893727     0.01118335395521     0.00023823979933
   15     0.00205120356037     0.83303195415933     0.01124902157641     0.05890562813733     0.00000949789569
   16     0.05434442303888     0.01125834973279     0.83255095519702     0.05903446664938     0.00002748007444
   17     0.01011419254019     0.05879122184366     0.05881567319202     0.83554699226365     0.00001180139232
   18     0.00258831896468     0.00000975868170     0.00004704130926     0.00002159070805     0.83308926616197
   19     0.00054517976102     0.00000544093163     0.00000813214531     0.00000668676064     0.01129938221290
   20     0.00022918606312     0.00000392924261     0.00000900518428     0.00000530993560     0.05896530109377
   21     0.00250243396561     0.00001052084172     0.00003161732382     0.00001536379597     0.00516491002367
   22     0.00000437970952     0.00000370926702     0.00000202433347     0.00000271238517     0.00023511535343
   23     0.00000272005287     0.00000108666625     0.00000078343897     0.00000041373931     0.00000044874736
   24     0.00012694327469     0.00002734567235     0.00004280473511     0.00000455084911     0.00003271999867
   25     0.00034093499658     0.00518834407933     0.00023906358290     0.00024976333075     0.00000055402142
   26     0.00000000000000     0.00023878502476     0.00531860747676     0.00023710653165     0.00004576502858
   27     0.00023878502476     0.00000000000000     0.00025248693656     0.00519345445580     0.00000020938546
   28     0.00531860747676     0.00025248693656     0.00000000000000     0.00520321345681     0.00000119151562
   29     0.00023710653165     0.00519345445580     0.00520321345681     0.00000000000000     0.00000066752504
   30     0.00004576502858     0.00000020938546     0.00000119151562     0.00000066752504     0.00000000000000
   31     0.00001198861910     0.00000164542008     0.00000092055781     0.00000103172598     0.00026853218798
   32     0.00000186827262     0.00004170891145     0.00000229205147     0.00000902007564     0.00000081728237
   33     0.00000614786511     0.00000438413170     0.00000107795834     0.00000069386409     0.00000119838067
   34     0.00000756007619     0.00000024857521     0.00000155610405     0.00000060781631     0.00522152414744

                31                  32                  33                  34

    1     0.00033065288614     0.01017913256564     0.00166613129197     0.00003989299822
    2     0.00086346117999     0.00019347614574     0.00038073589319     0.00022921560098
    3     0.01060647891825     0.00010890540240     0.00011765043972     0.00301492381492
    4     0.00242244723711     0.00007045375927     0.00003187055568     0.01131093700324
    5     0.00006435351228     0.00005717104940     0.00018033541673     0.00002272028709
    6     0.06032216755860     0.00006993906604     0.00003889437518     0.01134404387191
    7     0.00014599721373     0.04762999142830     0.01384214390220     0.00001404353615
    8     0.00000429040038     0.01113307244476     0.05484766408947     0.00000135810004
    9     0.00002184452951     0.81368065885558     0.05861810689118     0.00000280635450
   10     0.00006356717146     0.00939582191787     0.01213918901852     0.00000703727669
   11     0.00004661663301     0.05901442729421     0.83557737926563     0.00000122564604
   12     0.00007906824003     0.00845338431725     0.00030669031433     0.00001962612956
   13     0.00001729123551     0.01281796081329     0.00020873619508     0.00000795786605
   14     0.00005619738057     0.00124117088119     0.00006601115070     0.00004627407896
   15     0.00000721426681     0.00239461036731     0.00002067194705     0.00000385664353
   16     0.00000769992548     0.00059480730464     0.00001269128751     0.00001132589844
   17     0.00000481902113     0.00037931976655     0.00000822724503     0.00000486212132
   18     0.01132391242335     0.00002485339322     0.00000643957711     0.05893981711319
   19     0.83362964809511     0.00002725988791     0.00000642329615     0.05888516349220
   20     0.05894372500899     0.00001816007981     0.00000948528286     0.83546709380465
   21     0.00023084315470     0.00002103414427     0.00000317982596     0.00023315779533
   22     0.00510710235940     0.00001234131610     0.00000278524450     0.00023437739961
   23     0.00000032395435     0.00046636778352     0.00273259560864     0.00000013179190
   24     0.00003554216783     0.00194474332641     0.00156938320252     0.00000728795349
   25     0.00000393323696     0.00137190937437     0.00000654811300     0.00000092199237
   26     0.00001198861910     0.00000186827262     0.00000614786511     0.00000756007619
   27     0.00000164542008     0.00004170891145     0.00000438413170     0.00000024857521
   28     0.00000092055781     0.00000229205147     0.00000107795834     0.00000155610405
   29     0.00000103172598     0.00000902007564     0.00000069386409     0.00000060781631
   30     0.00026853218798     0.00000081728237     0.00000119838067     0.00522152414744
   31     0.00000000000000     0.00000023207375     0.00000078956455     0.00520759485132
   32     0.00000023207375     0.00000000000000     0.00250430781874     0.00000013962608
   33     0.00000078956455     0.00250430781874     0.00000000000000     0.00000021615925
   34     0.00520759485132     0.00000013962608     0.00000021615925     0.00000000000000



  Atomic Valences: 

 #  #
 Irrep: 1
      1:    4.794987317989423
      2:    4.188368727949583
      3:    4.793924736385156
      4:    4.499022823045775
      5:    0.925641137003357
      6:    4.465090891810005
      7:    4.634721436115099
      8:    4.060261675808869
      9:    4.426501254749692
     10:    5.051762392052031
     11:    4.449641394149798
     12:    4.716023405093239
     13:    4.501462922851986
     14:    4.504317067786008
     15:    4.451261277837411
     16:    4.450793104367512
     17:    4.452484248574771
     18:    4.456497796113156
     19:    4.450029889649608
     20:    4.455233509290782
     21:    0.986349009293774
     22:    0.981991342803535
     23:    0.932769769335075
     24:    2.722003016864254
     25:    0.983192606802732
     26:    0.989739615994042
     27:    0.989612302992361
     28:    0.989530865884661
     29:    0.990200953615752
     30:    0.989713058731699
     31:    0.989831932711253
     32:    0.983861358797173
     33:    0.984918785172343
     34:    0.990289505926239


    Psi4 stopped on: Thursday, 09 June 2022 06:40AM
    Psi4 wall time for execution: 0:06:43.95

*** Psi4 exiting successfully. Buy a developer a beer!
