
    -----------------------------------------------------------------------
          Psi4: An Open-Source Ab Initio Electronic Structure Package
                               Psi4 1.5 release

                         Git: Rev {HEAD} e9f4d6d 


    D. G. A. Smith, L. A. Burns, A. C. Simmonett, R. M. Parrish,
    M. C. Schieber, R. Galvelis, P. Kraus, H. Kruse, R. Di Remigio,
    A. Alenaizan, A. M. James, S. Lehtola, J. P. Misiewicz, M. Scheurer,
    R. A. Shaw, J. B. Schriber, Y. Xie, Z. L. Glick, D. A. Sirianni,
    J. S. O'Brien, J. M. Waldrop, A. Kumar, E. G. Hohenstein,
    B. P. Pritchard, B. R. Brooks, H. F. Schaefer III, A. Yu. Sokolov,
    K. Patkowski, A. E. DePrince III, U. Bozkaya, R. A. King,
    F. A. Evangelista, J. M. Turney, T. D. Crawford, C. D. Sherrill,
    J. Chem. Phys. 152(18) 184108 (2020). https://doi.org/10.1063/5.0006002

                            Additional Code Authors
    E. T. Seidl, C. L. Janssen, E. F. Valeev, M. L. Leininger,
    J. F. Gonthier, R. M. Richard, H. R. McAlexander, M. Saitow, X. Wang,
    P. Verma, M. H. Lechner, and A. Jiang

             Previous Authors, Complete List of Code Contributors,
                       and Citations for Specific Modules
    https://github.com/psi4/psi4/blob/master/codemeta.json
    https://github.com/psi4/psi4/graphs/contributors
    http://psicode.org/psi4manual/master/introduction.html#citing-psifour

    -----------------------------------------------------------------------


    Psi4 started on: Thursday, 09 June 2022 06:27AM

    Process ID: 1294160
    Host:       node74.bme.utexas.edu
    PSIDATADIR: /home/bdw2292/miniconda3/envs/newamoebamdpoltype/share/psi4
    Memory:     500.0 MiB
    Threads:    1
    
  ==> Input File <==

--------------------------------------------------------------------------
molecule { 
0 1
 C   -0.571687   -0.293925    0.392194
 N    0.629558   -0.914688    0.558318
 C    1.856409   -0.534854   -0.060439
 C    2.529393   -1.445293   -0.875593
 H    0.652428   -1.597409    1.320586
 C    2.367174    0.751215    0.116326
 C   -1.599113   -0.570068    1.268802
 N   -2.648812   -1.492131    3.045916
 C   -2.987276   -0.128987    1.285559
 C   -1.428585   -1.469408    2.404822
 C   -3.582191   -0.693120    2.361090
 C   -0.736033    0.655659   -0.738238
 C   -1.270170    1.929320   -0.518352
 C   -0.370975    0.281948   -2.036726
 C   -1.420921    2.820618   -1.577606
 C   -0.528788    1.170984   -3.093684
 C   -1.049700    2.444081   -2.866325
 C    3.718887   -1.074468   -1.497358
 C    3.546618    1.124193   -0.520968
 C    4.226552    0.212453   -1.326804
 H    2.113921   -2.433971   -1.015663
 H    1.833735    1.449127    0.746385
 H   -2.823310   -2.039062    3.866518
 O   -0.402600   -2.123552    2.752170
 H   -1.546338    2.223156    0.485116
 H    0.034781   -0.703747   -2.214571
 H   -1.822186    3.808171   -1.395229
 H   -0.243142    0.871589   -4.092588
 H   -1.164526    3.137574   -3.688161
 H    4.241003   -1.784726   -2.123841
 H    3.935316    2.123927   -0.384610
 H   -3.459426    0.515798    0.565771
 H   -4.594841   -0.610837    2.712438
 H    5.144785    0.502404   -1.818542
}
memory 8.166666666666666GB
set_num_threads(2)
psi4_io.set_default_path("/scratch/bdw2292/Psi4-1_16_Index_0-farH_in17")
set freeze_core True
E, wfn = energy('wb97x-d/6-311+G*',return_wfn=True)
oeprop(wfn,"WIBERG_LOWDIN_INDICES")
clean()
--------------------------------------------------------------------------

  Memory set to   7.606 GiB by Python driver.
  Threads set to 2 by Python driver.

Scratch directory: /scratch/bdw2292/Psi4-1_16_Index_0-farH_in17/

Scratch directory: /scratch/bdw2292/Psi4-1_16_Index_0-farH_in17/

*** tstart() called on node74.bme.utexas.edu
*** at Thu Jun  9 06:27:02 2022

   => Loading Basis Set <=

    Name: 6-311+G*
    Role: ORBITAL
    Keyword: BASIS
    atoms 1, 3-4, 6-7, 9-20 entry C          line   130 file /home/bdw2292/miniconda3/envs/newamoebamdpoltype/share/psi4/basis/6-311pgs.gbs 
    atoms 2, 8              entry N          line   151 file /home/bdw2292/miniconda3/envs/newamoebamdpoltype/share/psi4/basis/6-311pgs.gbs 
    atoms 5, 21-23, 25-34   entry H          line    47 file /home/bdw2292/miniconda3/envs/newamoebamdpoltype/share/psi4/basis/6-311pgs.gbs 
    atoms 24                entry O          line   172 file /home/bdw2292/miniconda3/envs/newamoebamdpoltype/share/psi4/basis/6-311pgs.gbs 

   => WB97X-D: Empirical Dispersion <=

    Chai and Head-Gordon Dispersion Correction
    Chai, J.-D.; Head-Gordon, M. (2010), J. Chem. Phys., 132: 6615-6620

        s6 =       1.000000


         ---------------------------------------------------------
                                   SCF
               by Justin Turney, Rob Parrish, Andy Simmonett
                          and Daniel G. A. Smith
                              RKS Reference
                        2 Threads,   7788 MiB Core
         ---------------------------------------------------------

  ==> Geometry <==

    Molecular point group: c1
    Full point group: C1

    Geometry (in Angstrom), charge = 0, multiplicity = 1:

       Center              X                  Y                   Z               Mass       
    ------------   -----------------  -----------------  -----------------  -----------------
         C           -0.571687102886    -0.293925048745     0.392193890834    12.000000000000
         N            0.629557897114    -0.914688048745     0.558317890834    14.003074004430
         C            1.856408897114    -0.534854048745    -0.060439109166    12.000000000000
         C            2.529392897114    -1.445293048745    -0.875593109166    12.000000000000
         H            0.652427897114    -1.597409048745     1.320585890834     1.007825032230
         C            2.367173897114     0.751214951255     0.116325890834    12.000000000000
         C           -1.599113102886    -0.570068048745     1.268801890834    12.000000000000
         N           -2.648812102886    -1.492131048745     3.045915890834    14.003074004430
         C           -2.987276102886    -0.128987048745     1.285558890834    12.000000000000
         C           -1.428585102886    -1.469408048745     2.404821890834    12.000000000000
         C           -3.582191102886    -0.693120048745     2.361089890834    12.000000000000
         C           -0.736033102886     0.655658951255    -0.738238109166    12.000000000000
         C           -1.270170102886     1.929319951255    -0.518352109166    12.000000000000
         C           -0.370975102886     0.281947951255    -2.036726109166    12.000000000000
         C           -1.420921102886     2.820617951255    -1.577606109166    12.000000000000
         C           -0.528788102886     1.170983951255    -3.093684109166    12.000000000000
         C           -1.049700102886     2.444080951255    -2.866325109166    12.000000000000
         C            3.718886897114    -1.074468048745    -1.497358109166    12.000000000000
         C            3.546617897114     1.124192951255    -0.520968109166    12.000000000000
         C            4.226551897114     0.212452951255    -1.326804109166    12.000000000000
         H            2.113920897114    -2.433971048745    -1.015663109166     1.007825032230
         H            1.833734897114     1.449126951255     0.746384890834     1.007825032230
         H           -2.823310102886    -2.039062048745     3.866517890834     1.007825032230
         O           -0.402600102886    -2.123552048745     2.752169890834    15.994914619570
         H           -1.546338102886     2.223155951255     0.485115890834     1.007825032230
         H            0.034780897114    -0.703747048745    -2.214571109166     1.007825032230
         H           -1.822186102886     3.808170951255    -1.395229109166     1.007825032230
         H           -0.243142102886     0.871588951255    -4.092588109166     1.007825032230
         H           -1.164526102886     3.137573951255    -3.688161109166     1.007825032230
         H            4.241002897114    -1.784726048745    -2.123841109166     1.007825032230
         H            3.935315897114     2.123926951255    -0.384610109166     1.007825032230
         H           -3.459426102886     0.515797951255     0.565770890834     1.007825032230
         H           -4.594841102886    -0.610837048745     2.712437890834     1.007825032230
         H            5.144784897114     0.502403951255    -1.818542109166     1.007825032230

  Running in c1 symmetry.

  Rotational constants: A =      0.01608  B =      0.00940  C =      0.00658 [cm^-1]
  Rotational constants: A =    481.95182  B =    281.80955  C =    197.20384 [MHz]
  Nuclear repulsion = 1431.795650474136664

  Charge       = 0
  Multiplicity = 1
  Electrons    = 138
  Nalpha       = 69
  Nbeta        = 69

  ==> Algorithm <==

  SCF Algorithm Type is DF.
  DIIS enabled.
  MOM disabled.
  Fractional occupation disabled.
  Guess Type is SAD.
  Energy threshold   = 1.00e-06
  Density threshold  = 1.00e-06
  Integral threshold = 1.00e-12

  ==> Primary Basis <==

  Basis Set: 6-311+G*
    Blend: 6-311+G*
    Number of shells: 242
    Number of basis functions: 482
    Number of Cartesian functions: 502
    Spherical Harmonics?: true
    Max angular momentum: 2

  ==> DFT Potential <==

   => LibXC <=

    Version 5.1.5
    S. Lehtola, C. Steigemann, M. J. Oliveira, and M. A. Marques, SoftwareX 7, 1 (2018) (10.1016/j.softx.2017.11.002)

   => Composite Functional: WB97X-D <= 

    wB97X-D Hyb-GGA Exchange-Correlation Functional

    J.-D. Chai and M. Head-Gordon, Phys. Chem. Chem. Phys. 10, 6615 (2008) (10.1039/B810189B)

    Deriv               =              1
    GGA                 =           TRUE
    Meta                =          FALSE

    Exchange Hybrid     =           TRUE
    MP2 Hybrid          =          FALSE

   => Exchange-Correlation Functionals <=

    1.0000   wB97X-D range-separated functional

   => Exact (HF) Exchange <=

    0.7780            HF,LR [omega = 0.2000]
    0.2220               HF 

   => LibXC Density Thresholds  <==

    XC_HYB_GGA_XC_WB97X_D:  1.00E-14 

   => Molecular Quadrature <=

    Radial Scheme          =       TREUTLER
    Pruning Scheme         =           NONE
    Nuclear Scheme         =       TREUTLER

    BS radius alpha        =              1
    Pruning alpha          =              1
    Radial Points          =             75
    Spherical Points       =            302
    Total Points           =         702751
    Total Blocks           =           5016
    Max Points             =            256
    Max Functions          =            387
    Weights Tolerance      =       1.00E-15

   => Loading Basis Set <=

    Name: (6-311+G* AUX)
    Role: JKFIT
    Keyword: DF_BASIS_SCF
    atoms 1, 3-4, 6-7, 9-20 entry C          line   200 file /home/bdw2292/miniconda3/envs/newamoebamdpoltype/share/psi4/basis/heavy-aug-cc-pvtz-jkfit.gbs 
    atoms 2, 8              entry N          line   262 file /home/bdw2292/miniconda3/envs/newamoebamdpoltype/share/psi4/basis/heavy-aug-cc-pvtz-jkfit.gbs 
    atoms 5, 21-23, 25-34   entry H          line   116 file /home/bdw2292/miniconda3/envs/newamoebamdpoltype/share/psi4/basis/heavy-aug-cc-pvtz-jkfit.gbs 
    atoms 24                entry O          line   324 file /home/bdw2292/miniconda3/envs/newamoebamdpoltype/share/psi4/basis/heavy-aug-cc-pvtz-jkfit.gbs 

  ==> Integral Setup <==

  ==> DiskDFJK: Density-Fitted J/K Matrices <==

    J tasked:                  Yes
    K tasked:                  Yes
    wK tasked:                 Yes
    Omega:               2.000E-01
    OpenMP threads:              2
    Integrals threads:           2
    Memory [MiB]:             1975
    Algorithm:                Disk
    Integral Cache:           NONE
    Schwarz Cutoff:          1E-12
    Fitting Condition:       1E-10

   => Auxiliary Basis Set <=

  Basis Set: (6-311+G* AUX)
    Blend: HEAVY-AUG-CC-PVTZ-JKFIT
    Number of shells: 740
    Number of basis functions: 2500
    Number of Cartesian functions: 3110
    Spherical Harmonics?: true
    Max angular momentum: 4

  Cached 50.0% of DFT collocation blocks in 2.750 [GiB].

  Minimum eigenvalue in the overlap matrix is 2.4447584504E-07.
  Reciprocal condition number of the overlap matrix is 1.4118641832E-08.
    Using symmetric orthogonalization.

  ==> Pre-Iterations <==

  SCF Guess: Superposition of Atomic Densities via on-the-fly atomic UHF (no occupation information).

   -------------------------
    Irrep   Nso     Nmo    
   -------------------------
     A        482     482 
   -------------------------
    Total     482     482
   -------------------------

  ==> Iterations <==

                           Total Energy        Delta E     RMS |[F,P]|

   @DF-RKS iter SAD:  -840.37638136067665   -8.40376e+02   0.00000e+00 
   @DF-RKS iter   1:  -840.06332299666724    3.13058e-01   2.63661e-03 DIIS
   @DF-RKS iter   2:  -840.42872421258903   -3.65401e-01   2.08589e-03 DIIS
   @DF-RKS iter   3:  -840.85976592953966   -4.31042e-01   3.50314e-04 DIIS
   @DF-RKS iter   4:  -840.86831196782066   -8.54604e-03   1.70079e-04 DIIS
   @DF-RKS iter   5:  -840.87080000514857   -2.48804e-03   3.94072e-05 DIIS
   @DF-RKS iter   6:  -840.87094869404712   -1.48689e-04   1.21829e-05 DIIS
   @DF-RKS iter   7:  -840.87096528849395   -1.65944e-05   3.01628e-06 DIIS
   @DF-RKS iter   8:  -840.87096656719552   -1.27870e-06   1.43029e-06 DIIS
   @DF-RKS iter   9:  -840.87096696040010   -3.93205e-07   5.17646e-07 DIIS
  Energy and wave function converged.


  ==> Post-Iterations <==

   Electrons on quadrature grid:
      Ntotal   =  138.0000343406 ; deviation = 3.434e-05 

    Orbital Energies [Eh]
    ---------------------

    Doubly Occupied:                                                      

       1A    -19.202792     2A    -14.464178     3A    -14.462950  
       4A    -10.375500     5A    -10.362864     6A    -10.337943  
       7A    -10.314810     8A    -10.314566     9A    -10.302949  
      10A    -10.302619    11A    -10.301955    12A    -10.300945  
      13A    -10.300264    14A    -10.299216    15A    -10.298431  
      16A    -10.297624    17A    -10.296982    18A    -10.296658  
      19A    -10.280099    20A    -10.277477    21A     -1.120344  
      22A     -1.066220    23A     -1.045647    24A     -0.977657  
      25A     -0.964516    26A     -0.906586    27A     -0.869905  
      28A     -0.861554    29A     -0.859453    30A     -0.853693  
      31A     -0.812288    32A     -0.765593    33A     -0.723817  
      34A     -0.718906    35A     -0.716655    36A     -0.693891  
      37A     -0.678579    38A     -0.665951    39A     -0.636344  
      40A     -0.617554    41A     -0.596954    42A     -0.582117  
      43A     -0.579290    44A     -0.563674    45A     -0.554570  
      46A     -0.545056    47A     -0.536151    48A     -0.524031  
      49A     -0.520034    50A     -0.518184    51A     -0.511821  
      52A     -0.508163    53A     -0.495390    54A     -0.478709  
      55A     -0.474457    56A     -0.469070    57A     -0.452767  
      58A     -0.450559    59A     -0.443607    60A     -0.440612  
      61A     -0.425436    62A     -0.402691    63A     -0.358628  
      64A     -0.345021    65A     -0.341214    66A     -0.337518  
      67A     -0.331637    68A     -0.316524    69A     -0.259543  

    Virtual:                                                              

      70A      0.004220    71A      0.038863    72A      0.044981  
      73A      0.050286    74A      0.053619    75A      0.061959  
      76A      0.065080    77A      0.066468    78A      0.072081  
      79A      0.077104    80A      0.082063    81A      0.087781  
      82A      0.092030    83A      0.096687    84A      0.099905  
      85A      0.106698    86A      0.110425    87A      0.112108  
      88A      0.115637    89A      0.117205    90A      0.125712  
      91A      0.130318    92A      0.131555    93A      0.140396  
      94A      0.141880    95A      0.147462    96A      0.152608  
      97A      0.160922    98A      0.166092    99A      0.169741  
     100A      0.173510   101A      0.175957   102A      0.177257  
     103A      0.181821   104A      0.184400   105A      0.189980  
     106A      0.193725   107A      0.197737   108A      0.203519  
     109A      0.206072   110A      0.207586   111A      0.210700  
     112A      0.212346   113A      0.215456   114A      0.218807  
     115A      0.220202   116A      0.225121   117A      0.226073  
     118A      0.230020   119A      0.232580   120A      0.234580  
     121A      0.241714   122A      0.244118   123A      0.246573  
     124A      0.247439   125A      0.251340   126A      0.254768  
     127A      0.260451   128A      0.261437   129A      0.264708  
     130A      0.266047   131A      0.267194   132A      0.270034  
     133A      0.271927   134A      0.276512   135A      0.277187  
     136A      0.281003   137A      0.283036   138A      0.288531  
     139A      0.292366   140A      0.295483   141A      0.299681  
     142A      0.300422   143A      0.302876   144A      0.306962  
     145A      0.310938   146A      0.312022   147A      0.314916  
     148A      0.316742   149A      0.319548   150A      0.324411  
     151A      0.330465   152A      0.333574   153A      0.334634  
     154A      0.337863   155A      0.343716   156A      0.346826  
     157A      0.353310   158A      0.356134   159A      0.360749  
     160A      0.365837   161A      0.372193   162A      0.376581  
     163A      0.381463   164A      0.386558   165A      0.390183  
     166A      0.392808   167A      0.393383   168A      0.396134  
     169A      0.403481   170A      0.409395   171A      0.416973  
     172A      0.418498   173A      0.422711   174A      0.424010  
     175A      0.426569   176A      0.433688   177A      0.442027  
     178A      0.445429   179A      0.446825   180A      0.455756  
     181A      0.458575   182A      0.469360   183A      0.477969  
     184A      0.495740   185A      0.508552   186A      0.516516  
     187A      0.535018   188A      0.551036   189A      0.555241  
     190A      0.573403   191A      0.587374   192A      0.589965  
     193A      0.601698   194A      0.609003   195A      0.613541  
     196A      0.619610   197A      0.621058   198A      0.630565  
     199A      0.632965   200A      0.641685   201A      0.643047  
     202A      0.649974   203A      0.653795   204A      0.661180  
     205A      0.663814   206A      0.672945   207A      0.679300  
     208A      0.680443   209A      0.694803   210A      0.700505  
     211A      0.705388   212A      0.714222   213A      0.719780  
     214A      0.724887   215A      0.730463   216A      0.738669  
     217A      0.745746   218A      0.756201   219A      0.757935  
     220A      0.763847   221A      0.775114   222A      0.779976  
     223A      0.781254   224A      0.786795   225A      0.793244  
     226A      0.794422   227A      0.805655   228A      0.812301  
     229A      0.817916   230A      0.823644   231A      0.828068  
     232A      0.834177   233A      0.836859   234A      0.843485  
     235A      0.846695   236A      0.850322   237A      0.856834  
     238A      0.860597   239A      0.867941   240A      0.875820  
     241A      0.881130   242A      0.885949   243A      0.887413  
     244A      0.907654   245A      0.910926   246A      0.914347  
     247A      0.927189   248A      0.928475   249A      0.936365  
     250A      0.938267   251A      0.942387   252A      0.949756  
     253A      0.954978   254A      0.960036   255A      0.965375  
     256A      0.978316   257A      0.982317   258A      0.988707  
     259A      1.003893   260A      1.007599   261A      1.027894  
     262A      1.032911   263A      1.044377   264A      1.044996  
     265A      1.057347   266A      1.066437   267A      1.072949  
     268A      1.091872   269A      1.096084   270A      1.105067  
     271A      1.116313   272A      1.123884   273A      1.134639  
     274A      1.141813   275A      1.156338   276A      1.167852  
     277A      1.181655   278A      1.190391   279A      1.197373  
     280A      1.215537   281A      1.233885   282A      1.246592  
     283A      1.257457   284A      1.261014   285A      1.268845  
     286A      1.283241   287A      1.286672   288A      1.287154  
     289A      1.296082   290A      1.306220   291A      1.316445  
     292A      1.329036   293A      1.351423   294A      1.366465  
     295A      1.372870   296A      1.376750   297A      1.384889  
     298A      1.410296   299A      1.415348   300A      1.442494  
     301A      1.449863   302A      1.459280   303A      1.518527  
     304A      1.553451   305A      1.581215   306A      1.591902  
     307A      1.596001   308A      1.608674   309A      1.614243  
     310A      1.618634   311A      1.634863   312A      1.643445  
     313A      1.651290   314A      1.666945   315A      1.675219  
     316A      1.712698   317A      1.733853   318A      1.743933  
     319A      1.763868   320A      1.807295   321A      1.841181  
     322A      1.845941   323A      1.851047   324A      1.864564  
     325A      1.869508   326A      1.876844   327A      1.878746  
     328A      1.895473   329A      1.903096   330A      1.907010  
     331A      1.911759   332A      1.919154   333A      1.930532  
     334A      1.939378   335A      1.947093   336A      1.975772  
     337A      1.980460   338A      1.997407   339A      2.002051  
     340A      2.009805   341A      2.016758   342A      2.030722  
     343A      2.044299   344A      2.058333   345A      2.059345  
     346A      2.077021   347A      2.083270   348A      2.086003  
     349A      2.095702   350A      2.107043   351A      2.113632  
     352A      2.133438   353A      2.157173   354A      2.204449  
     355A      2.242388   356A      2.276255   357A      2.304650  
     358A      2.327956   359A      2.330969   360A      2.338804  
     361A      2.353287   362A      2.366695   363A      2.377022  
     364A      2.384343   365A      2.400829   366A      2.402681  
     367A      2.414915   368A      2.418283   369A      2.451864  
     370A      2.474399   371A      2.484255   372A      2.492807  
     373A      2.514197   374A      2.518880   375A      2.540429  
     376A      2.554082   377A      2.557261   378A      2.568376  
     379A      2.617150   380A      2.657555   381A      2.705879  
     382A      2.751884   383A      2.761325   384A      2.778041  
     385A      2.796282   386A      2.803979   387A      2.828480  
     388A      2.843083   389A      2.860122   390A      2.861196  
     391A      2.883719   392A      2.887942   393A      2.910155  
     394A      2.915857   395A      2.922998   396A      2.941989  
     397A      2.956190   398A      2.973629   399A      2.994362  
     400A      3.002482   401A      3.024615   402A      3.039944  
     403A      3.051457   404A      3.055039   405A      3.065780  
     406A      3.076858   407A      3.102048   408A      3.123561  
     409A      3.142524   410A      3.169322   411A      3.192668  
     412A      3.204862   413A      3.237193   414A      3.259986  
     415A      3.286638   416A      3.320993   417A      3.343552  
     418A      3.394843   419A      3.401974   420A      3.408129  
     421A      3.413377   422A      3.417027   423A      3.421524  
     424A      3.433332   425A      3.444910   426A      3.448548  
     427A      3.454677   428A      3.470128   429A      3.488707  
     430A      3.521454   431A      3.556425   432A      3.585438  
     433A      3.608645   434A      3.636020   435A      3.642461  
     436A      3.665988   437A      3.695131   438A      3.746239  
     439A      3.760477   440A      3.778176   441A      3.785757  
     442A      3.881997   443A      3.916032   444A      3.987111  
     445A      4.013672   446A      4.059867   447A      4.124448  
     448A      4.141255   449A      4.145844   450A      4.185272  
     451A      4.205899   452A      4.357901   453A      4.542089  
     454A      4.653182   455A      4.713447   456A      4.884865  
     457A      4.886508   458A      5.127330   459A      5.205041  
     460A      5.226876   461A      5.408798   462A      5.917380  
     463A     23.505239   464A     23.547644   465A     23.717550  
     466A     23.927861   467A     23.982340   468A     23.996126  
     469A     24.016676   470A     24.029601   471A     24.041801  
     472A     24.147065   473A     24.169343   474A     24.175771  
     475A     24.177499   476A     24.239381   477A     24.278013  
     478A     24.278596   479A     24.289494   480A     35.653885  
     481A     35.738848   482A     50.199121  

    Final Occupation by Irrep:
              A 
    DOCC [    69 ]

  @DF-RKS Final Energy:  -840.87096696040010

   => Energetics <=

    Nuclear Repulsion Energy =           1431.7956504741366643
    One-Electron Energy =               -3982.5203223387879916
    Two-Electron Energy =                1792.5614775682715845
    DFT Exchange-Correlation Energy =     -82.6831018369918809
    Empirical Dispersion Energy =          -0.0246708270287285
    VV10 Nonlocal Energy =                  0.0000000000000000
    Total Energy =                       -840.8709669604000965

Computation Completed


Properties will be evaluated at   0.000000,   0.000000,   0.000000 [a0]

Properties computed using the SCF density matrix

  Nuclear Dipole Moment: [e a0]
     X:     2.1622      Y:     5.1172      Z:    -6.5936

  Electronic Dipole Moment: [e a0]
     X:    -2.3833      Y:    -4.1772      Z:     5.5871

  Dipole Moment: [e a0]
     X:    -0.2212      Y:     0.9401      Z:    -1.0065     Total:     1.3949

  Dipole Moment: [D]
     X:    -0.5621      Y:     2.3895      Z:    -2.5584     Total:     3.5455


*** tstop() called on node74.bme.utexas.edu at Thu Jun  9 06:33:49 2022
Module time:
	user time   =     760.70 seconds =      12.68 minutes
	system time =      28.79 seconds =       0.48 minutes
	total time  =        407 seconds =       6.78 minutes
Total time:
	user time   =     760.70 seconds =      12.68 minutes
	system time =      28.79 seconds =       0.48 minutes
	total time  =        407 seconds =       6.78 minutes


Properties will be evaluated at   0.000000,   0.000000,   0.000000 [a0]
OEProp: No title given, name of density matrix used for the following properties is 'SCF density'


  Wiberg Bond Indices using Orthogonal Lowdin Orbitals:

  Irrep: 1 Size: 34 x 34

                 1                   2                   3                   4                   5

    1     0.00000000000000     1.40198345653067     0.10383868298792     0.02572398966935     0.04238843377154
    2     1.40198345653067     0.00000000000000     1.14593333754647     0.13151849507671     0.72035645314944
    3     0.10383868298792     1.14593333754647     0.00000000000000     1.41941825108961     0.03620923356131
    4     0.02572398966935     0.13151849507671     1.41941825108961     0.00000000000000     0.00993574506736
    5     0.04238843377154     0.72035645314944     0.03620923356131     0.00993574506736     0.00000000000000
    6     0.03867611970507     0.12189726442467     1.40866980964359     0.12944360626706     0.00940502978277
    7     1.42435335403383     0.17860005361525     0.02169273260765     0.00567321810870     0.01329276571219
    8     0.01834821495499     0.00570204156850     0.00071515811164     0.00018850938383     0.00121537114154
    9     0.10953772439216     0.02103854064022     0.00277253400734     0.00073380592088     0.00101701427783
   10     0.13163576674028     0.06487720810729     0.00617804948001     0.00198328270369     0.01274048264078
   11     0.06663250241012     0.02623059946342     0.00249310415238     0.00136988774083     0.00037087531555
   12     1.00907841896235     0.09960821787360     0.03535956306832     0.01058901553880     0.00775779762144
   13     0.11877680925864     0.02044573304918     0.00815916421360     0.00189348403108     0.00096677680453
   14     0.11547656786198     0.03851081334335     0.03259205942817     0.02155745436501     0.00122695180769
   15     0.01672613078072     0.00241345115277     0.00208221525150     0.00101634612013     0.00026214033128
   16     0.01696705544752     0.00362391399660     0.00616908072526     0.00334720354073     0.00009084331556
   17     0.01047724754164     0.00408134274485     0.00168917842418     0.00077587724339     0.00016206677317
   18     0.00354005837016     0.01720825005913     0.13711339841952     1.51997544389334     0.00061867233636
   19     0.00425700741979     0.01652552363956     0.13609224225562     0.14523407393791     0.00066154159034
   20     0.00473409260658     0.01035766469118     0.13877340562297     0.13885997904839     0.00255488270551
   21     0.00276534822088     0.01856541735858     0.05727542439644     0.81420774129011     0.00019464427600
   22     0.00773668045850     0.01651988370295     0.05501875802351     0.00886234410243     0.00002821405107
   23     0.00152656773176     0.00028537375172     0.00006567649780     0.00001743012214     0.00010067764866
   24     0.07900896885984     0.11683707198246     0.01137039797640     0.00268391428241     0.06247817219442
   25     0.01651116432686     0.00075392404526     0.00033414209266     0.00002776759167     0.00002511949922
   26     0.01538338452374     0.00742751502624     0.00923744466256     0.00787109123598     0.00014627271643
   27     0.00118655752882     0.00030431068462     0.00006241038568     0.00003385403765     0.00001906559354
   28     0.00119320909156     0.00009161333739     0.00019731164372     0.00009152155234     0.00000423926921
   29     0.00027728284510     0.00005735530179     0.00003183099008     0.00002251781424     0.00000803138865
   30     0.00033178637344     0.00086494354573     0.01077001268831     0.06031247436867     0.00005056751216
   31     0.00027338658150     0.00086173468940     0.01067964178534     0.00238511721594     0.00012846196874
   32     0.01026691037704     0.00019040920931     0.00010981416478     0.00006156751761     0.00005541269762
   33     0.00168166367731     0.00038716269884     0.00011472230754     0.00003712036710     0.00017299153714
   34     0.00004595206488     0.00022732951412     0.00302649125006     0.01131949579127     0.00002259320092

                 6                   7                   8                   9                  10

    1     0.03867611970507     1.42435335403383     0.01834821495499     0.10953772439216     0.13163576674028
    2     0.12189726442467     0.17860005361525     0.00570204156850     0.02103854064022     0.06487720810729
    3     1.40866980964359     0.02169273260765     0.00071515811164     0.00277253400734     0.00617804948001
    4     0.12944360626706     0.00567321810870     0.00018850938383     0.00073380592088     0.00198328270369
    5     0.00940502978277     0.01329276571219     0.00121537114154     0.00101701427783     0.01274048264078
    6     0.00000000000000     0.00791082625542     0.00026689426489     0.00094704485880     0.00243829214786
    7     0.00791082625542     0.00000000000000     0.13526181242561     1.14952185749461     1.09723103562727
    8     0.00026689426489     0.13526181242561     0.00000000000000     0.19594520430970     1.34498259566785
    9     0.00094704485880     1.14952185749461     0.19594520430970     0.00000000000000     0.13422087495117
   10     0.00243829214786     1.09723103562727     1.34498259566785     0.13422087495117     0.00000000000000
   11     0.00153969672646     0.16630788847233     1.26215264951569     1.80340754992092     0.13990271858618
   12     0.02857797237581     0.11205816675982     0.00267547537280     0.03371326495174     0.01499938115419
   13     0.01302182803994     0.04792816455065     0.00193385199235     0.03808666408661     0.00553045852213
   14     0.01966406035662     0.02782056631036     0.00063949699136     0.00581683555951     0.00403003061711
   15     0.00331891164272     0.00468975836505     0.00030906640004     0.00614264875962     0.00062029878623
   16     0.00534900255274     0.00328367256993     0.00013780787408     0.00161563693639     0.00055020287739
   17     0.00194971350606     0.00717653571215     0.00017557031984     0.00153330906553     0.00143696300617
   18     0.14452231343948     0.00078163891022     0.00002832837211     0.00014205424645     0.00026366837512
   19     1.51536567849994     0.00091802499943     0.00003919616424     0.00015812976543     0.00032707944512
   20     0.13901471941872     0.00160502199289     0.00006283649683     0.00018320316002     0.00060843450493
   21     0.00960189419300     0.00042552033957     0.00001094521288     0.00004591839878     0.00012849842323
   22     0.80308596619414     0.00101491259448     0.00003805869514     0.00011382423480     0.00015147015765
   23     0.00002371051846     0.01148363302986     0.80978809287517     0.01062650607108     0.04350925217443
   24     0.00278419089789     0.14178162428835     0.21208156986270     0.02220374260097     2.02010407486984
   25     0.00078195787796     0.00917499524281     0.00044780738955     0.00992120849240     0.00064350030046
   26     0.00335265933364     0.00160201115953     0.00005218208736     0.00015744973601     0.00010887856202
   27     0.00006374075380     0.00017939041006     0.00001194994526     0.00010520527585     0.00003042717868
   28     0.00010954623453     0.00034941378860     0.00001683231078     0.00007831855733     0.00008024249011
   29     0.00002327118224     0.00006649849154     0.00000774144141     0.00003297101924     0.00001589366338
   30     0.00247017077099     0.00007816344543     0.00000211936155     0.00001965240403     0.00003205344991
   31     0.06044697000591     0.00013017643703     0.00000401711276     0.00001854450814     0.00006294200542
   32     0.00009452839975     0.04796116313116     0.01115974715187     0.81485923581392     0.00948764071154
   33     0.00002807915317     0.01384656472005     0.05480022586463     0.05854492943408     0.01213837665267
   34     0.01132477735358     0.00001881980388     0.00000126077972     0.00000305736857     0.00000714543715

                11                  12                  13                  14                  15

    1     0.06663250241012     1.00907841896235     0.11877680925864     0.11547656786198     0.01672613078072
    2     0.02623059946342     0.09960821787360     0.02044573304918     0.03851081334335     0.00241345115277
    3     0.00249310415238     0.03535956306832     0.00815916421360     0.03259205942817     0.00208221525150
    4     0.00136988774083     0.01058901553880     0.00189348403108     0.02155745436501     0.00101634612013
    5     0.00037087531555     0.00775779762144     0.00096677680453     0.00122695180769     0.00026214033128
    6     0.00153969672646     0.02857797237581     0.01302182803994     0.01966406035662     0.00331891164272
    7     0.16630788847233     0.11205816675982     0.04792816455065     0.02782056631036     0.00468975836505
    8     1.26215264951569     0.00267547537280     0.00193385199235     0.00063949699136     0.00030906640004
    9     1.80340754992092     0.03371326495174     0.03808666408661     0.00581683555951     0.00614264875962
   10     0.13990271858618     0.01499938115419     0.00553045852213     0.00403003061711     0.00062029878623
   11     0.00000000000000     0.00571435933119     0.00643104777969     0.00246317258073     0.00076547613335
   12     0.00571435933119     0.00000000000000     1.40872749583414     1.39463506077650     0.13399898769237
   13     0.00643104777969     1.40872749583414     0.00000000000000     0.12749435880779     1.51421389150446
   14     0.00246317258073     1.39463506077650     0.12749435880779     0.00000000000000     0.14431680266848
   15     0.00076547613335     0.13399898769237     1.51421389150446     0.14431680266848     0.00000000000000
   16     0.00039266154484     0.13399073817765     0.14323341989995     1.51976485521328     0.13742250148053
   17     0.00138793275037     0.13665415245940     0.13878552367591     0.13902416207713     1.52037243772832
   18     0.00014627509965     0.00233588873268     0.00099896402613     0.00654460499281     0.00053416092364
   19     0.00019825296149     0.00537095112978     0.00202760049880     0.00622591493406     0.00060969009789
   20     0.00061243366653     0.00165071276863     0.00062422990900     0.00293272152135     0.00041101297852
   21     0.00007049231137     0.00075667943940     0.00003642390297     0.00247753150948     0.00002326358958
   22     0.00001805132592     0.00713009412091     0.00394235231955     0.00276022194930     0.00050959985406
   23     0.04126373835347     0.00044852352480     0.00012253238765     0.00010240975128     0.00002645824898
   24     0.02444285573924     0.00434236986213     0.00304763860725     0.00296348800332     0.00035779081484
   25     0.00092977709727     0.05456594388039     0.80518773416671     0.00924520110884     0.05446112655460
   26     0.00003053002756     0.05371987442958     0.00902833680619     0.79895225270415     0.00199572888938
   27     0.00003925192212     0.01068941958499     0.06009761690693     0.00254474936958     0.83320191512054
   28     0.00005277895704     0.01064973102155     0.00248017900684     0.06041244603071     0.01118371741764
   29     0.00000889328565     0.00285930664604     0.01119829227386     0.01121467590941     0.05897353623060
   30     0.00001151168441     0.00007979396362     0.00002623661421     0.00010391076336     0.00000883073298
   31     0.00004370759494     0.00015137799988     0.00003191617738     0.00012574842562     0.00001240169093
   32     0.05922832819076     0.00812444967359     0.01219200275389     0.00102127163974     0.00196355982113
   33     0.83561226224947     0.00029935799109     0.00019385208337     0.00006317880475     0.00001926680597
   34     0.00000222839177     0.00002584775908     0.00001889834523     0.00003004189864     0.00001062847564

                16                  17                  18                  19                  20

    1     0.01696705544752     0.01047724754164     0.00354005837016     0.00425700741979     0.00473409260658
    2     0.00362391399660     0.00408134274485     0.01720825005913     0.01652552363956     0.01035766469118
    3     0.00616908072526     0.00168917842418     0.13711339841952     0.13609224225562     0.13877340562297
    4     0.00334720354073     0.00077587724339     1.51997544389334     0.14523407393791     0.13885997904839
    5     0.00009084331556     0.00016206677317     0.00061867233636     0.00066154159034     0.00255488270551
    6     0.00534900255274     0.00194971350606     0.14452231343948     1.51536567849994     0.13901471941872
    7     0.00328367256993     0.00717653571215     0.00078163891022     0.00091802499943     0.00160502199289
    8     0.00013780787408     0.00017557031984     0.00002832837211     0.00003919616424     0.00006283649683
    9     0.00161563693639     0.00153330906553     0.00014205424645     0.00015812976543     0.00018320316002
   10     0.00055020287739     0.00143696300617     0.00026366837512     0.00032707944512     0.00060843450493
   11     0.00039266154484     0.00138793275037     0.00014627509965     0.00019825296149     0.00061243366653
   12     0.13399073817765     0.13665415245940     0.00233588873268     0.00537095112978     0.00165071276863
   13     0.14323341989995     0.13878552367591     0.00099896402613     0.00202760049880     0.00062422990900
   14     1.51976485521328     0.13902416207713     0.00654460499281     0.00622591493406     0.00293272152135
   15     0.13742250148053     1.52037243772832     0.00053416092364     0.00060969009789     0.00041101297852
   16     0.00000000000000     1.51110428156898     0.00113683654666     0.00184796014336     0.00094508843219
   17     1.51110428156898     0.00000000000000     0.00042335475021     0.00064290796735     0.00030638820032
   18     0.00113683654666     0.00042335475021     0.00000000000000     0.13778332727037     1.51825414183475
   19     0.00184796014336     0.00064290796735     0.13778332727037     0.00000000000000     1.51760248768561
   20     0.00094508843219     0.00030638820032     1.51825414183475     1.51760248768561     0.00000000000000
   21     0.00010448338774     0.00003167567978     0.05625543276509     0.00239631010185     0.01083104063873
   22     0.00037741505450     0.00022115081702     0.00222069814422     0.05451562082519     0.01040210055810
   23     0.00002851472558     0.00003416793892     0.00000260178486     0.00000274413043     0.00000390270564
   24     0.00032072292667     0.00148613359651     0.00024330730348     0.00032922781192     0.00107760968919
   25     0.00205840232049     0.01021954143824     0.00002459274690     0.00003955214042     0.00001513896450
   26     0.05398610488518     0.01008573937665     0.00156704278705     0.00074862362899     0.00037585182307
   27     0.01124828713946     0.05884622998710     0.00001008373141     0.00001170367987     0.00000982842399
   28     0.83239422880701     0.05874218540722     0.00002552295470     0.00004246332458     0.00001815198231
   29     0.05887131149470     0.83545611107427     0.00001999523760     0.00001936314885     0.00000453465177
   30     0.00001831306609     0.00000707987166     0.83367329327652     0.01129891367486     0.05883702965794
   31     0.00003746723743     0.00001059759413     0.01131164769378     0.83300415161286     0.05886803968700
   32     0.00053334991791     0.00032051114722     0.00002235314374     0.00003495007609     0.00001847282815
   33     0.00001284525701     0.00000828694023     0.00000709069659     0.00000641273242     0.00000659513626
   34     0.00001921304779     0.00000525614428     0.05899743962633     0.05894424606469     0.83537991455359

                21                  22                  23                  24                  25

    1     0.00276534822088     0.00773668045850     0.00152656773176     0.07900896885984     0.01651116432686
    2     0.01856541735858     0.01651988370295     0.00028537375172     0.11683707198246     0.00075392404526
    3     0.05727542439644     0.05501875802351     0.00006567649780     0.01137039797640     0.00033414209266
    4     0.81420774129011     0.00886234410243     0.00001743012214     0.00268391428241     0.00002776759167
    5     0.00019464427600     0.00002821405107     0.00010067764866     0.06247817219442     0.00002511949922
    6     0.00960189419300     0.80308596619414     0.00002371051846     0.00278419089789     0.00078195787796
    7     0.00042552033957     0.00101491259448     0.01148363302986     0.14178162428835     0.00917499524281
    8     0.00001094521288     0.00003805869514     0.80978809287517     0.21208156986270     0.00044780738955
    9     0.00004591839878     0.00011382423480     0.01062650607108     0.02220374260097     0.00992120849240
   10     0.00012849842323     0.00015147015765     0.04350925217443     2.02010407486984     0.00064350030046
   11     0.00007049231137     0.00001805132592     0.04126373835347     0.02444285573924     0.00092977709727
   12     0.00075667943940     0.00713009412091     0.00044852352480     0.00434236986213     0.05456594388039
   13     0.00003642390297     0.00394235231955     0.00012253238765     0.00304763860725     0.80518773416671
   14     0.00247753150948     0.00276022194930     0.00010240975128     0.00296348800332     0.00924520110884
   15     0.00002326358958     0.00050959985406     0.00002645824898     0.00035779081484     0.05446112655460
   16     0.00010448338774     0.00037741505450     0.00002851472558     0.00032072292667     0.00205840232049
   17     0.00003167567978     0.00022115081702     0.00003416793892     0.00148613359651     0.01021954143824
   18     0.05625543276509     0.00222069814422     0.00000260178486     0.00024330730348     0.00002459274690
   19     0.00239631010185     0.05451562082519     0.00000274413043     0.00032922781192     0.00003955214042
   20     0.01083104063873     0.01040210055810     0.00000390270564     0.00107760968919     0.00001513896450
   21     0.00000000000000     0.00038872099123     0.00000061007487     0.00011566763240     0.00001059107902
   22     0.00038872099123     0.00000000000000     0.00000159495814     0.00013334987516     0.00018355168793
   23     0.00000061007487     0.00000159495814     0.00000000000000     0.00995145092010     0.00000724330924
   24     0.00011566763240     0.00013334987516     0.00995145092010     0.00000000000000     0.00015475181704
   25     0.00001059107902     0.00018355168793     0.00000724330924     0.00015475181704     0.00000000000000
   26     0.00038538353382     0.00006126317401     0.00000262069743     0.00016285142840     0.00033352663804
   27     0.00000149279495     0.00000081076197     0.00000085875964     0.00002618608020     0.00515176969828
   28     0.00000441434407     0.00000029757497     0.00000095440332     0.00004257468361     0.00024200420470
   29     0.00000508049502     0.00000325538548     0.00000035162125     0.00000453690888     0.00024796820761
   30     0.00514488108742     0.00021735795478     0.00000036738712     0.00001690023616     0.00000033700064
   31     0.00023500196495     0.00516809634874     0.00000046278301     0.00005112321699     0.00000273235982
   32     0.00001108402760     0.00002522982180     0.00045961320648     0.00195869987358     0.00127840026533
   33     0.00000189903182     0.00000422129761     0.00273182230502     0.00157932273917     0.00000855257950
   34     0.00023091402159     0.00023216129841     0.00000016077223     0.00000834832295     0.00000176089914

                26                  27                  28                  29                  30

    1     0.01538338452374     0.00118655752882     0.00119320909156     0.00027728284510     0.00033178637344
    2     0.00742751502624     0.00030431068462     0.00009161333739     0.00005735530179     0.00086494354573
    3     0.00923744466256     0.00006241038568     0.00019731164372     0.00003183099008     0.01077001268831
    4     0.00787109123598     0.00003385403765     0.00009152155234     0.00002251781424     0.06031247436867
    5     0.00014627271643     0.00001906559354     0.00000423926921     0.00000803138865     0.00005056751216
    6     0.00335265933364     0.00006374075380     0.00010954623453     0.00002327118224     0.00247017077099
    7     0.00160201115953     0.00017939041006     0.00034941378860     0.00006649849154     0.00007816344543
    8     0.00005218208736     0.00001194994526     0.00001683231078     0.00000774144141     0.00000211936155
    9     0.00015744973601     0.00010520527585     0.00007831855733     0.00003297101924     0.00001965240403
   10     0.00010887856202     0.00003042717868     0.00008024249011     0.00001589366338     0.00003205344991
   11     0.00003053002756     0.00003925192212     0.00005277895704     0.00000889328565     0.00001151168441
   12     0.05371987442958     0.01068941958499     0.01064973102155     0.00285930664604     0.00007979396362
   13     0.00902833680619     0.06009761690693     0.00248017900684     0.01119829227386     0.00002623661421
   14     0.79895225270415     0.00254474936958     0.06041244603071     0.01121467590941     0.00010391076336
   15     0.00199572888938     0.83320191512054     0.01118371741764     0.05897353623060     0.00000883073298
   16     0.05398610488518     0.01124828713946     0.83239422880701     0.05887131149470     0.00001831306609
   17     0.01008573937665     0.05884622998710     0.05874218540722     0.83545611107427     0.00000707987166
   18     0.00156704278705     0.00001008373141     0.00002552295470     0.00001999523760     0.83367329327652
   19     0.00074862362899     0.00001170367987     0.00004246332458     0.00001936314885     0.01129891367486
   20     0.00037585182307     0.00000982842399     0.00001815198231     0.00000453465177     0.05883702965794
   21     0.00038538353382     0.00000149279495     0.00000441434407     0.00000508049502     0.00514488108742
   22     0.00006126317401     0.00000081076197     0.00000029757497     0.00000325538548     0.00021735795478
   23     0.00000262069743     0.00000085875964     0.00000095440332     0.00000035162125     0.00000036738712
   24     0.00016285142840     0.00002618608020     0.00004257468361     0.00000453690888     0.00001690023616
   25     0.00033352663804     0.00515176969828     0.00024200420470     0.00024796820761     0.00000033700064
   26     0.00000000000000     0.00023193626215     0.00526040695070     0.00024230477049     0.00001175497418
   27     0.00023193626215     0.00000000000000     0.00025017640498     0.00522401955591     0.00000011274029
   28     0.00526040695070     0.00025017640498     0.00000000000000     0.00519586107664     0.00000173749117
   29     0.00024230477049     0.00522401955591     0.00519586107664     0.00000000000000     0.00000008080457
   30     0.00001175497418     0.00000011274029     0.00000173749117     0.00000008080457     0.00000000000000
   31     0.00000084818350     0.00000217108668     0.00000133402278     0.00000238412268     0.00026792310248
   32     0.00000172333572     0.00002913284074     0.00000323853597     0.00001079650796     0.00000061407991
   33     0.00000690576838     0.00000387065702     0.00000113881437     0.00000062212226     0.00000147609804
   34     0.00000221244818     0.00000002690824     0.00000146464104     0.00000054035944     0.00521431901513

                31                  32                  33                  34

    1     0.00027338658150     0.01026691037704     0.00168166367731     0.00004595206488
    2     0.00086173468940     0.00019040920931     0.00038716269884     0.00022732951412
    3     0.01067964178534     0.00010981416478     0.00011472230754     0.00302649125006
    4     0.00238511721594     0.00006156751761     0.00003712036710     0.01131949579127
    5     0.00012846196874     0.00005541269762     0.00017299153714     0.00002259320092
    6     0.06044697000591     0.00009452839975     0.00002807915317     0.01132477735358
    7     0.00013017643703     0.04796116313116     0.01384656472005     0.00001881980388
    8     0.00000401711276     0.01115974715187     0.05480022586463     0.00000126077972
    9     0.00001854450814     0.81485923581392     0.05854492943408     0.00000305736857
   10     0.00006294200542     0.00948764071154     0.01213837665267     0.00000714543715
   11     0.00004370759494     0.05922832819076     0.83561226224947     0.00000222839177
   12     0.00015137799988     0.00812444967359     0.00029935799109     0.00002584775908
   13     0.00003191617738     0.01219200275389     0.00019385208337     0.00001889834523
   14     0.00012574842562     0.00102127163974     0.00006317880475     0.00003004189864
   15     0.00001240169093     0.00196355982113     0.00001926680597     0.00001062847564
   16     0.00003746723743     0.00053334991791     0.00001284525701     0.00001921304779
   17     0.00001059759413     0.00032051114722     0.00000828694023     0.00000525614428
   18     0.01131164769378     0.00002235314374     0.00000709069659     0.05899743962633
   19     0.83300415161286     0.00003495007609     0.00000641273242     0.05894424606469
   20     0.05886803968700     0.00001847282815     0.00000659513626     0.83537991455359
   21     0.00023500196495     0.00001108402760     0.00000189903182     0.00023091402159
   22     0.00516809634874     0.00002522982180     0.00000422129761     0.00023216129841
   23     0.00000046278301     0.00045961320648     0.00273182230502     0.00000016077223
   24     0.00005112321699     0.00195869987358     0.00157932273917     0.00000834832295
   25     0.00000273235982     0.00127840026533     0.00000855257950     0.00000176089914
   26     0.00000084818350     0.00000172333572     0.00000690576838     0.00000221244818
   27     0.00000217108668     0.00002913284074     0.00000387065702     0.00000002690824
   28     0.00000133402278     0.00000323853597     0.00000113881437     0.00000146464104
   29     0.00000238412268     0.00001079650796     0.00000062212226     0.00000054035944
   30     0.00026792310248     0.00000061407991     0.00000147609804     0.00521431901513
   31     0.00000000000000     0.00000089893201     0.00000050982139     0.00520200137738
   32     0.00000089893201     0.00000000000000     0.00251811167534     0.00000031078189
   33     0.00000050982139     0.00251811167534     0.00000000000000     0.00000018706834
   34     0.00520200137738     0.00000031078189     0.00000018706834     0.00000000000000



  Atomic Valences: 

 #  #
 Irrep: 1
      1:    4.801340496106543
      2:    4.194286405521246
      3:    4.804245279461956
      4:    4.477171626036352
      5:    0.924667541259984
      6:    4.486170246777704
      7:    4.634219981405718
      8:    4.059202631418672
      9:    4.423264461220125
     10:    5.051057220017279
     11:    4.450273491282714
     12:    4.731338390478260
     13:    4.506883478836588
     14:    4.502753618081459
     15:    4.452973753044472
     16:    4.450983422111218
     17:    4.453633612528186
     18:    4.456732482491064
     19:    4.453281873359103
     20:    4.455941668545155
     21:    0.982740426514222
     22:    0.981087328313682
     23:    0.932620625170524
     24:    2.724150635904472
     25:    0.982991787023477
     26:    0.982532712566297
     27:    0.989618562211032
     28:    0.989219256333496
     29:    0.990107216028616
     30:    0.989874719197751
     31:    0.989523535346558
     32:    0.984003532251122
     33:    0.984839625087955
     34:    0.990325044785164


    Psi4 stopped on: Thursday, 09 June 2022 06:33AM
    Psi4 wall time for execution: 0:06:47.73

*** Psi4 exiting successfully. Buy a developer a beer!
