
    -----------------------------------------------------------------------
          Psi4: An Open-Source Ab Initio Electronic Structure Package
                               Psi4 1.3.2 release

                         Git: Rev {HEAD} ecbda83 


    R. M. Parrish, L. A. Burns, D. G. A. Smith, A. C. Simmonett,
    A. E. DePrince III, E. G. Hohenstein, U. Bozkaya, A. Yu. Sokolov,
    R. Di Remigio, R. M. Richard, J. F. Gonthier, A. M. James,
    H. R. McAlexander, A. Kumar, M. Saitow, X. Wang, B. P. Pritchard,
    P. Verma, H. F. Schaefer III, K. Patkowski, R. A. King, E. F. Valeev,
    F. A. Evangelista, J. M. Turney, T. D. Crawford, and C. D. Sherrill,
    J. Chem. Theory Comput. 13(7) pp 3185--3197 (2017).
    (doi: 10.1021/acs.jctc.7b00174)


                         Additional Contributions by
    P. Kraus, H. Kruse, M. H. Lechner, M. C. Schieber, R. A. Shaw,
    A. Alenaizan, R. Galvelis, Z. L. Glick, S. Lehtola, and J. P. Misiewicz

    -----------------------------------------------------------------------


    Psi4 started on: Monday, 21 September 2020 02:18PM

    Process ID: 19554
    Host:       node37.bme.utexas.edu
    PSIDATADIR: /home/bdw2292/miniconda3/envs/p4env/share/psi4
    Memory:     500.0 MiB
    Threads:    1
    
  ==> Input File <==

--------------------------------------------------------------------------
molecule { 
0 1
O            0.581360737471    -1.174787187362     0.048614241112
N            0.778572705758     1.077397303647    -0.061956592736
C           -1.454601013884     0.103783932951     0.005638870371
C            0.053374188836    -0.079143874023     0.001738607614
H           -1.904533022802    -0.698688988235    -0.581326830704
H           -1.819284319149     0.010348398503     1.033938863972
H           -1.774570837155     1.071369831252    -0.390694185757
H            1.783065025183     1.008510705361    -0.012459797748
H            0.355112237649     1.990064762999    -0.047997100286
}
memory 700MB
set_num_threads(1)
psi4_io.set_default_path("/scratch/bdw2292")
set freeze_core True
set PROPERTIES_ORIGIN ["COM"]
E, wfn = energy('mp2/6-311G**',properties=['dipole'],return_wfn=True)
fchk(wfn, "acetamide-dma.fchk")
clean()
--------------------------------------------------------------------------

  Memory set to 667.572 MiB by Python driver.
  Threads set to 1 by Python driver.
    SCF Algorithm Type (re)set to DF.

*** tstart() called on node37.bme.utexas.edu
*** at Mon Sep 21 14:18:45 2020

   => Loading Basis Set <=

    Name: 6-311G**
    Role: ORBITAL
    Keyword: BASIS
    atoms 1   entry O          line   151 file /home/bdw2292/miniconda3/envs/p4env/share/psi4/basis/6-311gss.gbs 
    atoms 2   entry N          line   132 file /home/bdw2292/miniconda3/envs/p4env/share/psi4/basis/6-311gss.gbs 
    atoms 3-4 entry C          line   113 file /home/bdw2292/miniconda3/envs/p4env/share/psi4/basis/6-311gss.gbs 
    atoms 5-9 entry H          line    32 file /home/bdw2292/miniconda3/envs/p4env/share/psi4/basis/6-311gss.gbs 


         ---------------------------------------------------------
                                   SCF
               by Justin Turney, Rob Parrish, Andy Simmonett
                          and Daniel G. A. Smith
                              RHF Reference
                        1 Threads,    667 MiB Core
         ---------------------------------------------------------

  ==> Geometry <==

    Molecular point group: c1
    Full point group: C1

    Geometry (in Angstrom), charge = 0, multiplicity = 1:

       Center              X                  Y                   Z               Mass       
    ------------   -----------------  -----------------  -----------------  -----------------
         O            0.581360737471    -1.174787187362     0.048614241112    15.994914619570
         N            0.778572705758     1.077397303647    -0.061956592736    14.003074004430
         C           -1.454601013884     0.103783932951     0.005638870371    12.000000000000
         C            0.053374188836    -0.079143874023     0.001738607614    12.000000000000
         H           -1.904533022802    -0.698688988235    -0.581326830704     1.007825032230
         H           -1.819284319149     0.010348398503     1.033938863972     1.007825032230
         H           -1.774570837155     1.071369831252    -0.390694185757     1.007825032230
         H            1.783065025183     1.008510705361    -0.012459797748     1.007825032230
         H            0.355112237649     1.990064762999    -0.047997100286     1.007825032230

  Running in c1 symmetry.

  Rotational constants: A =      0.36056  B =      0.30930  C =      0.17183 [cm^-1]
  Rotational constants: A =  10809.27910  B =   9272.63732  C =   5151.40437 [MHz]
  Nuclear repulsion =  121.553272504381425

  Charge       = 0
  Multiplicity = 1
  Electrons    = 32
  Nalpha       = 16
  Nbeta        = 16

  ==> Algorithm <==

  SCF Algorithm Type is DF.
  DIIS enabled.
  MOM disabled.
  Fractional occupation disabled.
  Guess Type is SAD.
  Energy threshold   = 1.00e-08
  Density threshold  = 1.00e-08
  Integral threshold = 0.00e+00

  ==> Primary Basis <==

  Basis Set: 6-311G**
    Blend: 6-311G**
    Number of shells: 52
    Number of basis function: 102
    Number of Cartesian functions: 106
    Spherical Harmonics?: true
    Max angular momentum: 2

   => Loading Basis Set <=

    Name: (6-311G** AUX)
    Role: JKFIT
    Keyword: DF_BASIS_SCF
    atoms 1   entry O          line   229 file /home/bdw2292/miniconda3/envs/p4env/share/psi4/basis/cc-pvtz-jkfit.gbs 
    atoms 2   entry N          line   177 file /home/bdw2292/miniconda3/envs/p4env/share/psi4/basis/cc-pvtz-jkfit.gbs 
    atoms 3-4 entry C          line   125 file /home/bdw2292/miniconda3/envs/p4env/share/psi4/basis/cc-pvtz-jkfit.gbs 
    atoms 5-9 entry H          line    51 file /home/bdw2292/miniconda3/envs/p4env/share/psi4/basis/cc-pvtz-jkfit.gbs 

  ==> Pre-Iterations <==

   -------------------------------------------------------
    Irrep   Nso     Nmo     Nalpha   Nbeta   Ndocc  Nsocc
   -------------------------------------------------------
     A        102     102       0       0       0       0
   -------------------------------------------------------
    Total     102     102      16      16      16       0
   -------------------------------------------------------

  ==> Integral Setup <==

  DFHelper Memory: AOs need 0.040 GiB; user supplied 0.489 GiB. Using in-core AOs.

  ==> MemDFJK: Density-Fitted J/K Matrices <==

    J tasked:                   Yes
    K tasked:                   Yes
    wK tasked:                   No
    OpenMP threads:               1
    Memory [MiB]:               500
    Algorithm:                 Core
    Schwarz Cutoff:           1E-12
    Mask sparsity (%):       0.5190
    Fitting Condition:        1E-10

   => Auxiliary Basis Set <=

  Basis Set: (6-311G** AUX)
    Blend: CC-PVTZ-JKFIT
    Number of shells: 150
    Number of basis function: 466
    Number of Cartesian functions: 559
    Spherical Harmonics?: true
    Max angular momentum: 4

  Minimum eigenvalue in the overlap matrix is 2.8762432869E-03.
  Using Symmetric Orthogonalization.

  SCF Guess: Superposition of Atomic Densities via on-the-fly atomic UHF.

  ==> Iterations <==

                           Total Energy        Delta E     RMS |[F,P]|

   @DF-RHF iter SAD:  -207.22472057855822   -2.07225e+02   0.00000e+00 
   @DF-RHF iter   1:  -207.87910435213035   -6.54384e-01   5.60182e-03 DIIS
   @DF-RHF iter   2:  -207.99302142360432   -1.13917e-01   3.36460e-03 DIIS
   @DF-RHF iter   3:  -208.03193178826209   -3.89104e-02   6.11563e-04 DIIS
   @DF-RHF iter   4:  -208.03419685823459   -2.26507e-03   2.46628e-04 DIIS
   @DF-RHF iter   5:  -208.03463294816012   -4.36090e-04   4.71854e-05 DIIS
   @DF-RHF iter   6:  -208.03466273752142   -2.97894e-05   2.36063e-05 DIIS
   @DF-RHF iter   7:  -208.03466843601433   -5.69849e-06   8.94657e-06 DIIS
   @DF-RHF iter   8:  -208.03466963871819   -1.20270e-06   2.54048e-06 DIIS
   @DF-RHF iter   9:  -208.03466975208482   -1.13367e-07   5.39435e-07 DIIS
   @DF-RHF iter  10:  -208.03466975666194   -4.57712e-09   1.10312e-07 DIIS
   @DF-RHF iter  11:  -208.03466975680368   -1.41739e-10   2.28206e-08 DIIS
   @DF-RHF iter  12:  -208.03466975681096   -7.27596e-12   8.41282e-09 DIIS
  Energy and wave function converged.


  ==> Post-Iterations <==

    Orbital Energies [Eh]
    ---------------------

    Doubly Occupied:                                                      

       1A    -20.507049     2A    -15.578831     3A    -11.352118  
       4A    -11.238827     5A     -1.376105     6A     -1.206722  
       7A     -1.001392     8A     -0.796302     9A     -0.721527  
      10A     -0.660769    11A     -0.611572    12A     -0.582943  
      13A     -0.559251    14A     -0.521686    15A     -0.419622  
      16A     -0.409797  

    Virtual:                                                              

      17A      0.139396    18A      0.183181    19A      0.187477  
      20A      0.200315    21A      0.236729    22A      0.246850  
      23A      0.354615    24A      0.410367    25A      0.447382  
      26A      0.476101    27A      0.517734    28A      0.565472  
      29A      0.605213    30A      0.623392    31A      0.632868  
      32A      0.739406    33A      0.773129    34A      0.783161  
      35A      0.814746    36A      0.843123    37A      0.849017  
      38A      0.899128    39A      0.912942    40A      0.972124  
      41A      1.030774    42A      1.131542    43A      1.174210  
      44A      1.191197    45A      1.271922    46A      1.358668  
      47A      1.407072    48A      1.477432    49A      1.536822  
      50A      1.658665    51A      1.693118    52A      1.733203  
      53A      1.752615    54A      1.761313    55A      1.772575  
      56A      1.826493    57A      1.932279    58A      1.952132  
      59A      1.967298    60A      2.036325    61A      2.061025  
      62A      2.111241    63A      2.196897    64A      2.298826  
      65A      2.325931    66A      2.409368    67A      2.494441  
      68A      2.647244    69A      2.690380    70A      2.695271  
      71A      2.714780    72A      2.743534    73A      2.782837  
      74A      2.796598    75A      2.877473    76A      2.894342  
      77A      3.011187    78A      3.089096    79A      3.125558  
      80A      3.154972    81A      3.296516    82A      3.319236  
      83A      3.349293    84A      3.467235    85A      3.599726  
      86A      3.758042    87A      3.765204    88A      3.994589  
      89A      4.137437    90A      4.173232    91A      4.200040  
      92A      4.239263    93A      4.515229    94A      5.243192  
      95A      5.409498    96A      5.495104    97A      5.623222  
      98A      6.218170    99A     24.943335   100A     25.066535  
     101A     37.029130   102A     51.713608  

    Final Occupation by Irrep:
              A 
    DOCC [    16 ]

  @DF-RHF Final Energy:  -208.03466975681096

   => Energetics <=

    Nuclear Repulsion Energy =            121.5532725043814253
    One-Electron Energy =                -524.0868600846122263
    Two-Electron Energy =                 194.4989178234198448
    Total Energy =                       -208.0346697568109562

Computation Completed


Properties will be evaluated at  -0.000000,   0.000000,   0.000000 [a0]

Properties computed using the SCF density matrix

  Nuclear Dipole Moment: [e a0]
     X:    -3.1496      Y:     3.1614      Z:     0.0018

  Electronic Dipole Moment: [e a0]
     X:     2.6739      Y:    -1.5918      Z:     0.0179

  Dipole Moment: [e a0]
     X:    -0.4757      Y:     1.5696      Z:     0.0196     Total:     1.6402

  Dipole Moment: [D]
     X:    -1.2090      Y:     3.9894      Z:     0.0499     Total:     4.1689


*** tstop() called on node37.bme.utexas.edu at Mon Sep 21 14:18:48 2020
Module time:
	user time   =       2.23 seconds =       0.04 minutes
	system time =       0.05 seconds =       0.00 minutes
	total time  =          3 seconds =       0.05 minutes
Total time:
	user time   =       2.23 seconds =       0.04 minutes
	system time =       0.05 seconds =       0.00 minutes
	total time  =          3 seconds =       0.05 minutes

*** tstart() called on node37.bme.utexas.edu
*** at Mon Sep 21 14:18:48 2020


  //>>>>>>>>>>>>>>>>>>>>>>>>>>>>>>>>>>>//
  //               DFMP2               //
  //<<<<<<<<<<<<<<<<<<<<<<<<<<<<<<<<<<<//

   => Loading Basis Set <=

    Name: (6-311G** AUX)
    Role: RIFIT
    Keyword: DF_BASIS_MP2
    atoms 1   entry O          line   305 file /home/bdw2292/miniconda3/envs/p4env/share/psi4/basis/cc-pvtz-ri.gbs 
    atoms 2   entry N          line   257 file /home/bdw2292/miniconda3/envs/p4env/share/psi4/basis/cc-pvtz-ri.gbs 
    atoms 3-4 entry C          line   209 file /home/bdw2292/miniconda3/envs/p4env/share/psi4/basis/cc-pvtz-ri.gbs 
    atoms 5-9 entry H          line    19 file /home/bdw2292/miniconda3/envs/p4env/share/psi4/basis/cc-pvtz-ri.gbs 

	 --------------------------------------------------------
	                          DF-MP2                         
	      2nd-Order Density-Fitted Moller-Plesset Theory     
	              RMP2 Wavefunction,   1 Threads             
	                                                         
	        Rob Parrish, Justin Turney, Andy Simmonett,      
	           Ed Hohenstein, and C. David Sherrill          
	 --------------------------------------------------------

   => Auxiliary Basis Set <=

  Basis Set: (6-311G** AUX)
    Blend: CC-PVTZ-RI
    Number of shells: 142
    Number of basis function: 474
    Number of Cartesian functions: 579
    Spherical Harmonics?: true
    Max angular momentum: 4

	 --------------------------------------------------------
	                 NBF =   102, NAUX =   474
	 --------------------------------------------------------
	   CLASS    FOCC     OCC    AOCC    AVIR     VIR    FVIR
	   PAIRS       4      16      12      86      86       0
	 --------------------------------------------------------

	-----------------------------------------------------------
	 ==================> DF-MP2 Energies <==================== 
	-----------------------------------------------------------
	 Reference Energy          =    -208.0346697568109562 [Eh]
	 Singles Energy            =      -0.0000000000000000 [Eh]
	 Same-Spin Energy          =      -0.1682612533081600 [Eh]
	 Opposite-Spin Energy      =      -0.4944324278745318 [Eh]
	 Correlation Energy        =      -0.6626936811826918 [Eh]
	 Total Energy              =    -208.6973634379936584 [Eh]
	-----------------------------------------------------------
	 ================> DF-SCS-MP2 Energies <================== 
	-----------------------------------------------------------
	 SCS Same-Spin Scale       =       0.3333333333333333 [-]
	 SCS Opposite-Spin Scale   =       1.2000000000000000 [-]
	 SCS Same-Spin Energy      =      -0.0560870844360533 [Eh]
	 SCS Opposite-Spin Energy  =      -0.5933189134494382 [Eh]
	 SCS Correlation Energy    =      -0.6494059978854916 [Eh]
	 SCS Total Energy          =    -208.6840757546964369 [Eh]
	-----------------------------------------------------------


*** tstop() called on node37.bme.utexas.edu at Mon Sep 21 14:18:48 2020
Module time:
	user time   =       0.59 seconds =       0.01 minutes
	system time =       0.01 seconds =       0.00 minutes
	total time  =          0 seconds =       0.00 minutes
Total time:
	user time   =       2.82 seconds =       0.05 minutes
	system time =       0.06 seconds =       0.00 minutes
	total time  =          3 seconds =       0.05 minutes

    Psi4 stopped on: Monday, 21 September 2020 02:18PM
    Psi4 wall time for execution: 0:00:03.13

*** Psi4 exiting successfully. Buy a developer a beer!
