Generated by Psi4
        SP                        DF-MP2                      6-311G**
Number of atoms                            I                9
Charge                                     I                0
Multiplicity                               I                1
Number of electrons                        I               32
Number of alpha electrons                  I               16
Number of beta electrons                   I               16
Number of basis functions                  I              102
Number of independent functions            I              102
Atomic numbers                             I   N=           9
           8           7           6           6           1           1
           1           1           1
Nuclear charges                            R   N=           9
  8.00000000e+00  7.00000000e+00  6.00000000e+00  6.00000000e+00  1.00000000e+00
  1.00000000e+00  1.00000000e+00  1.00000000e+00  1.00000000e+00
Current cartesian coordinates              R   N=          27
  1.09861257e+00 -2.22002604e+00  9.18676015e-02  1.47128918e+00  2.03598583e+00
 -1.17080992e-01 -2.74879754e+00  1.96123210e-01  1.06559207e-02  1.00862599e-01
 -1.49560246e-01  3.28549223e-03 -3.59904581e+00 -1.32033083e+00 -1.09854850e+00
 -3.43794911e+00  1.95556390e-02  1.95386128e+00 -3.35345287e+00  2.02459556e+00
 -7.38305010e-01  3.36950456e+00  1.90580903e+00 -2.35456053e-02  6.71064873e-01
  3.76067737e+00 -9.07013744e-02
Integer atomic weights                     I   N=           9
          15          14          12          12           1           1
           1           1           1
Real atomic weights                        R   N=           9
  1.59949146e+01  1.40030740e+01  1.20000000e+01  1.20000000e+01  1.00782503e+00
  1.00782503e+00  1.00782503e+00  1.00782503e+00  1.00782503e+00
Number of primitive shells                 I               98
Number of contracted shells                I               52
Pure/Cartesian d shells                    I                0
Pure/Cartesian f shells                    I                0
Highest angular momentum                   I                2
Largest degree of contraction              I                6
Shell types                                I   N=          52
           0           0           1           0           1           0
           1          -2           0           0           1           0
           1           0           1          -2           0           0
           1           0           1           0           1          -2
           0           0           1           0           1           0
           1          -2           0           0           0           1
           0           0           0           1           0           0
           0           1           0           0           0           1
           0           0           0           1
Number of primitives per shell             I   N=          52
           6           3           3           1           1           1
           1           1           6           3           3           1
           1           1           1           1           6           3
           3           1           1           1           1           1
           6           3           3           1           1           1
           1           1           3           1           1           1
           3           1           1           1           3           1
           1           1           3           1           1           1
           3           1           1           1
Shell to atom map                          I   N=          52
           1           1           1           1           1           1
           1           1           2           2           2           2
           2           2           2           2           3           3
           3           3           3           3           3           3
           4           4           4           4           4           4
           4           4           5           5           5           5
           6           6           6           6           7           7
           7           7           8           8           8           8
           9           9           9           9
Primitive exponents                        R   N=          98
  8.58850000e+03  1.29723000e+03  2.99296000e+02  8.73771000e+01  2.56789000e+01
  3.74004000e+00  4.21175000e+01  9.62837000e+00  2.85332000e+00  4.21175000e+01
  9.62837000e+00  2.85332000e+00  9.05661000e-01  9.05661000e-01  2.55611000e-01
  2.55611000e-01  1.29200000e+00  6.29348000e+03  9.49044000e+02  2.18776000e+02
  6.36916000e+01  1.88282000e+01  2.72023000e+00  3.06331000e+01  7.02614000e+00
  2.11205000e+00  3.06331000e+01  7.02614000e+00  2.11205000e+00  6.84009000e-01
  6.84009000e-01  2.00878000e-01  2.00878000e-01  9.13000000e-01  4.56324000e+03
  6.82024000e+02  1.54973000e+02  4.44553000e+01  1.30290000e+01  1.82773000e+00
  2.09642000e+01  4.80331000e+00  1.45933000e+00  2.09642000e+01  4.80331000e+00
  1.45933000e+00  4.83456000e-01  4.83456000e-01  1.45585000e-01  1.45585000e-01
  6.26000000e-01  4.56324000e+03  6.82024000e+02  1.54973000e+02  4.44553000e+01
  1.30290000e+01  1.82773000e+00  2.09642000e+01  4.80331000e+00  1.45933000e+00
  2.09642000e+01  4.80331000e+00  1.45933000e+00  4.83456000e-01  4.83456000e-01
  1.45585000e-01  1.45585000e-01  6.26000000e-01  3.38650000e+01  5.09479000e+00
  1.15879000e+00  3.25840000e-01  1.02741000e-01  7.50000000e-01  3.38650000e+01
  5.09479000e+00  1.15879000e+00  3.25840000e-01  1.02741000e-01  7.50000000e-01
  3.38650000e+01  5.09479000e+00  1.15879000e+00  3.25840000e-01  1.02741000e-01
  7.50000000e-01  3.38650000e+01  5.09479000e+00  1.15879000e+00  3.25840000e-01
  1.02741000e-01  7.50000000e-01  3.38650000e+01  5.09479000e+00  1.15879000e+00
  3.25840000e-01  1.02741000e-01  7.50000000e-01
Contraction coefficients                   R   N=          98
  1.89515008e-03  1.43859006e-02  7.07320031e-02  2.40001011e-01  5.94797026e-01
  2.80802012e-01  1.13889012e-01  9.20811101e-01 -3.27447036e-03  3.65113974e-02
  2.37152983e-01  8.19701941e-01  1.00000000e+00  1.00000000e+00  1.00000000e+00
  1.00000000e+00  1.00000000e+00  1.96978815e-03  1.49612859e-02  7.35005308e-02
  2.48936766e-01  6.02459433e-01  2.56201759e-01  1.11906080e-01  9.21666655e-01
 -2.56919183e-03  3.83119186e-02  2.37403116e-01  8.17592398e-01  1.00000000e+00
  1.00000000e+00  1.00000000e+00  1.00000000e+00  1.00000000e+00  1.96665025e-03
  1.52306019e-02  7.61269097e-02  2.60801033e-01  6.16462078e-01  2.21006028e-01
  1.14660081e-01  9.19999648e-01 -3.03068213e-03  4.02486927e-02  2.37593957e-01
  8.15853851e-01  1.00000000e+00  1.00000000e+00  1.00000000e+00  1.00000000e+00
  1.00000000e+00  1.96665025e-03  1.52306019e-02  7.61269097e-02  2.60801033e-01
  6.16462078e-01  2.21006028e-01  1.14660081e-01  9.19999648e-01 -3.03068213e-03
  4.02486927e-02  2.37593957e-01  8.15853851e-01  1.00000000e+00  1.00000000e+00
  1.00000000e+00  1.00000000e+00  1.00000000e+00  2.54938145e-02  1.90373109e-01
  8.52161486e-01  1.00000000e+00  1.00000000e+00  1.00000000e+00  2.54938145e-02
  1.90373109e-01  8.52161486e-01  1.00000000e+00  1.00000000e+00  1.00000000e+00
  2.54938145e-02  1.90373109e-01  8.52161486e-01  1.00000000e+00  1.00000000e+00
  1.00000000e+00  2.54938145e-02  1.90373109e-01  8.52161486e-01  1.00000000e+00
  1.00000000e+00  1.00000000e+00  2.54938145e-02  1.90373109e-01  8.52161486e-01
  1.00000000e+00  1.00000000e+00  1.00000000e+00
Coordinates of each shell                  R   N=         156
  1.09861257e+00 -2.22002604e+00  9.18676015e-02  1.09861257e+00 -2.22002604e+00
  9.18676015e-02  1.09861257e+00 -2.22002604e+00  9.18676015e-02  1.09861257e+00
 -2.22002604e+00  9.18676015e-02  1.09861257e+00 -2.22002604e+00  9.18676015e-02
  1.09861257e+00 -2.22002604e+00  9.18676015e-02  1.09861257e+00 -2.22002604e+00
  9.18676015e-02  1.09861257e+00 -2.22002604e+00  9.18676015e-02  1.47128918e+00
  2.03598583e+00 -1.17080992e-01  1.47128918e+00  2.03598583e+00 -1.17080992e-01
  1.47128918e+00  2.03598583e+00 -1.17080992e-01  1.47128918e+00  2.03598583e+00
 -1.17080992e-01  1.47128918e+00  2.03598583e+00 -1.17080992e-01  1.47128918e+00
  2.03598583e+00 -1.17080992e-01  1.47128918e+00  2.03598583e+00 -1.17080992e-01
  1.47128918e+00  2.03598583e+00 -1.17080992e-01 -2.74879754e+00  1.96123210e-01
  1.06559207e-02 -2.74879754e+00  1.96123210e-01  1.06559207e-02 -2.74879754e+00
  1.96123210e-01  1.06559207e-02 -2.74879754e+00  1.96123210e-01  1.06559207e-02
 -2.74879754e+00  1.96123210e-01  1.06559207e-02 -2.74879754e+00  1.96123210e-01
  1.06559207e-02 -2.74879754e+00  1.96123210e-01  1.06559207e-02 -2.74879754e+00
  1.96123210e-01  1.06559207e-02  1.00862599e-01 -1.49560246e-01  3.28549223e-03
  1.00862599e-01 -1.49560246e-01  3.28549223e-03  1.00862599e-01 -1.49560246e-01
  3.28549223e-03  1.00862599e-01 -1.49560246e-01  3.28549223e-03  1.00862599e-01
 -1.49560246e-01  3.28549223e-03  1.00862599e-01 -1.49560246e-01  3.28549223e-03
  1.00862599e-01 -1.49560246e-01  3.28549223e-03  1.00862599e-01 -1.49560246e-01
  3.28549223e-03 -3.59904581e+00 -1.32033083e+00 -1.09854850e+00 -3.59904581e+00
 -1.32033083e+00 -1.09854850e+00 -3.59904581e+00 -1.32033083e+00 -1.09854850e+00
 -3.59904581e+00 -1.32033083e+00 -1.09854850e+00 -3.43794911e+00  1.95556390e-02
  1.95386128e+00 -3.43794911e+00  1.95556390e-02  1.95386128e+00 -3.43794911e+00
  1.95556390e-02  1.95386128e+00 -3.43794911e+00  1.95556390e-02  1.95386128e+00
 -3.35345287e+00  2.02459556e+00 -7.38305010e-01 -3.35345287e+00  2.02459556e+00
 -7.38305010e-01 -3.35345287e+00  2.02459556e+00 -7.38305010e-01 -3.35345287e+00
  2.02459556e+00 -7.38305010e-01  3.36950456e+00  1.90580903e+00 -2.35456053e-02
  3.36950456e+00  1.90580903e+00 -2.35456053e-02  3.36950456e+00  1.90580903e+00
 -2.35456053e-02  3.36950456e+00  1.90580903e+00 -2.35456053e-02  6.71064873e-01
  3.76067737e+00 -9.07013744e-02  6.71064873e-01  3.76067737e+00 -9.07013744e-02
  6.71064873e-01  3.76067737e+00 -9.07013744e-02  6.71064873e-01  3.76067737e+00
 -9.07013744e-02
Total Energy                               R     -2.086973634379937e+02
Alpha Orbital Energies                     R   N=         102
 -2.05070488e+01 -1.55788307e+01 -1.13521178e+01 -1.12388272e+01 -1.37610460e+00
 -1.20672217e+00 -1.00139220e+00 -7.96301785e-01 -7.21526736e-01 -6.60769150e-01
 -6.11572025e-01 -5.82943435e-01 -5.59250759e-01 -5.21685813e-01 -4.19621950e-01
 -4.09797040e-01  1.39395937e-01  1.83180600e-01  1.87476577e-01  2.00314768e-01
  2.36729277e-01  2.46849973e-01  3.54615438e-01  4.10366808e-01  4.47382400e-01
  4.76101417e-01  5.17734398e-01  5.65472394e-01  6.05213261e-01  6.23391592e-01
  6.32868116e-01  7.39406150e-01  7.73128967e-01  7.83160749e-01  8.14745693e-01
  8.43122883e-01  8.49016673e-01  8.99127745e-01  9.12942224e-01  9.72124496e-01
  1.03077427e+00  1.13154194e+00  1.17420956e+00  1.19119750e+00  1.27192179e+00
  1.35866826e+00  1.40707162e+00  1.47743215e+00  1.53682235e+00  1.65866516e+00
  1.69311815e+00  1.73320335e+00  1.75261541e+00  1.76131315e+00  1.77257489e+00
  1.82649274e+00  1.93227917e+00  1.95213195e+00  1.96729761e+00  2.03632509e+00
  2.06102486e+00  2.11124096e+00  2.19689733e+00  2.29882594e+00  2.32593109e+00
  2.40936821e+00  2.49444067e+00  2.64724450e+00  2.69038026e+00  2.69527133e+00
  2.71478047e+00  2.74353356e+00  2.78283656e+00  2.79659764e+00  2.87747300e+00
  2.89434246e+00  3.01118719e+00  3.08909612e+00  3.12555804e+00  3.15497216e+00
  3.29651570e+00  3.31923566e+00  3.34929267e+00  3.46723500e+00  3.59972585e+00
  3.75804179e+00  3.76520384e+00  3.99458939e+00  4.13743655e+00  4.17323197e+00
  4.20003983e+00  4.23926279e+00  4.51522938e+00  5.24319223e+00  5.40949818e+00
  5.49510400e+00  5.62322166e+00  6.21817026e+00  2.49433348e+01  2.50665354e+01
  3.70291302e+01  5.17136084e+01
Alpha MO coefficients                      R   N=       10404
  5.51466224e-01  4.71683152e-01 -7.12132936e-04  1.58770283e-03 -6.02333465e-05
  5.53807911e-03  2.48777191e-04 -5.70001644e-04  2.14943904e-05 -1.31396454e-03
  6.00871049e-05 -1.39165497e-04  5.79667301e-06 -1.14681656e-04  2.91575798e-07
 -6.19776373e-06  5.64326269e-05  6.38811320e-05  4.23199494e-07  9.85880449e-07
  3.03432967e-06  1.01870121e-05 -1.15652249e-06 -2.05055693e-05 -1.85295420e-05
 -1.90014242e-05  3.54375623e-06  2.74577402e-04 -4.33642215e-04  1.81861182e-04
 -8.04000639e-06 -1.28961522e-05 -3.64167923e-06 -3.74594979e-07 -2.98388222e-05
  6.42236933e-06  1.86906456e-06 -1.94804231e-06 -1.54283769e-05 -7.86779388e-07
  8.86254212e-07 -7.58258325e-06  4.76346973e-05  6.82925801e-06 -3.54734133e-06
  5.46530685e-04  1.56856598e-04  1.82468585e-04 -1.81244751e-05 -1.23007890e-06
 -1.58389688e-06  4.06513303e-06  1.93010703e-05  1.14639202e-05  5.69072132e-06
 -7.71980997e-05  3.74171141e-05 -6.90377527e-05  2.78985154e-06  3.50096611e-04
  1.54153333e-04 -3.55356199e-04  1.56300299e-05  1.51347485e-04  5.93835248e-04
 -8.72527346e-04  4.21298108e-05 -5.02298808e-05  5.38977578e-06 -8.47071226e-06
 -1.03601187e-04 -1.56985324e-04  9.24737385e-06 -4.23905651e-05  2.16993278e-05
 -2.37962015e-05 -6.43415567e-06  6.99694807e-06  2.62790231e-06 -3.12900847e-05
 -1.49922195e-05 -6.42676388e-06 -9.39649075e-06  4.46859089e-06  1.34397160e-05
 -8.05179210e-05 -5.94879121e-05  8.64444125e-06  4.89623086e-07 -7.96491839e-06
 -7.74833970e-06  1.93697052e-04 -1.05993402e-05 -2.72072093e-05  1.10557241e-05
 -5.68683244e-06  1.38815782e-05 -2.32148934e-04  2.78671834e-05 -3.47541304e-06
  3.69258391e-05  3.98581874e-06  3.51103200e-06  5.55132059e-06 -1.16214607e-05
 -1.01406342e-05  3.79560128e-07 -1.14826907e-05  2.48409409e-05  2.42845735e-06
 -1.15416751e-06  7.23031035e-06 -1.24441465e-04 -8.78618595e-05  9.76665924e-06
 -3.79984666e-06 -1.06448749e-06  1.75183975e-07  5.80157477e-06  3.72219366e-06
  5.57561877e-01  4.68187647e-01 -1.21693730e-05  1.21471997e-04  1.89533008e-04
  5.47450862e-03 -3.18215320e-05 -1.42188998e-04 -5.92216775e-05 -1.02401189e-03
  1.63733996e-04  4.18988452e-04  5.39301864e-06 -5.54166892e-06  2.31444061e-06
 -1.38352383e-06 -1.21221472e-05  1.69390226e-05  2.11158200e-07  3.72736036e-06
 -4.12689092e-06 -6.22856637e-07 -4.28361384e-07 -3.40669413e-05 -1.24050169e-05
 -7.67097169e-06  8.49934129e-06  2.68466877e-04  1.04330237e-04 -1.84904405e-04
  4.98839801e-05 -3.11379270e-06 -2.00947919e-06 -1.21098934e-06  6.19199585e-07
 -4.02703614e-06  1.44211284e-05 -1.44180875e-05  7.08685329e-05  1.09364693e-04
 -6.54168896e-06  1.73392992e-04  3.05249463e-05  3.87956762e-05  5.68162385e-06
  4.14947717e-04  5.05837682e-04  4.97630684e-04 -4.95556652e-05  1.82014256e-05
  5.38188939e-06  7.82267778e-06 -2.86630511e-05  3.07134198e-05  2.78942526e-06
 -3.68365681e-05 -2.75117276e-06  1.17017743e-05  2.96374712e-06 -1.17279294e-05
  7.96584253e-06 -5.91937477e-05 -1.28395586e-05 -4.92992220e-06  9.59817139e-06
  9.51963475e-06 -8.09365464e-06  2.90124162e-05  4.65735761e-05 -7.74642373e-06
 -4.11864357e-06  3.60896162e-06  2.40954066e-04 -4.62115705e-05  6.65773832e-05
  4.09265941e-05 -2.29469944e-05  7.82693629e-06  2.49450319e-04 -1.00771157e-04
  6.72443546e-05 -4.53004030e-05  1.65085462e-05  7.81439286e-06 -1.84276876e-04
 -2.78626353e-04 -1.39936265e-04  2.68220883e-04 -1.13507039e-05  5.84007452e-04
 -1.61244439e-04  4.01751483e-04 -1.81222445e-05 -7.52557642e-04  4.37467937e-05
 -3.69250136e-04  1.82999345e-05 -4.51350522e-05  5.50229614e-06 -8.43554504e-06
 -1.14841821e-04 -1.38199830e-04 -1.37365447e-04 -2.15783542e-04 -8.39518515e-05
 -1.09941521e-04  8.10615607e-06  4.82183181e-04 -2.89223145e-04 -5.14670576e-04
  2.16955443e-05 -2.80121533e-04 -1.07849272e-04  3.46165161e-04 -1.09838735e-05
 -2.07290374e-05 -1.29304886e-05 -1.34199833e-05 -1.40149196e-04  1.92353343e-04
  1.52087139e-03  1.20672766e-03  1.24121889e-04 -7.47582612e-06 -6.57980950e-06
  2.53817155e-04  2.72386940e-04 -4.38406042e-05  2.33920773e-05  2.04303346e-04
  1.73365204e-04 -1.64115912e-05 -2.00153657e-05 -2.73639129e-05 -9.01787689e-06
  5.79226446e-06  1.29922619e-04 -3.88754631e-05  5.63520957e-01  4.66633899e-01
  3.84997233e-04  4.85899643e-04 -3.07210490e-05  3.50362597e-03 -5.61026240e-05
 -6.77648860e-04  3.87225979e-05  3.08678906e-04  7.29332948e-04 -8.83678593e-05
 -4.11821266e-06 -4.20373674e-04  1.05824385e-05 -3.72930261e-05 -1.57662779e-04
 -3.05470295e-04  4.28922415e-06  5.32972714e-05  2.98596230e-05  1.90268662e-05
  1.43761582e-05  2.25007284e-05 -1.23569781e-05  4.28855180e-05  5.35468650e-05
  1.42364051e-05 -3.56436690e-06 -6.23018229e-06  6.30331763e-06  6.21857184e-05
  1.34563860e-05  2.50108489e-05 -2.76901186e-05  1.65318911e-05  2.52409343e-05
  1.33842645e-04 -8.07682005e-05 -7.14183743e-05 -4.37909497e-06 -6.12438521e-06
  2.89106279e-05 -1.03799948e-04 -3.30847614e-05 -1.11720922e-05 -5.16323656e-05
  3.08495091e-06  3.49655587e-06  5.02803181e-06  1.29706408e-05 -1.01540813e-06
  6.81208415e-07 -7.00174365e-06  8.63390401e-06 -4.61257212e-06 -3.16062064e-07
 -4.10379521e-05  3.21037956e-05  1.75484721e-05  2.62685373e-06 -2.22678598e-06
 -4.53801477e-07  3.37886683e-08  5.50817319e-06 -6.37951398e-06  5.20380157e-06
  9.12132603e-06  5.02517453e-06  9.00856453e-06  5.72733460e-08 -3.71364569e-05
  7.27095119e-06 -1.48494843e-05 -2.95996303e-07  3.41254344e-05 -1.23518925e-04
  3.16525319e-07  1.61238809e-06 -5.29738657e-06 -2.59022700e-06 -8.58853722e-07
 -1.15182680e-05  1.40832550e-05  5.63327097e-01  4.66531432e-01  1.30820478e-04
  9.36038418e-05  5.86328563e-05  4.52340848e-03 -1.35011585e-04 -7.61863355e-05
 -4.01877355e-05 -1.72079336e-03 -2.01652893e-04  8.16080045e-05 -1.41744683e-05
  4.10781624e-05  7.06573217e-06  2.66066650e-05 -7.97800812e-05  3.39179280e-05
 -1.62033575e-03 -1.40552167e-03 -1.35780767e-04  1.74018704e-05 -1.30759102e-06
  2.64745021e-04 -3.29952943e-04  3.12564910e-05  3.07347565e-06  5.25749536e-04
 -2.82170351e-04 -5.15523263e-05  3.51473609e-06 -4.36610255e-05 -6.77194723e-07
  3.54301229e-06  1.45752330e-04 -5.96184425e-05  3.39490054e-04  1.32325632e-04
  2.60969181e-04  7.15826294e-06 -1.44342594e-05 -9.50726633e-06  3.40171484e-04
  2.05716021e-04  2.30084799e-04  2.93832940e-05  2.60104569e-06 -1.07326349e-05
  3.54671841e-04  1.82791497e-04  2.05127468e-04  3.28612128e-05 -1.43614344e-05
  9.03430267e-06 -6.35623817e-06  1.01691713e-04  2.97912875e-05 -2.16455258e-05
 -4.17605098e-06 -2.09751848e-06 -3.29262023e-06 -3.51804552e-05 -4.51054344e-06
  7.35348467e-06  2.07473738e-06  1.42237680e-06  9.66571666e-02  1.61059506e-01
  2.40075102e-02 -5.32843146e-02  2.29957527e-03 -4.49748890e-01  3.79380441e-02
 -8.39487266e-02  3.59998333e-03 -3.41956419e-01  1.31719934e-02 -3.88704145e-02
  1.64523116e-03  8.04777770e-03 -4.48893383e-04  9.95300510e-04  9.39035437e-03
  1.04989848e-02  2.98928087e-02  4.94159317e-02  5.78432746e-03  1.66561288e-02
 -1.45204100e-03 -1.32817707e-01  1.17538809e-02  3.14577584e-02 -2.49975394e-03
 -7.31061272e-02 -1.25939142e-02  1.99612780e-02 -1.24835607e-03  3.50988671e-03
  9.51431802e-05  6.59008081e-04  3.84958665e-03 -3.80064541e-03  1.06557904e-02
  1.75777263e-02 -1.01251482e-02  2.49454289e-03  7.11239931e-05 -4.68740125e-02
 -2.37358392e-02  7.03847297e-03 -6.58781034e-04  2.71383246e-02  1.31430941e-02
  5.60529643e-03 -3.98491132e-04  2.41455385e-03  4.16180814e-05 -4.26081511e-04
 -5.78394702e-03  3.61974721e-03  6.73254639e-02  1.09282980e-01 -3.91044308e-02
  5.69738344e-02 -2.42630812e-03 -2.83552236e-01 -5.75286004e-02  7.67676122e-02
 -3.36853784e-03 -7.20074011e-02  3.89442444e-02 -2.78120774e-02  8.19820436e-04
  1.83877151e-02 -6.97981583e-04  2.20045069e-03  1.80907864e-02  1.68104744e-02
 -5.28436626e-03 -1.04747995e-02  1.81773415e-03 -1.65020962e-03 -1.93035607e-03
 -1.60297101e-03 -4.34068978e-03 -9.91607898e-03  1.02519605e-03 -1.03056990e-03
 -2.16562552e-04  2.17989296e-03 -3.71310123e-03 -1.17972729e-02  2.74107517e-04
 -1.32725136e-03  2.41674175e-03 -1.32687453e-03 -1.89452024e-02 -1.03045323e-02
 -3.69367234e-05  5.76988202e-03  2.06404828e-04  1.11069483e-04 -1.43813472e-02
 -2.39718536e-02  3.10487038e-03 -1.92813137e-03  6.12037342e-03  1.26174120e-04
  4.38896578e-02  7.33383729e-02  1.29518709e-02 -9.22703015e-03  3.81736785e-04
 -2.06390150e-01  1.91499862e-02 -1.15868134e-02  4.99690241e-04 -1.64674408e-01
  1.39446745e-02 -2.72318546e-03 -1.28458035e-04  2.35704946e-03 -1.84630023e-04
  1.62050557e-04 -1.82062149e-04  4.48459181e-03 -1.00227865e-01 -1.65830570e-01
 -1.10279048e-02 -8.73412566e-03  3.36878575e-03  4.39576241e-01 -1.87579168e-02
 -1.36176580e-02  5.63383669e-03  3.36610023e-01 -1.83889204e-02 -1.76634940e-02
  2.71236443e-03 -1.09854508e-02 -1.58809101e-04 -5.23230248e-04 -1.45369410e-04
  3.27619000e-03 -1.02678748e-02 -1.69467780e-02  7.37762745e-03  5.22358169e-03
 -2.68749630e-04  4.47624112e-02  1.85640817e-02  9.40778358e-03 -7.06733065e-04
 -7.84454832e-03 -9.45057638e-03  1.02862562e-02 -1.83254262e-03 -2.39951239e-03
 -1.59955029e-04 -5.88984242e-04  4.29092244e-03  2.47363407e-03 -2.16978657e-02
 -3.62835181e-02  7.85959292e-03  8.75262597e-02 -3.92931764e-03  9.74822670e-02
  1.67637926e-02  1.39060193e-01 -6.08880427e-03  3.02158064e-02 -2.88075334e-02
 -6.21463594e-03  1.21363977e-03 -5.45322712e-03 -1.31064350e-03 -4.13226836e-04
 -4.62469598e-04  2.75784120e-02  2.85277122e-03  8.79787823e-03 -2.42850556e-03
  8.62309057e-04  1.60588729e-03  1.26578860e-03  4.73689940e-03  1.14358224e-02
 -1.27828455e-03  1.23823426e-03  3.02747986e-04 -2.37507530e-03  8.95956690e-03
  1.28876992e-02 -2.61090216e-03  1.53829728e-03 -2.23094524e-03  1.07311961e-03
  7.11218645e-02  7.23219351e-02 -7.65920251e-04 -1.95282139e-02  1.91035550e-03
 -7.28712174e-04  7.70091558e-02  7.63705274e-02 -2.53065604e-04  8.50702680e-03
 -1.83454881e-02 -4.11143098e-05  1.98004666e-02  3.33519010e-02 -1.76994298e-02
 -2.46836983e-03  2.58071956e-04 -9.70795857e-02 -2.93013333e-02 -3.96882357e-03
  4.68325806e-04 -7.78826559e-02 -1.41767558e-02  2.48967097e-03 -2.33283410e-04
  2.74727043e-04  1.00295758e-04  1.87667072e-04  3.12749232e-03 -2.81568395e-03
  2.44884494e-02  4.07501084e-02 -2.93430583e-02 -1.09129360e-02 -6.07737092e-04
 -1.09589710e-01 -4.76309444e-02 -1.95467858e-02 -9.29812959e-04 -1.00931713e-01
 -1.38768546e-02 -1.13535869e-02 -6.71331340e-04  1.73696350e-03 -6.61205372e-04
 -1.10767885e-04  4.83858096e-04  5.24925704e-03 -9.52713771e-02 -1.57255102e-01
  1.25755072e-02 -1.42712596e-03  9.24340554e-04  3.99479120e-01  3.48948771e-02
 -2.17747250e-03  1.12814392e-03  2.25352577e-01 -3.16023569e-03  5.79846347e-03
  8.27649939e-04 -2.99655340e-03 -1.04731930e-04 -1.53823204e-04  5.69882357e-03
 -5.50571427e-04 -3.11029431e-02 -5.22485525e-02 -7.49267450e-02  1.69859269e-02
 -1.99449095e-04  1.45063853e-01 -1.29968812e-01  2.61622742e-02 -2.45492723e-04
  8.41817820e-02 -4.39848104e-02  2.07385707e-02  5.91780198e-05 -5.81331916e-03
 -1.16650037e-04  2.89877934e-04  1.62708976e-02 -3.82421811e-03  7.05993183e-02
  9.77973214e-02 -1.58257361e-03  8.19015999e-03  1.37949524e-02  9.96542169e-03
  7.18391278e-02  9.91574630e-02 -2.64773424e-03  7.03763043e-03  1.41449438e-03
 -1.73536765e-02  7.17473152e-02  9.67894711e-02 -1.43075861e-03  6.03440711e-03
 -1.60276651e-02  6.71156384e-03 -3.96705751e-02 -4.54513986e-02 -2.34867921e-03
  8.44288580e-03 -1.12962099e-03  4.71154596e-04 -2.03735856e-02 -1.76804784e-02
 -2.61307560e-03 -3.22531893e-03  2.80584438e-03 -9.26930232e-05  3.07627582e-02
  5.20128635e-02 -2.18449162e-03  5.81980057e-02 -3.18979825e-03 -1.53381237e-01
 -2.21246123e-03  8.74965723e-02 -4.77639888e-03 -1.60471061e-01  2.19035757e-03
  6.23040125e-02 -3.99193194e-03 -2.07301477e-03  1.18793477e-04 -5.87141665e-04
 -6.87293668e-03 -1.49676986e-03  1.81109293e-02  3.02019684e-02 -8.27694047e-02
 -1.39323485e-01  1.78377957e-03 -7.89889245e-02 -1.33262174e-01 -2.20618508e-01
  2.88952997e-03 -8.25224129e-02 -6.44392324e-02 -1.34749273e-01  1.48681218e-03
  1.84589711e-03 -1.70750619e-03 -1.86471403e-03 -6.04142591e-03  1.97294868e-02
  2.79618547e-02  4.63687398e-02  5.49135214e-02  5.73088736e-03 -9.08542792e-04
 -1.13886624e-01  9.28062576e-02  8.57472991e-03 -1.60386140e-03 -1.41086384e-01
  1.41925271e-02  3.45456281e-03 -2.73351497e-03 -7.20344377e-03 -4.51163364e-04
 -1.03404486e-03  1.32199366e-02 -6.16034462e-04 -6.29570417e-02 -1.05857476e-01
  3.11823886e-02  6.85906951e-02 -4.43167130e-03  3.03241501e-01  5.48350511e-02
  1.08949248e-01 -7.25150737e-03  1.72079225e-01 -3.65464029e-02  4.84020814e-02
 -6.65731296e-04 -1.00837843e-02 -9.18464859e-04 -1.36634206e-03 -4.15039144e-03
  1.05355856e-02 -4.55164703e-02 -5.98767413e-02 -1.48092027e-02 -8.45253201e-04
 -5.88063420e-03 -4.59419248e-03 -4.07030998e-02 -5.20509996e-02 -1.20801963e-02
  1.63572021e-04 -3.16270968e-04  7.02724170e-03 -3.55617580e-02 -4.82725290e-02
 -1.14544281e-02 -1.04076587e-04  5.52102535e-03 -2.40322865e-03 -7.44254408e-02
 -9.90271141e-02 -1.95092358e-02  1.18735639e-02 -9.23163613e-03  9.73934776e-04
 -8.91510557e-02 -1.10919937e-01 -2.37008727e-02 -1.19790116e-02  9.77629453e-03
  2.59790297e-04  1.18289027e-02  1.98146149e-02  2.68372283e-02  4.34367855e-02
 -1.62098567e-03 -5.73878070e-02  4.03658927e-02  6.76786580e-02 -2.51977016e-03
 -6.90018494e-02  3.24193421e-02  4.65520633e-02 -1.88365518e-03 -2.36162063e-03
 -1.67758363e-05 -3.85545580e-04 -5.86199862e-03  6.47291435e-04 -1.35595508e-03
 -2.44851170e-03  1.49987162e-01 -1.15696531e-01  4.70412067e-03  9.70143295e-03
  2.34792330e-01 -1.82173690e-01  7.33654776e-03  7.46539912e-04  1.63875357e-01
 -1.11889564e-01  4.79680873e-03  3.47752156e-04  2.23893934e-03 -1.35200279e-03
  1.38670078e-02  7.27312992e-03 -1.68189567e-02 -2.79921663e-02 -5.31892261e-02
 -1.10996247e-02  3.36024866e-03  7.10510218e-02 -8.91401898e-02 -1.66576562e-02
  6.02414909e-03  5.68661431e-02 -4.98330995e-02 -1.20003835e-02 -8.92227258e-04
  7.97089517e-03  1.14175885e-04  1.78389611e-03 -1.00758029e-02  2.65359842e-03
  4.90221082e-03  8.26391605e-03  6.32482736e-02 -1.12588180e-02  7.50633294e-04
 -2.03185349e-02  1.02272868e-01 -1.63719914e-02  1.20696515e-03 -1.61910386e-02
  2.29622298e-02  7.13244193e-03  9.08151641e-04  2.30663252e-04 -5.73815635e-04
  8.73120454e-04  2.03635764e-02  8.38618299e-03  3.80700334e-02  5.45970225e-02
  7.31977336e-03  1.98160121e-04  4.67235745e-03  3.81853763e-03  3.36924660e-02
  5.13064650e-02  1.09731219e-02 -5.00294415e-04  1.28208985e-04 -5.42078688e-03
  1.78327983e-02  2.47927176e-02  2.11966362e-03 -2.84068850e-03 -4.13491138e-03
  1.57480175e-03  1.24983339e-01  1.60023124e-01  3.25703140e-02 -1.98676162e-02
 -4.59021969e-03 -8.69291142e-04 -1.33014720e-01 -1.80845559e-01 -4.09008467e-02
 -3.61095457e-03  2.06530390e-02  4.66050523e-04  3.49155691e-02  5.91486536e-02
 -1.32377263e-01  8.39306052e-02 -1.88355048e-03 -1.78418840e-01 -2.02889771e-01
  1.20592082e-01 -2.12775486e-03 -2.16687719e-01 -1.46345220e-01  9.30462800e-02
 -2.40157340e-03 -6.96159298e-03  5.31214800e-04 -1.53087194e-04  2.95986731e-04
 -1.71206035e-02  1.54486881e-03  2.71182422e-03  7.24261170e-02  5.67219273e-02
  1.97404082e-03 -8.71738253e-03  1.14466614e-01  8.82563651e-02  2.96403369e-03
 -1.19904979e-02  1.18308587e-01  4.41094413e-02  4.24981037e-03 -3.99045843e-05
  1.20184145e-03  5.73886417e-04  6.98130993e-03 -6.90120204e-03  8.75427175e-03
  1.43847424e-02  7.22177925e-02 -7.67151146e-02  5.39799588e-03 -2.86237491e-02
  1.23040819e-01 -1.22458925e-01  8.76434272e-03 -1.21657280e-01  2.03236950e-02
 -7.66341265e-02  2.67936486e-03 -5.01428773e-03  4.60311549e-04  7.93735700e-03
  1.76650343e-02 -3.09215328e-03 -3.23445731e-02 -5.47486549e-02 -7.29515955e-02
 -1.10053275e-01  7.86369665e-03  1.62777537e-01 -1.15363532e-01 -1.77967082e-01
  1.31242770e-02  1.44623475e-01 -1.29716924e-01  5.81221901e-03  2.80404315e-03
 -2.67002498e-03  3.81207606e-04  2.91583325e-04 -2.10655185e-03 -4.80649497e-03
  8.19928958e-03  1.90650038e-02 -6.78223253e-03  6.03806858e-03 -1.73324119e-03
  1.73691304e-03 -2.06863537e-02 -2.23284863e-02 -1.25334872e-02  3.55303379e-03
 -4.33087986e-03  2.61373712e-03 -8.53668840e-02 -1.22972973e-01 -3.86765770e-02
 -1.45388549e-03  8.25197935e-03 -4.87368062e-03  5.49941653e-02  5.65747414e-02
  1.31016575e-02 -4.84003723e-03  5.92022021e-03 -1.79919375e-04  1.29564995e-02
  3.30535681e-02  6.17680364e-03  6.45383714e-03 -8.86556514e-04  7.01212792e-06
  1.58617713e-03  2.71741497e-03 -7.05680976e-03  1.03650297e-03 -9.49230824e-02
 -8.73457908e-03 -1.03507191e-02  7.50039828e-04 -1.50905057e-01 -8.78756385e-03
 -1.04218581e-02  1.70176572e-03 -1.22288281e-01  4.77917804e-04  6.50579937e-03
 -1.31250675e-02  4.52481211e-04 -5.51478939e-04 -1.10263547e-03 -1.81439972e-03
  2.77635970e-03 -2.55605011e-03 -8.15055382e-02  4.44020092e-03  5.01174303e-03
 -4.14381027e-03 -1.32736579e-01  1.28746559e-02 -4.12874770e-03 -4.48429769e-03
 -1.14860328e-01 -1.41085754e-03  5.79461541e-03  7.46167338e-03 -3.55627808e-04
  1.40381999e-04 -7.33144407e-04 -1.24975846e-03 -4.53279461e-03 -8.33093623e-03
 -1.43590958e-01  3.74487944e-03 -5.62532345e-03 -1.38024998e-02 -2.33736377e-01
  8.95919626e-03 -2.56569187e-03 -1.43491561e-02 -1.49214054e-01 -1.71165472e-02
  3.77013023e-03  7.23190878e-03 -8.89573146e-03  1.77987923e-03 -4.52112972e-04
 -8.17078366e-04  6.52149615e-04 -1.02244090e-02 -1.00304678e-01  4.50899986e-03
  3.45015122e-04 -1.68889580e-02 -1.74646271e-01 -1.70899034e-02  3.75179484e-03
 -9.47120143e-03 -9.75458158e-02 -1.17211595e-03 -2.85870049e-03  6.79399776e-03
 -1.16903079e-03 -1.11773787e-04  7.43519586e-02  1.09338049e-01  3.34786079e-02
  5.13580692e-03  9.25126698e-03 -1.13110040e-03 -1.14826657e-01 -1.73278121e-01
 -5.87878428e-02 -7.49792851e-03 -2.43109152e-03  1.04172239e-02  4.14750434e-02