Generated by Psi4
        SP                        DF-MP2                      6-311G**
Number of atoms                            I                3
Charge                                     I                0
Multiplicity                               I                1
Number of electrons                        I               10
Number of alpha electrons                  I                5
Number of beta electrons                   I                5
Number of basis functions                  I               30
Number of independent functions            I               30
Atomic numbers                             I   N=           3
           8           1           1
Nuclear charges                            R   N=           3
  8.00000000e+00  1.00000000e+00  1.00000000e+00
Current cartesian coordinates              R   N=           9
 -5.75874608e-04  1.25196376e-01  0.00000000e+00 -1.43195240e+00 -1.00006189e+00
  0.00000000e+00  1.44109195e+00 -9.86895449e-01  0.00000000e+00
Integer atomic weights                     I   N=           3
          15           1           1
Real atomic weights                        R   N=           3
  1.59949146e+01  1.00782503e+00  1.00782503e+00
Number of primitive shells                 I               29
Number of contracted shells                I               16
Pure/Cartesian d shells                    I                0
Pure/Cartesian f shells                    I                0
Highest angular momentum                   I                2
Largest degree of contraction              I                6
Shell types                                I   N=          16
           0           0           1           0           1           0
           1          -2           0           0           0           1
           0           0           0           1
Number of primitives per shell             I   N=          16
           6           3           3           1           1           1
           1           1           3           1           1           1
           3           1           1           1
Shell to atom map                          I   N=          16
           1           1           1           1           1           1
           1           1           2           2           2           2
           3           3           3           3
Primitive exponents                        R   N=          29
  8.58850000e+03  1.29723000e+03  2.99296000e+02  8.73771000e+01  2.56789000e+01
  3.74004000e+00  4.21175000e+01  9.62837000e+00  2.85332000e+00  4.21175000e+01
  9.62837000e+00  2.85332000e+00  9.05661000e-01  9.05661000e-01  2.55611000e-01
  2.55611000e-01  1.29200000e+00  3.38650000e+01  5.09479000e+00  1.15879000e+00
  3.25840000e-01  1.02741000e-01  7.50000000e-01  3.38650000e+01  5.09479000e+00
  1.15879000e+00  3.25840000e-01  1.02741000e-01  7.50000000e-01
Contraction coefficients                   R   N=          29
  1.89515008e-03  1.43859006e-02  7.07320031e-02  2.40001011e-01  5.94797026e-01
  2.80802012e-01  1.13889012e-01  9.20811101e-01 -3.27447036e-03  3.65113974e-02
  2.37152983e-01  8.19701941e-01  1.00000000e+00  1.00000000e+00  1.00000000e+00
  1.00000000e+00  1.00000000e+00  2.54938145e-02  1.90373109e-01  8.52161486e-01
  1.00000000e+00  1.00000000e+00  1.00000000e+00  2.54938145e-02  1.90373109e-01
  8.52161486e-01  1.00000000e+00  1.00000000e+00  1.00000000e+00
Coordinates of each shell                  R   N=          48
 -5.75874608e-04  1.25196376e-01  0.00000000e+00 -5.75874608e-04  1.25196376e-01
  0.00000000e+00 -5.75874608e-04  1.25196376e-01  0.00000000e+00 -5.75874608e-04
  1.25196376e-01  0.00000000e+00 -5.75874608e-04  1.25196376e-01  0.00000000e+00
 -5.75874608e-04  1.25196376e-01  0.00000000e+00 -5.75874608e-04  1.25196376e-01
  0.00000000e+00 -5.75874608e-04  1.25196376e-01  0.00000000e+00 -1.43195240e+00
 -1.00006189e+00  0.00000000e+00 -1.43195240e+00 -1.00006189e+00  0.00000000e+00
 -1.43195240e+00 -1.00006189e+00  0.00000000e+00 -1.43195240e+00 -1.00006189e+00
  0.00000000e+00  1.44109195e+00 -9.86895449e-01  0.00000000e+00  1.44109195e+00
 -9.86895449e-01  0.00000000e+00  1.44109195e+00 -9.86895449e-01  0.00000000e+00
  1.44109195e+00 -9.86895449e-01  0.00000000e+00
Total Energy                               R     -7.626378341681104e+01
Alpha Orbital Energies                     R   N=          30
 -2.05462216e+01 -1.33842818e+00 -7.02463219e-01 -5.71352739e-01 -4.99431756e-01
  1.49426716e-01  2.16351700e-01  5.63098809e-01  6.10819056e-01  9.99865268e-01
  1.00387985e+00  1.10888125e+00  1.31523722e+00  1.48591305e+00  1.51469234e+00
  1.71378976e+00  1.91857178e+00  2.23876416e+00  2.37956462e+00  2.59783208e+00
  2.78114077e+00  3.49214002e+00  3.54435489e+00  3.71167605e+00  4.00456605e+00
  4.25784486e+00  5.32591111e+00  5.74440349e+00  6.17285959e+00  5.15436477e+01
Alpha MO coefficients                      R   N=         900
  5.51454592e-01  4.71689053e-01  8.22323851e-06 -1.79329797e-03  0.00000000e+00
  5.46490767e-03 -2.98606164e-06  6.49021523e-04  0.00000000e+00 -4.65053841e-04
  4.08691784e-07 -8.96223066e-05  0.00000000e+00  1.37375471e-04  0.00000000e+00
  0.00000000e+00 -5.40306122e-05 -4.85808005e-07  1.99817205e-04  1.13992166e-04
  8.89156803e-05  8.69002496e-05  2.96570644e-05  0.00000000e+00  1.99809489e-04
  1.14007973e-04  8.89078480e-05 -8.71755022e-05  2.88664219e-05  0.00000000e+00
  1.13577648e-01  1.89794990e-01 -1.63801087e-04  3.60453050e-02  0.00000000e+00
 -5.40930225e-01 -2.76986839e-04  6.08384122e-02  0.00000000e+00 -3.78790634e-01
 -9.42106166e-05  2.06529681e-02  0.00000000e+00  7.86975699e-03  0.00000000e+00
  0.00000000e+00 -1.25885513e-03 -1.19963580e-05 -9.26208447e-02 -8.06982855e-02
  2.29610878e-03 -2.34838257e-02 -1.48567813e-02  0.00000000e+00 -9.26165393e-02
 -8.06961357e-02  2.29576043e-03  2.36189080e-02 -1.46403871e-02  0.00000000e+00
 -1.12147285e-06 -1.91426977e-06  2.25915525e-01  1.04086103e-03  0.00000000e+00
  5.77131054e-06  3.47383453e-01  1.59992176e-03  0.00000000e+00  1.07202224e-05
  2.17284954e-01  1.00082937e-03  0.00000000e+00  3.17899609e-07  0.00000000e+00
  0.00000000e+00  2.62759745e-04 -2.86265544e-02 -1.48106960e-01 -2.13527232e-01
 -5.89116039e-02 -1.89149025e-02 -2.64374727e-02  0.00000000e+00  1.48103867e-01
  2.13524553e-01  5.89127941e-02 -1.91568767e-02  2.62631588e-02  0.00000000e+00
  3.81249034e-02  6.47861854e-02  1.16745922e-03 -2.53830684e-01  0.00000000e+00
 -1.96098342e-01  1.72925851e-03 -3.75846212e-01  0.00000000e+00 -3.31631139e-01
  1.55473049e-03 -3.38036137e-01  0.00000000e+00 -1.27605420e-02  0.00000000e+00
  0.00000000e+00 -1.21127687e-02 -1.11398267e-04  8.82436731e-02  1.50150824e-01
  3.02729988e-02  3.01016818e-02 -8.02828782e-03  0.00000000e+00  8.82470890e-02
  1.50157293e-01  3.02776906e-02 -3.00270730e-02 -8.30303231e-03  0.00000000e+00
  0.00000000e+00  0.00000000e+00  0.00000000e+00  0.00000000e+00  2.92266587e-01
  0.00000000e+00  0.00000000e+00  0.00000000e+00  4.37168450e-01  0.00000000e+00
  0.00000000e+00  0.00000000e+00  4.66769879e-01  0.00000000e+00  7.76202362e-05
 -1.69534935e-02  0.00000000e+00  0.00000000e+00  0.00000000e+00  0.00000000e+00
  0.00000000e+00  0.00000000e+00  0.00000000e+00  3.06156739e-02  0.00000000e+00
  0.00000000e+00  0.00000000e+00  0.00000000e+00  0.00000000e+00  3.06149710e-02
  3.34879143e-02  5.45780536e-02 -3.54920154e-04  7.65309358e-02  0.00000000e+00
 -1.03570573e-01 -5.51241220e-04  1.19242277e-01  0.00000000e+00 -8.39031601e-01
 -9.94435890e-04  2.13951060e-01  0.00000000e+00  4.71819727e-03  0.00000000e+00
  0.00000000e+00  2.83848700e-03  2.57100465e-05  3.64531397e-02 -6.48063090e-02
  8.37050253e-01 -6.23366614e-03  3.19970302e-03  0.00000000e+00  3.64558631e-02
 -6.48061919e-02  8.37088432e-01  6.20452773e-03  3.25568174e-03  0.00000000e+00
  5.86725494e-07  9.28491096e-07  1.23970079e-01  5.68931615e-04  0.00000000e+00
 -9.96090748e-07  1.33665847e-01  6.13763134e-04  0.00000000e+00 -2.00674120e-05
  5.03765398e-01  2.31000523e-03  0.00000000e+00  2.66418797e-07  0.00000000e+00
  0.00000000e+00  4.35101657e-05 -4.76761919e-03  2.70461424e-02 -1.22037149e-01
  1.55020959e+00 -8.00342742e-03 -8.35645826e-03  0.00000000e+00 -2.70471853e-02
  1.22028088e-01 -1.55017371e+00 -8.07948003e-03  8.28227101e-03  0.00000000e+00
 -3.25664636e-06 -5.66708362e-06  1.22503138e-01  5.51101681e-04  0.00000000e+00
  1.43633403e-05  1.83806404e-01  8.25152845e-04  0.00000000e+00  8.16517889e-05
  1.08218496e+00  4.88498768e-03  0.00000000e+00  8.62559750e-07  0.00000000e+00
  0.00000000e+00 -1.37311997e-04  1.47749157e-02  8.34385303e-02  1.42824597e+00
 -7.61931597e-01  2.10644829e-02 -5.80543787e-03  0.00000000e+00 -8.34538048e-02
 -1.42855671e+00  7.62072252e-01  2.10118604e-02  5.99452807e-03  0.00000000e+00
  3.35012984e-02  5.86399451e-02 -4.57946021e-04  1.02225401e-01  0.00000000e+00
 -1.36587677e-01 -8.43173057e-04  1.87926426e-01  0.00000000e+00 -1.30873436e+00
 -4.58430518e-03  1.02933493e+00  0.00000000e+00 -3.55948453e-03  0.00000000e+00
  0.00000000e+00  1.42102487e-02  1.30996040e-04  6.48600094e-02  1.77292328e+00
 -6.24264985e-01  2.72411598e-02  3.79679350e-02  0.00000000e+00  6.48453725e-02
  1.77259043e+00 -6.24137988e-01 -2.75798390e-02  3.77143989e-02  0.00000000e+00
  1.47001874e-02  2.73102390e-02  1.07096734e-03 -2.33744383e-01  0.00000000e+00
 -5.72498150e-02  3.39056736e-03 -7.39136250e-01  0.00000000e+00 -9.06460284e-01
 -7.19747918e-03  1.56981649e+00  0.00000000e+00  1.17369183e-02  0.00000000e+00
  0.00000000e+00 -1.08941289e-02 -1.00558834e-04  3.10041693e-02  5.82658807e-01
  9.99076912e-02  1.44210844e-01  1.11407870e-01  0.00000000e+00  3.10014867e-02
  5.82659194e-01  9.98915081e-02 -1.45224358e-01  1.10083083e-01  0.00000000e+00
  0.00000000e+00  0.00000000e+00  0.00000000e+00  0.00000000e+00  2.40269555e-01
  0.00000000e+00  0.00000000e+00  0.00000000e+00  8.37088161e-01  0.00000000e+00
  0.00000000e+00  0.00000000e+00 -1.14881126e+00  0.00000000e+00  3.66885595e-05
 -8.06014486e-03  0.00000000e+00  0.00000000e+00  0.00000000e+00  0.00000000e+00
  0.00000000e+00  0.00000000e+00  0.00000000e+00  1.74981087e-02  0.00000000e+00
  0.00000000e+00  0.00000000e+00  0.00000000e+00  0.00000000e+00  1.74900879e-02
  9.93752168e-08  2.37707498e-08  2.39638303e-01  1.09898842e-03  0.00000000e+00
  4.55122424e-06  7.15480429e-01  3.27821414e-03  0.00000000e+00 -8.33068474e-06
 -1.79090373e+00 -8.19893208e-03  0.00000000e+00 -3.04952999e-07  0.00000000e+00
  0.00000000e+00 -2.70965993e-04  2.95149612e-02 -1.37046874e-02 -3.49901982e-01
 -7.67898391e-01 -1.72959802e-01 -1.44067625e-01  0.00000000e+00  1.36991559e-02
  3.49937366e-01  7.67885800e-01 -1.74283251e-01  1.42473146e-01  0.00000000e+00
  9.96297734e-02  2.05151907e-01 -1.27098156e-04  2.78902415e-02  0.00000000e+00
 -1.50823672e+00  6.92328781e-04 -1.53644267e-01  0.00000000e+00  3.08451125e+00
  2.65140076e-03 -5.79946253e-01  0.00000000e+00 -2.93773034e-02  0.00000000e+00
  0.00000000e+00 -2.03125137e-02 -1.82977790e-04  1.61352759e-02 -8.49485233e-01
 -3.39667441e-01 -1.50344437e-01 -3.70941859e-01  0.00000000e+00  1.61387193e-02
 -8.49457725e-01 -3.39646422e-01  1.53730352e-01 -3.69537148e-01  0.00000000e+00
  3.55662621e-02  7.43798322e-02  4.83290548e-05 -1.02525086e-02  0.00000000e+00
 -6.31806447e-01  3.85716995e-04 -8.46183306e-02  0.00000000e+00  2.02527630e+00
  5.68438062e-03 -1.24311005e+00  0.00000000e+00  9.31804999e-03  0.00000000e+00
  0.00000000e+00  1.31411343e-01  1.20884712e-03  8.37876313e-02 -1.16347269e+00
  2.35271663e-02 -5.98339090e-01  4.09454611e-01  0.00000000e+00  8.37899876e-02
 -1.16343168e+00  2.35382234e-02  5.94547517e-01  4.14941574e-01  0.00000000e+00
  0.00000000e+00  0.00000000e+00  0.00000000e+00  0.00000000e+00  1.41557518e-06
  0.00000000e+00  0.00000000e+00  0.00000000e+00  1.07386821e-05  0.00000000e+00
  0.00000000e+00  0.00000000e+00 -1.03872670e-05  0.00000000e+00  1.25125785e-01
  5.71844974e-04  0.00000000e+00  0.00000000e+00  0.00000000e+00  0.00000000e+00
  0.00000000e+00  0.00000000e+00  0.00000000e+00 -6.88835417e-01  0.00000000e+00
  0.00000000e+00  0.00000000e+00  0.00000000e+00  0.00000000e+00  6.88850574e-01
  0.00000000e+00  0.00000000e+00  0.00000000e+00  0.00000000e+00  4.78558098e-02
  0.00000000e+00  0.00000000e+00  0.00000000e+00  4.39501196e-02  0.00000000e+00
  0.00000000e+00  0.00000000e+00  5.57418694e-01  0.00000000e+00 -6.72387974e-04
  1.46691213e-01  0.00000000e+00  0.00000000e+00  0.00000000e+00  0.00000000e+00
  0.00000000e+00  0.00000000e+00  0.00000000e+00 -7.66408173e-01  0.00000000e+00
  0.00000000e+00  0.00000000e+00  0.00000000e+00  0.00000000e+00 -7.66391238e-01
 -5.88256830e-07 -1.30099171e-06  1.33042357e-02  6.16540467e-05  0.00000000e+00
  8.65462709e-06  3.99384790e-02  1.85164037e-04  0.00000000e+00  2.01382729e-05
 -8.95887116e-01 -4.11710959e-03  0.00000000e+00  5.90441509e-08  0.00000000e+00
  0.00000000e+00 -6.48076469e-04  7.05468375e-02  1.78678817e-01 -7.21393853e-01
  1.55843260e-01  4.91697516e-01 -6.38314535e-01  0.00000000e+00 -1.78684927e-01
  7.21376300e-01 -1.55848065e-01  4.85828986e-01  6.42784980e-01  0.00000000e+00
 -2.97162112e-06 -5.92326457e-06  1.71615808e-01  7.76955879e-04  0.00000000e+00
  2.32679475e-05  4.84252095e-01  2.18897293e-03  0.00000000e+00  8.24375467e-05
  1.84850091e-02  5.66601682e-05  0.00000000e+00  1.43221494e-05  0.00000000e+00
  0.00000000e+00 -2.11212511e-03  2.30027076e-01  6.67039911e-01 -6.47266741e-01
  5.29215129e-01  3.04340223e-01  4.93395569e-01  0.00000000e+00 -6.67106731e-01
  6.47247560e-01 -5.29253403e-01  3.08963935e-01 -4.90642187e-01  0.00000000e+00
  3.09629463e-02  5.84001765e-02 -7.36811026e-04  1.63302368e-01  0.00000000e+00
 -2.52547485e-01 -1.15863290e-03  2.56623222e-01  0.00000000e+00  4.69038461e-02
  8.23479965e-04 -1.87041295e-01  0.00000000e+00 -2.77982252e-01  0.00000000e+00
  0.00000000e+00  6.58397910e-02  6.30022540e-04  8.67800406e-01 -1.01626941e+00
  4.05334102e-01  3.25081425e-01  1.55803706e-01  0.00000000e+00  8.67678604e-01
 -1.01607877e+00  4.05253913e-01 -3.26495917e-01  1.52794050e-01  0.00000000e+00
  5.40013681e-02  1.25887556e-01 -8.85932061e-05  2.00712989e-02  0.00000000e+00
 -8.65945917e-01 -2.98451464e-03  6.58995773e-01  0.00000000e+00 -1.77689074e+00
 -3.45944710e-03  7.56790830e-01  0.00000000e+00 -1.36202240e-02  0.00000000e+00
  0.00000000e+00 -2.44952325e-02 -2.23696240e-04 -5.95001860e-01  2.00751303e+00
 -2.79586373e-01  8.80307844e-01  6.55370734e-01  0.00000000e+00 -5.95062506e-01
  2.00748716e+00 -2.79617194e-01 -8.86223701e-01  6.47213209e-01  0.00000000e+00
  1.26138779e-06  3.49083019e-06  1.19812773e-02  5.64324547e-05  0.00000000e+00
 -4.13875115e-05  8.65632469e-01  3.99228209e-03  0.00000000e+00 -3.57510374e-05
  6.73265301e-01  3.09640657e-03  0.00000000e+00  2.70926457e-07  0.00000000e+00
  0.00000000e+00  2.09601399e-03 -2.28528493e-01 -8.05002477e-01  2.07192161e+00
 -5.28089901e-01  8.68635742e-01  6.32849975e-01  0.00000000e+00  8.05065714e-01
 -2.07191646e+00  5.28108982e-01  8.74367999e-01 -6.24820768e-01  0.00000000e+00
  0.00000000e+00  0.00000000e+00  0.00000000e+00  0.00000000e+00  1.76514511e-02
  0.00000000e+00  0.00000000e+00  0.00000000e+00 -1.53151927e-02  0.00000000e+00
  0.00000000e+00  0.00000000e+00  2.63344463e-01  0.00000000e+00  4.90253236e-03
 -1.03298443e+00  0.00000000e+00  0.00000000e+00  0.00000000e+00  0.00000000e+00
  0.00000000e+00  0.00000000e+00  0.00000000e+00 -3.53354957e-01  0.00000000e+00
  0.00000000e+00  0.00000000e+00  0.00000000e+00  0.00000000e+00 -3.53451392e-01
  0.00000000e+00  0.00000000e+00  0.00000000e+00  0.00000000e+00 -4.95100784e-06
  0.00000000e+00  0.00000000e+00  0.00000000e+00  8.79311648e-07  0.00000000e+00
  0.00000000e+00  0.00000000e+00 -4.67357438e-05  0.00000000e+00  1.05137199e+00
  4.98849397e-03  0.00000000e+00  0.00000000e+00  0.00000000e+00  0.00000000e+00
  0.00000000e+00  0.00000000e+00  0.00000000e+00  3.35615731e-01  0.00000000e+00
  0.00000000e+00  0.00000000e+00  0.00000000e+00  0.00000000e+00 -3.35492326e-01
  6.79088223e-04  1.03526261e-03 -1.74220564e-04  3.74184720e-02  0.00000000e+00
  5.56668056e-02 -1.10078610e-04  2.44138111e-02  0.00000000e+00 -6.84910313e-01
 -2.73079857e-03  5.93362707e-01  0.00000000e+00  3.99919635e-01  0.00000000e+00
  0.00000000e+00  1.00277430e+00  9.20547751e-03  9.46216230e-03  4.68309431e-01
 -3.06171142e-02  3.75780619e-01 -2.45842723e-01  0.00000000e+00  9.46493449e-03
  4.68303458e-01 -3.06127814e-02 -3.73498929e-01 -2.49265342e-01  0.00000000e+00
  2.18670383e-02  4.31989978e-02 -1.40461578e-03  3.04191740e-01  0.00000000e+00
 -1.08488192e-01 -5.33538568e-04  1.18321831e-01  0.00000000e+00 -2.00854711e+00
 -4.37767554e-03  9.48676547e-01  0.00000000e+00  1.03227925e+00  0.00000000e+00
  0.00000000e+00 -4.39005911e-01 -3.98913747e-03  3.03271411e-01  1.06867326e+00
  4.54930690e-02  5.71242507e-01  4.66904682e-01  0.00000000e+00  3.03267379e-01
  1.06869706e+00  4.54976667e-02 -5.75535405e-01  4.61660511e-01  0.00000000e+00
  1.46916903e-06  3.08956039e-06  4.43379048e-01  2.05393044e-03  0.00000000e+00
 -2.12477588e-05 -3.45417053e-02 -1.53236539e-04  0.00000000e+00 -7.96863184e-05
  9.19361411e-01  4.25523393e-03  0.00000000e+00  3.56962739e-05  0.00000000e+00
  0.00000000e+00  1.05917550e-02 -1.15526276e+00  3.98312960e-01  5.01243601e-01
  2.26051274e-01  4.62496577e-01  3.59802157e-01  0.00000000e+00 -3.98259885e-01
 -5.01173739e-01 -2.26040818e-01  4.65735637e-01 -3.55512529e-01  0.00000000e+00
  0.00000000e+00  0.00000000e+00  0.00000000e+00  0.00000000e+00  1.27037726e+00
  0.00000000e+00  0.00000000e+00  0.00000000e+00 -1.37337905e+00  0.00000000e+00
  0.00000000e+00  0.00000000e+00  4.83170422e-01  0.00000000e+00 -1.15691238e-04
  2.58363534e-02  0.00000000e+00  0.00000000e+00  0.00000000e+00  0.00000000e+00
  0.00000000e+00  0.00000000e+00  0.00000000e+00  5.61912506e-02  0.00000000e+00
  0.00000000e+00  0.00000000e+00  0.00000000e+00  0.00000000e+00  5.61857948e-02
  2.18137233e-02  4.08959941e-02  5.83269323e-03 -1.26226660e+00  0.00000000e+00
 -2.11089713e-01 -7.87421580e-03  1.70604736e+00  0.00000000e+00 -9.91464693e-01
  4.58828488e-04 -9.75362808e-02  0.00000000e+00  3.56875982e-01  0.00000000e+00
  0.00000000e+00 -9.27410244e-02 -8.44064594e-04  2.71084866e-01  4.87089033e-01
  1.10228810e-02  4.59247502e-01  2.69683004e-01  0.00000000e+00  2.71075302e-01
  4.87100490e-01  1.10087790e-02 -4.61716968e-01  2.65476171e-01  0.00000000e+00
 -1.91729191e-06 -3.66962261e-06  1.25715677e+00  5.80631901e-03  0.00000000e+00
  3.18526174e-05 -1.97739852e+00 -9.14158413e-03  0.00000000e+00  5.32904137e-05
  1.60595823e-01  7.34545098e-04  0.00000000e+00 -1.91303877e-05  0.00000000e+00
  0.00000000e+00 -5.84053526e-03  6.37219523e-01 -3.34068419e-01 -4.76922272e-01
  1.47539476e-01 -5.06811780e-01 -4.55030859e-01  0.00000000e+00  3.34013179e-01
  4.76872686e-01 -1.47543542e-01 -5.10922150e-01  4.50327586e-01  0.00000000e+00
  2.24710770e+00 -2.33569455e+00 -8.01231860e-05  1.76931605e-02  0.00000000e+00
  2.64041093e-01  3.06862484e-04 -6.80034871e-02  0.00000000e+00 -7.84752973e-02
  3.64913484e-05 -8.29333665e-03  0.00000000e+00 -2.22290447e-02  0.00000000e+00
  0.00000000e+00  9.08192002e-03  8.55028937e-05 -4.05841887e-03 -6.33506695e-02
  3.07656195e-02 -5.63939132e-02 -4.35435511e-02  0.00000000e+00 -4.05543368e-03
 -6.33424946e-02  3.07637642e-02  5.67852036e-02 -4.30193333e-02  0.00000000e+00
Total SCF Density                          R   N=         465
  6.36911116e-01  5.68283061e-01  5.25419903e-01  6.03730242e-05  9.59859033e-05
  1.02078429e-01 -1.31445058e-02 -2.08987689e-02 -1.34218624e-04  1.31467159e-01
  0.00000000e+00  0.00000000e+00  0.00000000e+00  0.00000000e+00  1.70839515e-01
 -1.31800329e-01 -2.25585147e-01 -2.77966179e-04  6.05359742e-02  0.00000000e+00
  6.62179867e-01  6.48640827e-05  1.14775739e-04  1.56962759e-01 -1.74679383e-04
  0.00000000e+00 -3.74571266e-04  2.41356661e-01 -1.41226253e-02 -2.49933664e-02
 -1.74596039e-04  1.95189483e-01  0.00000000e+00  8.15940781e-02 -2.22004579e-04
  2.89929337e-01  0.00000000e+00  0.00000000e+00  0.00000000e+00  0.00000000e+00
  2.55539462e-01  0.00000000e+00  0.00000000e+00  0.00000000e+00  3.82232508e-01
 -1.11844021e-01 -1.87194084e-01 -6.45402942e-04  1.41050760e-01  0.00000000e+00
  5.39858156e-01 -9.29661061e-04  2.03194004e-01  0.00000000e+00  5.06923546e-01
  9.71108507e-05  1.65242376e-04  9.81797497e-02 -3.43742893e-04  0.00000000e+00
 -5.05324898e-04  1.50967824e-01 -4.84863996e-04  0.00000000e+00 -9.55163581e-04
  9.44303542e-02 -2.11826066e-02 -3.60450355e-02 -3.43848451e-04  1.73099178e-01
  0.00000000e+00  1.10232055e-01 -4.85201269e-04  2.56615277e-01  0.00000000e+00
  2.08560421e-01 -6.20071381e-04  2.29391969e-01  0.00000000e+00  0.00000000e+00
  0.00000000e+00  0.00000000e+00  2.72842478e-01  0.00000000e+00  0.00000000e+00
  0.00000000e+00  4.08114129e-01  0.00000000e+00  0.00000000e+00  0.00000000e+00
  4.35748239e-01  9.66180779e-04  1.46346423e-03 -3.22270781e-05  7.04487777e-03
  0.00000000e+00 -3.50783507e-03 -4.82721443e-05  1.05497492e-02  0.00000000e+00
  2.50147794e-03 -4.10229750e-05  8.95209237e-03  0.00000000e+00  4.49566761e-04
  0.00000000e+00  0.00000000e+00  0.00000000e+00  0.00000000e+00  4.53716030e-05
  0.00000000e+00  0.00000000e+00  0.00000000e+00  6.78662368e-05  0.00000000e+00
  0.00000000e+00  0.00000000e+00  7.24615765e-05  0.00000000e+00  1.20498021e-08
  0.00000000e+00  0.00000000e+00  0.00000000e+00  0.00000000e+00 -9.90987936e-03
  0.00000000e+00  0.00000000e+00  0.00000000e+00 -1.48230650e-02  0.00000000e+00
  0.00000000e+00  0.00000000e+00 -1.58267602e-02  0.00000000e+00 -2.63186834e-06
  5.74841885e-04 -1.26914333e-03 -2.09830125e-03  9.08521996e-05  6.05917385e-03
  0.00000000e+00  6.11190577e-03  1.41362253e-04  8.95267359e-03  0.00000000e+00
  8.98768348e-03  7.67604472e-05  8.13764450e-03  0.00000000e+00  2.89302542e-04
  0.00000000e+00  0.00000000e+00  2.96751686e-04 -1.16907269e-05 -1.93365376e-05
 -1.29346223e-02 -3.90301532e-06  0.00000000e+00  5.63326810e-05 -1.98891612e-02
 -9.32357058e-06  0.00000000e+00  8.23611703e-05 -1.24405832e-02  1.75172531e-05
  0.00000000e+00  2.63585349e-06  0.00000000e+00  0.00000000e+00 -1.23148735e-05
  1.63898434e-03 -1.40900399e-02 -2.35349325e-02 -6.66829354e-02 -5.17840312e-02
  0.00000000e+00  6.55944273e-02 -1.02543314e-01 -7.80755705e-02  0.00000000e+00
  1.16357561e-02 -6.40709857e-02 -6.37813869e-02  0.00000000e+00 -3.70992055e-03
  0.00000000e+00  0.00000000e+00 -1.98241263e-03  8.46214554e-03  7.66025565e-02
 -6.75586966e-03 -1.10685072e-02 -9.61012049e-02 -8.24882745e-02  0.00000000e+00
  2.84144095e-02 -1.47787651e-01 -1.23369454e-01  0.00000000e+00 -3.84585522e-02
 -9.23104160e-02 -1.05273556e-01  0.00000000e+00 -5.10226804e-03  0.00000000e+00
  0.00000000e+00 -3.54653453e-03  1.21935808e-02  1.04698191e-01  1.49302750e-01
  2.92808164e-03  4.87823076e-03 -2.65481576e-02 -1.53258606e-02  0.00000000e+00
 -1.43567472e-02 -4.08264056e-02 -2.26649931e-02  0.00000000e+00 -2.18197729e-02
 -2.55075101e-02 -2.04898291e-02  0.00000000e+00 -7.36473138e-04  0.00000000e+00
  0.00000000e+00 -7.70129402e-04  3.36607257e-03  2.23679388e-02  3.38789311e-02
  8.78462310e-03 -2.94334245e-03 -4.93182647e-03 -8.46836049e-03 -1.70141115e-02
  0.00000000e+00  1.36011740e-02 -1.30243322e-02 -2.55450554e-02  0.00000000e+00
 -2.17488992e-03 -8.12182248e-03 -2.13588106e-02  0.00000000e+00 -1.13783970e-03
  0.00000000e+00  0.00000000e+00 -6.80053486e-04  1.07679377e-03  1.52656416e-02
  2.09075069e-02  3.94332345e-03  3.63076480e-03 -3.95418361e-03 -6.65165058e-03
 -1.19591489e-02  2.94947531e-03  0.00000000e+00  1.92216510e-02 -1.83874170e-02
  4.14251988e-03  0.00000000e+00  1.65794853e-02 -1.15110944e-02  4.76110542e-03
  0.00000000e+00 -2.89565694e-05  0.00000000e+00  0.00000000e+00  2.17998045e-04
  1.51577260e-03  9.16636335e-03  1.12771730e-02  2.56064685e-03  1.21458779e-03
  1.96823640e-03  0.00000000e+00  0.00000000e+00  0.00000000e+00  0.00000000e+00
  1.78958770e-02  0.00000000e+00  0.00000000e+00  0.00000000e+00  2.67684134e-02
  0.00000000e+00  0.00000000e+00  0.00000000e+00  2.85809487e-02  0.00000000e+00
  4.75279167e-06 -1.03808526e-03  0.00000000e+00  0.00000000e+00  0.00000000e+00
  0.00000000e+00  0.00000000e+00  0.00000000e+00  0.00000000e+00  1.87463897e-03
 -1.40894744e-02 -2.35339970e-02  6.71543203e-02 -5.11688263e-02  0.00000000e+00
  6.55918487e-02  1.03254176e-01 -7.71297860e-02  0.00000000e+00  1.16365796e-02
  6.46533359e-02 -6.31906054e-02  0.00000000e+00 -3.70975163e-03  0.00000000e+00
  0.00000000e+00 -1.82684166e-03 -8.49684605e-03 -1.11394085e-02 -2.17996342e-02
 -1.25323445e-02  4.06004722e-03 -6.49595078e-03  0.00000000e+00  7.66003351e-02
 -6.75582850e-03 -1.10684731e-02  9.68540663e-02 -8.16024003e-02  0.00000000e+00
  2.84144762e-02  1.48913818e-01 -1.22007556e-01  0.00000000e+00 -3.84553151e-02
  9.32734585e-02 -1.04423029e-01  0.00000000e+00 -5.10212776e-03  0.00000000e+00
  0.00000000e+00 -3.32227261e-03 -1.22564630e-02 -2.17997488e-02 -3.30700259e-02
 -1.64372787e-02  4.75250965e-03 -1.13033346e-02  0.00000000e+00  1.04697151e-01
  1.49303653e-01  2.92808734e-03  4.87824798e-03  2.66885749e-02 -1.50829899e-02
  0.00000000e+00 -1.43568505e-02  4.10341033e-02 -2.22915427e-02  0.00000000e+00
 -2.18200947e-02  2.56954423e-02 -2.02571712e-02  0.00000000e+00 -7.36523450e-04
  0.00000000e+00  0.00000000e+00 -7.08323169e-04 -3.37974154e-03 -1.25323954e-02
 -1.64370390e-02 -5.09754296e-03 -5.13651721e-04 -3.66937675e-03  0.00000000e+00
  2.23690462e-02  3.38809905e-02  8.78546856e-03  2.97949782e-03  4.99265567e-03
 -8.73352154e-03  1.69067198e-02  0.00000000e+00 -1.37770179e-02 -1.34264969e-02
  2.53835848e-02  0.00000000e+00  2.02225292e-03 -8.42282054e-03  2.12377427e-02
  0.00000000e+00  1.13803746e-03  0.00000000e+00  0.00000000e+00  6.57898518e-04
  1.10291408e-03 -4.00010612e-03 -4.64818038e-03  5.47553245e-04 -2.19236967e-03
  7.93243709e-04  0.00000000e+00 -1.53490565e-02 -2.10104241e-02 -3.96703992e-03
  3.65294290e-03 -3.92696795e-03 -6.60605645e-03  1.18519204e-02  3.21426337e-03
  0.00000000e+00  1.90958962e-02  1.82261676e-02  4.54400614e-03  0.00000000e+00
  1.65989074e-02  1.13901191e-02  5.06127975e-03  0.00000000e+00 -1.85055626e-05
  0.00000000e+00  0.00000000e+00  2.51804355e-04 -1.50144636e-03 -6.53287177e-03
 -1.13462986e-02 -3.66435170e-03 -8.05771031e-04 -8.20325050e-04  0.00000000e+00
  9.02580943e-03  1.10849887e-02  2.52446234e-03 -1.19919362e-03  1.94607125e-03
  0.00000000e+00  0.00000000e+00  0.00000000e+00  0.00000000e+00  1.78954661e-02
  0.00000000e+00  0.00000000e+00  0.00000000e+00  2.67677988e-02  0.00000000e+00
  0.00000000e+00  0.00000000e+00  2.85802926e-02  0.00000000e+00  4.75268256e-06
 -1.03806142e-03  0.00000000e+00  0.00000000e+00  0.00000000e+00  0.00000000e+00
  0.00000000e+00  0.00000000e+00  0.00000000e+00  1.87459593e-03  0.00000000e+00
  0.00000000e+00  0.00000000e+00  0.00000000e+00  0.00000000e+00  1.87455289e-03
Total CC Density                           R   N=         465
  6.36911116e-01  5.68283061e-01  5.25419903e-01  6.03730242e-05  9.59859033e-05
  1.02078429e-01 -1.31445058e-02 -2.08987689e-02 -1.34218624e-04  1.31467159e-01
  0.00000000e+00  0.00000000e+00  0.00000000e+00  0.00000000e+00  1.70839515e-01
 -1.31800329e-01 -2.25585147e-01 -2.77966179e-04  6.05359742e-02  0.00000000e+00
  6.62179867e-01  6.48640827e-05  1.14775739e-04  1.56962759e-01 -1.74679383e-04
  0.00000000e+00 -3.74571266e-04  2.41356661e-01 -1.41226253e-02 -2.49933664e-02
 -1.74596039e-04  1.95189483e-01  0.00000000e+00  8.15940781e-02 -2.22004579e-04
  2.89929337e-01  0.00000000e+00  0.00000000e+00  0.00000000e+00  0.00000000e+00
  2.55539462e-01  0.00000000e+00  0.00000000e+00  0.00000000e+00  3.82232508e-01
 -1.11844021e-01 -1.87194084e-01 -6.45402942e-04  1.41050760e-01  0.00000000e+00
  5.39858156e-01 -9.29661061e-04  2.03194004e-01  0.00000000e+00  5.06923546e-01
  9.71108507e-05  1.65242376e-04  9.81797497e-02 -3.43742893e-04  0.00000000e+00
 -5.05324898e-04  1.50967824e-01 -4.84863996e-04  0.00000000e+00 -9.55163581e-04
  9.44303542e-02 -2.11826066e-02 -3.60450355e-02 -3.43848451e-04  1.73099178e-01
  0.00000000e+00  1.10232055e-01 -4.85201269e-04  2.56615277e-01  0.00000000e+00
  2.08560421e-01 -6.20071381e-04  2.29391969e-01  0.00000000e+00  0.00000000e+00
  0.00000000e+00  0.00000000e+00  2.72842478e-01  0.00000000e+00  0.00000000e+00
  0.00000000e+00  4.08114129e-01  0.00000000e+00  0.00000000e+00  0.00000000e+00
  4.35748239e-01  9.66180779e-04  1.46346423e-03 -3.22270781e-05  7.04487777e-03
  0.00000000e+00 -3.50783507e-03 -4.82721443e-05  1.05497492e-02  0.00000000e+00
  2.50147794e-03 -4.10229750e-05  8.95209237e-03  0.00000000e+00  4.49566761e-04
  0.00000000e+00  0.00000000e+00  0.00000000e+00  0.00000000e+00  4.53716030e-05
  0.00000000e+00  0.00000000e+00  0.00000000e+00  6.78662368e-05  0.00000000e+00
  0.00000000e+00  0.00000000e+00  7.24615765e-05  0.00000000e+00  1.20498021e-08
  0.00000000e+00  0.00000000e+00  0.00000000e+00  0.00000000e+00 -9.90987936e-03
  0.00000000e+00  0.00000000e+00  0.00000000e+00 -1.48230650e-02  0.00000000e+00
  0.00000000e+00  0.00000000e+00 -1.58267602e-02  0.00000000e+00 -2.63186834e-06
  5.74841885e-04 -1.26914333e-03 -2.09830125e-03  9.08521996e-05  6.05917385e-03
  0.00000000e+00  6.11190577e-03  1.41362253e-04  8.95267359e-03  0.00000000e+00
  8.98768348e-03  7.67604472e-05  8.13764450e-03  0.00000000e+00  2.89302542e-04
  0.00000000e+00  0.00000000e+00  2.96751686e-04 -1.16907269e-05 -1.93365376e-05
 -1.29346223e-02 -3.90301532e-06  0.00000000e+00  5.63326810e-05 -1.98891612e-02
 -9.32357058e-06  0.00000000e+00  8.23611703e-05 -1.24405832e-02  1.75172531e-05
  0.00000000e+00  2.63585349e-06  0.00000000e+00  0.00000000e+00 -1.23148735e-05