Generated by Psi4
        SP                        DF-MP2                      6-311G**
Number of atoms                            I                3
Charge                                     I                0
Multiplicity                               I                1
Number of electrons                        I               10
Number of alpha electrons                  I                5
Number of beta electrons                   I                5
Number of basis functions                  I               30
Number of independent functions            I               30
Atomic numbers                             I   N=           3
           8           1           1
Nuclear charges                            R   N=           3
  8.00000000e+00  1.00000000e+00  1.00000000e+00
Current cartesian coordinates              R   N=           9
  1.84151741e-03  1.26115469e-01  0.00000000e+00  1.42754720e+00 -1.02182979e+00
  0.00000000e+00 -1.45677342e+00 -9.79714223e-01  0.00000000e+00
Integer atomic weights                     I   N=           3
          16           1           1
Real atomic weights                        R   N=           3
  1.59949146e+01  1.00782503e+00  1.00782503e+00
Number of primitive shells                 I               29
Number of contracted shells                I               16
Pure/Cartesian d shells                    I                0
Pure/Cartesian f shells                    I                0
Highest angular momentum                   I                2
Largest degree of contraction              I                6
Shell types                                I   N=          16
           0           0           1           0           1           0
           1          -2           0           0           0           1
           0           0           0           1
Number of primitives per shell             I   N=          16
           6           3           3           1           1           1
           1           1           3           1           1           1
           3           1           1           1
Shell to atom map                          I   N=          16
           1           1           1           1           1           1
           1           1           2           2           2           2
           3           3           3           3
Primitive exponents                        R   N=          29
  8.58850000e+03  1.29723000e+03  2.99296000e+02  8.73771000e+01  2.56789000e+01
  3.74004000e+00  4.21175000e+01  9.62837000e+00  2.85332000e+00  4.21175000e+01
  9.62837000e+00  2.85332000e+00  9.05661000e-01  9.05661000e-01  2.55611000e-01
  2.55611000e-01  1.29200000e+00  3.38650000e+01  5.09479000e+00  1.15879000e+00
  3.25840000e-01  1.02741000e-01  7.50000000e-01  3.38650000e+01  5.09479000e+00
  1.15879000e+00  3.25840000e-01  1.02741000e-01  7.50000000e-01
Contraction coefficients                   R   N=          29
  1.89515008e-03  1.43859006e-02  7.07320031e-02  2.40001011e-01  5.94797026e-01
  2.80802012e-01  1.13889012e-01  9.20811101e-01 -3.27447036e-03  3.65113974e-02
  2.37152983e-01  8.19701941e-01  1.00000000e+00  1.00000000e+00  1.00000000e+00
  1.00000000e+00  1.00000000e+00  2.54938145e-02  1.90373109e-01  8.52161486e-01
  1.00000000e+00  1.00000000e+00  1.00000000e+00  2.54938145e-02  1.90373109e-01
  8.52161486e-01  1.00000000e+00  1.00000000e+00  1.00000000e+00
Coordinates of each shell                  R   N=          48
  1.84151741e-03  1.26115469e-01  0.00000000e+00  1.84151741e-03  1.26115469e-01
  0.00000000e+00  1.84151741e-03  1.26115469e-01  0.00000000e+00  1.84151741e-03
  1.26115469e-01  0.00000000e+00  1.84151741e-03  1.26115469e-01  0.00000000e+00
  1.84151741e-03  1.26115469e-01  0.00000000e+00  1.84151741e-03  1.26115469e-01
  0.00000000e+00  1.84151741e-03  1.26115469e-01  0.00000000e+00  1.42754720e+00
 -1.02182979e+00  0.00000000e+00  1.42754720e+00 -1.02182979e+00  0.00000000e+00
  1.42754720e+00 -1.02182979e+00  0.00000000e+00  1.42754720e+00 -1.02182979e+00
  0.00000000e+00 -1.45677342e+00 -9.79714223e-01  0.00000000e+00 -1.45677342e+00
 -9.79714223e-01  0.00000000e+00 -1.45677342e+00 -9.79714223e-01  0.00000000e+00
 -1.45677342e+00 -9.79714223e-01  0.00000000e+00
Total Energy                               R     -7.626362192286261e+01
Alpha Orbital Energies                     R   N=          30
 -2.05472632e+01 -1.33599481e+00 -6.99380765e-01 -5.70797015e-01 -4.99138016e-01
  1.48706229e-01  2.15798531e-01  5.60109080e-01  6.08252586e-01  1.00038337e+00
  1.00401217e+00  1.10827876e+00  1.31626726e+00  1.48482414e+00  1.51411649e+00
  1.71149928e+00  1.91513589e+00  2.23051768e+00  2.37388213e+00  2.59648166e+00
  2.78351540e+00  3.48854496e+00  3.53852514e+00  3.70514060e+00  3.99892864e+00
  4.25196097e+00  5.32487636e+00  5.73957773e+00  6.15530566e+00  5.15370539e+01
Alpha MO coefficients                      R   N=         900
  5.51459872e-01  4.71691200e-01 -2.61983019e-05 -1.79420759e-03  0.00000000e+00
  5.44389502e-03  9.56563178e-06  6.55097657e-04  0.00000000e+00 -4.63536281e-04
 -1.30017925e-06 -8.90460046e-05  0.00000000e+00  1.41885365e-04  0.00000000e+00
  0.00000000e+00 -5.54787375e-05  1.62034422e-06  1.97513832e-04  1.19598196e-04
  8.68381311e-05 -8.97116837e-05  3.40612032e-05  0.00000000e+00  1.97513701e-04
  1.19598444e-04  8.68380044e-05  9.06680309e-05  3.14274905e-05  0.00000000e+00
  1.13638141e-01  1.89912910e-01  5.19134914e-04  3.55549628e-02  0.00000000e+00
 -5.41654836e-01  8.79673002e-04  6.02472132e-02  0.00000000e+00 -3.80405797e-01
  3.01028006e-04  2.06166516e-02  0.00000000e+00  7.76522327e-03  0.00000000e+00
  0.00000000e+00 -1.20497301e-03  3.52039542e-05 -9.17166942e-02 -8.05065286e-02
  2.20552865e-03  2.32591484e-02 -1.51340245e-02  0.00000000e+00 -9.17166231e-02
 -8.05064926e-02  2.20552286e-03 -2.36910970e-02 -1.44484689e-02  0.00000000e+00
  1.88392774e-08  3.21602501e-08  2.25553339e-01 -3.29352296e-03  0.00000000e+00
 -9.69210653e-08  3.47008132e-01 -5.06699230e-03  0.00000000e+00 -1.80119598e-07
  2.18397629e-01 -3.18903096e-03  0.00000000e+00 -5.30593813e-09  0.00000000e+00
  0.00000000e+00 -8.31110015e-04 -2.84533579e-02  1.47421185e-01  2.13751492e-01
  5.98659624e-02 -1.87393444e-02  2.67395146e-02  0.00000000e+00 -1.47421132e-01
 -2.13751445e-01 -5.98659820e-02 -1.95120729e-02 -2.61809868e-02  0.00000000e+00
  3.80804418e-02  6.46996347e-02 -3.70061198e-03 -2.53434716e-01  0.00000000e+00
 -1.95826714e-01 -5.48126551e-03 -3.75381255e-01  0.00000000e+00 -3.30422573e-01
 -4.93413120e-03 -3.37911733e-01  0.00000000e+00 -1.27395472e-02  0.00000000e+00
  0.00000000e+00 -1.20766806e-02  3.52758246e-04  8.83576473e-02  1.50837140e-01
  3.09997041e-02 -3.01961566e-02 -7.45977571e-03  0.00000000e+00  8.83577055e-02
  1.50837250e-01  3.09997836e-02  2.99654854e-02 -8.33821548e-03  0.00000000e+00
  0.00000000e+00  0.00000000e+00  0.00000000e+00  0.00000000e+00  2.92396072e-01
  0.00000000e+00  0.00000000e+00  0.00000000e+00  4.37273605e-01  0.00000000e+00
  0.00000000e+00  0.00000000e+00  4.66972275e-01  0.00000000e+00 -2.46741383e-04
 -1.68983810e-02  0.00000000e+00  0.00000000e+00  0.00000000e+00  0.00000000e+00
  0.00000000e+00  0.00000000e+00  0.00000000e+00  3.03991147e-02  0.00000000e+00
  0.00000000e+00  0.00000000e+00  0.00000000e+00  0.00000000e+00  3.03991030e-02
  3.34938371e-02  5.45807984e-02  1.13342122e-03  7.76184862e-02  0.00000000e+00
 -1.03799192e-01  1.75802036e-03  1.20393998e-01  0.00000000e+00 -8.36275272e-01
  3.17061334e-03  2.17126131e-01  0.00000000e+00  4.55784994e-03  0.00000000e+00
  0.00000000e+00  2.97676029e-03 -8.69441315e-05  3.70207393e-02 -6.37142787e-02
  8.35389938e-01  6.47936003e-03  3.02709693e-03  0.00000000e+00  3.70207856e-02
 -6.37142744e-02  8.35390575e-01 -6.38822341e-03  3.21496669e-03  0.00000000e+00
 -9.86304944e-09 -1.56122526e-08  1.24803086e-01 -1.82233286e-03  0.00000000e+00
  1.70170957e-08  1.35048640e-01 -1.97194067e-03  0.00000000e+00  3.36793526e-07
  5.05519224e-01 -7.38139080e-03  0.00000000e+00 -4.38930269e-09  0.00000000e+00
  0.00000000e+00 -1.34243812e-04 -4.59602758e-03 -2.78084945e-02  1.20150201e-01
 -1.54267390e+00 -7.74669859e-03  8.46204464e-03  0.00000000e+00  2.78085115e-02
 -1.20150049e-01  1.54267330e+00 -7.99045786e-03 -8.23224968e-03  0.00000000e+00
  5.34313228e-08  9.29613210e-08  1.22924442e-01 -1.79471690e-03  0.00000000e+00
 -2.37742644e-07  1.83463593e-01 -2.67857041e-03  0.00000000e+00 -1.28999503e-06
  1.06401001e+00 -1.55349948e-02  0.00000000e+00 -1.48297914e-08  0.00000000e+00
  0.00000000e+00  4.41418139e-04  1.51111588e-02 -8.41461517e-02 -1.41681850e+00
  7.70590431e-01  2.01470913e-02  6.30644342e-03  0.00000000e+00  8.41464057e-02
  1.41682358e+00 -7.70592769e-01  1.99543934e-02 -6.89192928e-03  0.00000000e+00
  3.34479275e-02  5.85046213e-02  1.50927141e-03  1.03375731e-01  0.00000000e+00
 -1.37012452e-01  2.74525160e-03  1.88031231e-01  0.00000000e+00 -1.26908883e+00
  1.48101253e-02  1.01443218e+00  0.00000000e+00 -4.03023537e-03  0.00000000e+00
  0.00000000e+00  1.42688143e-02 -4.16795779e-04  6.54807251e-02  1.75470985e+00
 -6.29133294e-01 -2.48323003e-02  3.67891142e-02  0.00000000e+00  6.54804816e-02
  1.75470440e+00 -6.29131172e-01  2.58957112e-02  3.60483723e-02  0.00000000e+00
  1.50672734e-02  2.79559921e-02 -3.40859380e-03 -2.33440813e-01  0.00000000e+00
 -5.96628149e-02 -1.08064761e-02 -7.40087190e-01  0.00000000e+00 -8.93866164e-01
  2.28953603e-02  1.56800542e+00  0.00000000e+00  1.13988197e-02  0.00000000e+00
  0.00000000e+00 -1.04577710e-02  3.05476873e-04  3.03441698e-02  5.82184160e-01
  9.66960509e-02 -1.41176495e-01  1.15096250e-01  0.00000000e+00  3.03441255e-02
  5.82184155e-01  9.66957783e-02  1.44476733e-01  1.10925295e-01  0.00000000e+00
  0.00000000e+00  0.00000000e+00  0.00000000e+00  0.00000000e+00  2.40442289e-01
  0.00000000e+00  0.00000000e+00  0.00000000e+00  8.37244653e-01  0.00000000e+00
  0.00000000e+00  0.00000000e+00 -1.14710702e+00  0.00000000e+00 -1.16129707e-04
 -7.95354472e-03  0.00000000e+00  0.00000000e+00  0.00000000e+00  0.00000000e+00
  0.00000000e+00  0.00000000e+00  0.00000000e+00  1.51850013e-02  0.00000000e+00
  0.00000000e+00  0.00000000e+00  0.00000000e+00  0.00000000e+00  1.51848678e-02
 -2.09757858e-09 -1.24197969e-09  2.39265616e-01 -3.49366204e-03  0.00000000e+00
 -6.86538726e-08  7.17641940e-01 -1.04786707e-02  0.00000000e+00  1.17185951e-07
 -1.78848234e+00  2.61144839e-02  0.00000000e+00  5.80902054e-09  0.00000000e+00
  0.00000000e+00  8.44257089e-04  2.89034273e-02  1.24742805e-02  3.50740986e-01
  7.60237887e-01 -1.71656540e-01  1.44949451e-01  0.00000000e+00 -1.24741898e-02
 -3.50741556e-01 -7.60237676e-01 -1.75815598e-01 -1.39875763e-01  0.00000000e+00
  9.96151637e-02  2.05364987e-01  4.06081332e-04  2.78115439e-02  0.00000000e+00
 -1.51241922e+00 -2.16249946e-03 -1.48114207e-01  0.00000000e+00  3.05913763e+00
 -8.40806804e-03 -5.75840546e-01  0.00000000e+00 -2.80146299e-02  0.00000000e+00
  0.00000000e+00 -2.20167690e-02  6.43042460e-04  1.77055855e-02 -8.39443349e-01
 -3.36249146e-01  1.39774327e-01 -3.72218765e-01  0.00000000e+00  1.77056413e-02
 -8.39442900e-01 -3.36248804e-01 -1.50582242e-01 -3.67978925e-01  0.00000000e+00
  3.60716966e-02  7.55832026e-02 -1.34088697e-04 -9.18166845e-03  0.00000000e+00
 -6.42625198e-01 -1.10608568e-03 -7.57537167e-02  0.00000000e+00  2.01788016e+00
 -1.81489779e-02 -1.24296226e+00  0.00000000e+00  9.80968701e-03  0.00000000e+00
  0.00000000e+00  1.32003018e-01 -3.85579307e-03  8.38677695e-02 -1.15484576e+00
  2.25491020e-02  6.01278074e-01  4.01248416e-01  0.00000000e+00  8.38678088e-02
 -1.15484509e+00  2.25492858e-02 -5.89306304e-01  4.18633134e-01  0.00000000e+00
  0.00000000e+00  0.00000000e+00  0.00000000e+00  0.00000000e+00 -2.41230063e-08
  0.00000000e+00  0.00000000e+00  0.00000000e+00 -1.78512188e-07  0.00000000e+00
  0.00000000e+00  0.00000000e+00  1.71269150e-07  0.00000000e+00  1.25728676e-01
 -1.83580857e-03  0.00000000e+00  0.00000000e+00  0.00000000e+00  0.00000000e+00
  0.00000000e+00  0.00000000e+00  0.00000000e+00  6.88624074e-01  0.00000000e+00
  0.00000000e+00  0.00000000e+00  0.00000000e+00  0.00000000e+00 -6.88624323e-01
  0.00000000e+00  0.00000000e+00  0.00000000e+00  0.00000000e+00  4.66963675e-02
  0.00000000e+00  0.00000000e+00  0.00000000e+00  3.70752653e-02  0.00000000e+00
  0.00000000e+00  0.00000000e+00  5.58810836e-01  0.00000000e+00  2.14526599e-03
  1.46920267e-01  0.00000000e+00  0.00000000e+00  0.00000000e+00  0.00000000e+00
  0.00000000e+00  0.00000000e+00  0.00000000e+00 -7.65328683e-01  0.00000000e+00
  0.00000000e+00  0.00000000e+00  0.00000000e+00  0.00000000e+00 -7.65328406e-01
  9.64873144e-09  2.12520726e-08  1.30452995e-02 -1.90493000e-04  0.00000000e+00
 -1.39065948e-07  4.37028234e-02 -6.38164388e-04  0.00000000e+00 -3.29584096e-07
 -8.85822323e-01  1.29345712e-02  0.00000000e+00 -1.25522272e-09  0.00000000e+00
  0.00000000e+00  2.00139964e-03  6.85183230e-02 -1.75384550e-01  7.07398219e-01
 -1.54330508e-01  4.99518657e-01  6.30790775e-01  0.00000000e+00  1.75384651e-01
 -7.07397935e-01  1.54330588e-01  4.80888620e-01 -6.45106093e-01  0.00000000e+00
  4.87632044e-08  9.65889205e-08  1.70650971e-01 -2.49161046e-03  0.00000000e+00
 -3.63121157e-07  4.85405792e-01 -7.08718165e-03  0.00000000e+00 -1.38997447e-06
  2.75366734e-02 -4.01601552e-04  0.00000000e+00 -2.38078653e-07  0.00000000e+00
  0.00000000e+00  6.59164693e-03  2.25667077e-01 -6.57401632e-01  6.29628328e-01
 -5.26747400e-01  3.10062312e-01 -5.00603812e-01  0.00000000e+00  6.57402727e-01
 -6.29627994e-01  5.26748038e-01  3.24548117e-01  4.91338473e-01  0.00000000e+00
  3.21109771e-02  6.11119453e-02  2.38340968e-03  1.63243154e-01  0.00000000e+00
 -2.68378869e-01  3.99944116e-03  2.73927898e-01  0.00000000e+00 -2.74846400e-02
 -2.28290049e-03 -1.56382707e-01  0.00000000e+00 -2.74228708e-01  0.00000000e+00
  0.00000000e+00  6.33143601e-02 -1.84980271e-03  8.48880335e-01 -9.48833737e-01
  3.98943137e-01 -3.52276266e-01  1.82874239e-01  0.00000000e+00  8.48878309e-01
 -9.48830692e-01  3.98941800e-01  3.57465350e-01  1.72510445e-01  0.00000000e+00
  5.26143787e-02  1.22523272e-01  2.38281964e-04  1.63224277e-02  0.00000000e+00
 -8.34266604e-01  9.39080746e-03  6.43178072e-01  0.00000000e+00 -1.75511048e+00
  1.10628422e-02  7.57660054e-01  0.00000000e+00 -7.40467452e-03  0.00000000e+00
  0.00000000e+00 -2.46669409e-02  7.20510627e-04 -6.27166936e-01  2.02127895e+00
 -2.92036177e-01 -8.55101486e-01  6.54116021e-01  0.00000000e+00 -6.27167860e-01
  2.02127839e+00 -2.92036644e-01  8.73834157e-01  6.28869837e-01  0.00000000e+00
 -1.98254579e-08 -5.53709874e-08  1.16867570e-02 -1.70666702e-04  0.00000000e+00
  6.57765456e-07  8.43971366e-01 -1.23237007e-02  0.00000000e+00  5.87076653e-07
  6.61538514e-01 -9.65967409e-03  0.00000000e+00 -1.36205061e-08  0.00000000e+00
  0.00000000e+00 -6.57754214e-03 -2.25185623e-01  8.19929218e-01 -2.05804431e+00
  5.32790198e-01  8.44784595e-01 -6.28936682e-01  0.00000000e+00 -8.19930244e-01
  2.05804423e+00 -5.32790510e-01  8.62786927e-01  6.04002812e-01  0.00000000e+00
  0.00000000e+00  0.00000000e+00  0.00000000e+00  0.00000000e+00  1.62947751e-02
  0.00000000e+00  0.00000000e+00  0.00000000e+00 -1.64903533e-02  0.00000000e+00
  0.00000000e+00  0.00000000e+00  2.60485100e-01  0.00000000e+00 -1.50693421e-02
 -1.03183753e+00  0.00000000e+00  0.00000000e+00  0.00000000e+00  0.00000000e+00
  0.00000000e+00  0.00000000e+00  0.00000000e+00 -3.50182917e-01  0.00000000e+00
  0.00000000e+00  0.00000000e+00  0.00000000e+00  0.00000000e+00 -3.50184574e-01
  0.00000000e+00  0.00000000e+00  0.00000000e+00  0.00000000e+00  7.97788490e-08
  0.00000000e+00  0.00000000e+00  0.00000000e+00 -2.05895422e-08  0.00000000e+00
  0.00000000e+00  0.00000000e+00  7.96932649e-07  0.00000000e+00  1.04950454e+00
 -1.53273347e-02  0.00000000e+00  0.00000000e+00  0.00000000e+00  0.00000000e+00
  0.00000000e+00  0.00000000e+00  0.00000000e+00 -3.32192924e-01  0.00000000e+00
  0.00000000e+00  0.00000000e+00  0.00000000e+00  0.00000000e+00  3.32190816e-01
  3.81724534e-04  3.81528164e-04  4.88106803e-04  3.34254119e-02  0.00000000e+00
  5.91304395e-02  2.92048061e-04  2.00031943e-02  0.00000000e+00 -6.53126741e-01
  8.42961364e-03  5.77296436e-01  0.00000000e+00  3.87036332e-01  0.00000000e+00
  0.00000000e+00  1.00539953e+00 -2.93672873e-02  6.19289818e-03  4.49999793e-01
 -3.10946555e-02 -3.69426861e-01 -2.44146143e-01  0.00000000e+00  6.19294632e-03
  4.49999694e-01 -3.10945839e-02  3.62140848e-01 -2.54827984e-01  0.00000000e+00
  2.12658075e-02  4.17740525e-02  4.39687898e-03  3.01112294e-01  0.00000000e+00
 -9.16964269e-02  1.66958600e-03  1.14353032e-01  0.00000000e+00 -2.00534885e+00
  1.39630784e-02  9.56239537e-01  0.00000000e+00  1.03756995e+00  0.00000000e+00
  0.00000000e+00 -4.24722677e-01  1.24052980e-02  2.92415840e-01  1.07248616e+00
  4.25163883e-02 -5.68700550e-01  4.68764301e-01  0.00000000e+00  2.92415757e-01
  1.07248656e+00  4.25164567e-02  5.82145173e-01  4.51960352e-01  0.00000000e+00
 -2.38867540e-08 -5.01868312e-08  4.37862840e-01 -6.39383781e-03  0.00000000e+00
  3.39728895e-07 -3.59257703e-02  5.24489891e-04  0.00000000e+00  1.30957026e-06
  9.18700396e-01 -1.34151482e-02  0.00000000e+00 -5.88762245e-07  0.00000000e+00
  0.00000000e+00 -3.37638772e-02 -1.15592569e+00 -3.88430213e-01 -5.04968002e-01
 -2.21716316e-01  4.58220940e-01 -3.67383893e-01  0.00000000e+00  3.88429345e-01
  5.04966855e-01  2.21716144e-01  4.68751406e-01  3.53848068e-01  0.00000000e+00
  0.00000000e+00  0.00000000e+00  0.00000000e+00  0.00000000e+00  1.27029904e+00
  0.00000000e+00  0.00000000e+00  0.00000000e+00 -1.37295868e+00  0.00000000e+00
  0.00000000e+00  0.00000000e+00  4.84726225e-01  0.00000000e+00  3.53307370e-04
  2.41995736e-02  0.00000000e+00  0.00000000e+00  0.00000000e+00  0.00000000e+00
  0.00000000e+00  0.00000000e+00  0.00000000e+00  5.40685785e-02  0.00000000e+00
  0.00000000e+00  0.00000000e+00  0.00000000e+00  0.00000000e+00  5.40684890e-02
  2.13072015e-02  3.98554042e-02 -1.84381339e-02 -1.26269579e+00  0.00000000e+00
 -2.00138656e-01  2.48114896e-02  1.69917147e+00  0.00000000e+00 -9.75990527e-01
 -1.49474198e-03 -1.02354872e-01  0.00000000e+00  3.52893595e-01  0.00000000e+00
  0.00000000e+00 -9.12884633e-02  2.66637158e-03  2.62866156e-01  4.79589413e-01
  1.00752037e-02 -4.51438667e-01  2.73590045e-01  0.00000000e+00  2.62865998e-01
  4.79589612e-01  1.00749657e-02  4.59234478e-01  2.60293035e-01  0.00000000e+00
  3.15268054e-08  6.02859514e-08  1.25767746e+00 -1.83648115e-02  0.00000000e+00
 -5.13994761e-07 -1.96103026e+00  2.86354262e-02  0.00000000e+00 -8.87800059e-07
  1.66864336e-01 -2.43645841e-03  0.00000000e+00  3.19632496e-07  0.00000000e+00
  0.00000000e+00  1.83321224e-02  6.27611794e-01  3.20603785e-01  4.69374230e-01
 -1.47846985e-01 -4.94481535e-01  4.54208310e-01  0.00000000e+00 -3.20602880e-01
 -4.69373407e-01  1.47847053e-01 -5.07531536e-01 -4.39576706e-01  0.00000000e+00
  2.24706437e+00 -2.33534249e+00  2.52662391e-04  1.73048795e-02  0.00000000e+00
  2.62062212e-01 -9.63061069e-04 -6.59613700e-02  0.00000000e+00 -8.31200776e-02
 -9.75221338e-05 -6.68058353e-03  0.00000000e+00 -2.13869782e-02  0.00000000e+00
  0.00000000e+00  8.69639321e-03 -2.54052818e-04 -3.10017064e-03 -6.03386312e-02
  3.06953567e-02  5.40573478e-02 -4.29291106e-02  0.00000000e+00 -3.10012352e-03
 -6.03384988e-02  3.06953262e-02 -5.52876088e-02 -4.13324137e-02  0.00000000e+00
Total SCF Density                          R   N=         465
  6.36943475e-01  5.68327819e-01  5.25491089e-01 -1.92740951e-04 -3.06376152e-04
  1.01776547e-01 -1.31998792e-02 -2.09821983e-02  4.27006548e-04  1.31014754e-01
  0.00000000e+00  0.00000000e+00  0.00000000e+00  0.00000000e+00  1.70990926e-01
 -1.32015454e-01 -2.25938651e-01  8.86644530e-04  6.07220057e-02  0.00000000e+00
  6.63535399e-01 -2.06966015e-04 -3.66102864e-04  1.56579167e-01  5.55046592e-04
  0.00000000e+00  1.19383503e-03  2.40890924e-01 -1.41740855e-02 -2.50726057e-02
  5.55045217e-04  1.94584484e-01  0.00000000e+00  8.17600998e-02  7.04561814e-04
  2.89133834e-01  0.00000000e+00  0.00000000e+00  0.00000000e+00  0.00000000e+00
  2.55714169e-01  0.00000000e+00  0.00000000e+00  0.00000000e+00  3.82416412e-01
 -1.12133734e-01 -1.87681675e-01  2.05051064e-03  1.40432138e-01  0.00000000e+00
  5.41503365e-01  2.95286841e-03  2.02231496e-01  0.00000000e+00  5.07775723e-01
 -3.08797030e-04 -5.25347282e-04  9.85574603e-02  1.08377581e-03  0.00000000e+00
  1.60630635e-03  1.51626127e-01  1.52739301e-03  0.00000000e+00  3.03159358e-03
  9.54439215e-02 -2.11481909e-02 -3.59787994e-02  1.08377756e-03  1.72764502e-01
  0.00000000e+00  1.10009101e-01  1.52739862e-03  2.56207853e-01  0.00000000e+00
  2.07622024e-01  1.95406066e-03  2.29239127e-01  0.00000000e+00  0.00000000e+00
  0.00000000e+00  0.00000000e+00  2.73081718e-01  0.00000000e+00  0.00000000e+00
  0.00000000e+00  4.08389301e-01  0.00000000e+00  0.00000000e+00  0.00000000e+00
  4.36126211e-01  9.51084076e-04  1.43479635e-03  1.02340811e-04  7.00896241e-03
  0.00000000e+00 -3.42110932e-03  1.53318428e-04  1.05002265e-02  0.00000000e+00
  2.51086451e-03  1.30389608e-04  8.92984553e-03  0.00000000e+00  4.45229775e-04
  0.00000000e+00  0.00000000e+00  0.00000000e+00  0.00000000e+00 -1.44292422e-04
  0.00000000e+00  0.00000000e+00  0.00000000e+00 -2.15786989e-04  0.00000000e+00
  0.00000000e+00  0.00000000e+00 -2.30442770e-04  0.00000000e+00  1.21762620e-07
  0.00000000e+00  0.00000000e+00  0.00000000e+00  0.00000000e+00 -9.88204044e-03
  0.00000000e+00  0.00000000e+00  0.00000000e+00 -1.47784320e-02  0.00000000e+00
  0.00000000e+00  0.00000000e+00 -1.57821508e-02  0.00000000e+00  8.33905981e-06
  5.71110561e-04 -1.25482108e-03 -2.07273122e-03 -2.86785241e-04  6.04128832e-03
  0.00000000e+00  6.03462837e-03 -4.46533908e-04  8.92987625e-03  0.00000000e+00
  8.89762489e-03 -2.44574378e-04  8.11732984e-03  0.00000000e+00  2.88973382e-04
  0.00000000e+00  0.00000000e+00  2.95983990e-04  3.66534411e-05  6.05448041e-05
 -1.28380741e-02  1.11187397e-05  0.00000000e+00 -1.76272603e-04 -1.97508983e-02
  2.77522282e-05  0.00000000e+00 -2.59893403e-04 -1.24317518e-02 -5.54737345e-05
  0.00000000e+00 -8.44046579e-06  0.00000000e+00  0.00000000e+00  3.86904247e-05
  1.61943851e-03 -1.38977854e-02 -2.32166130e-02  6.57534891e-02 -5.22795367e-02
  0.00000000e+00  6.47541285e-02  1.01182719e-01 -7.88806648e-02  0.00000000e+00
  1.13881658e-02  6.34657189e-02 -6.44362503e-02  0.00000000e+00 -3.67561958e-03
  0.00000000e+00  0.00000000e+00 -2.15817024e-03 -8.33337463e-03  7.59041411e-02
 -6.67741942e-03 -1.09474019e-02  9.52247525e-02 -8.35879689e-02  0.00000000e+00
  2.81388790e-02  1.46551819e-01 -1.25109456e-01  0.00000000e+00 -3.84298793e-02
  9.18286682e-02 -1.06622170e-01  0.00000000e+00 -5.09346441e-03  0.00000000e+00
  0.00000000e+00 -3.80452281e-03 -1.20631453e-02  1.04445859e-01  1.49845718e-01
  2.95800695e-03  4.93098121e-03  2.67787851e-02 -1.59506189e-02  0.00000000e+00
 -1.45294770e-02  4.12119983e-02 -2.36142287e-02  0.00000000e+00 -2.21640978e-02
  2.58445829e-02 -2.12412305e-02  0.00000000e+00 -7.55567538e-04  0.00000000e+00
  0.00000000e+00 -8.53582290e-04 -3.38474894e-03  2.27246107e-02  3.45895929e-02
  9.09957401e-03  2.88754133e-03  4.84243090e-03 -8.20580092e-03  1.70832239e-02
  0.00000000e+00 -1.33714054e-02 -1.26334643e-02  2.56625268e-02  0.00000000e+00
  2.25924364e-03 -7.87326965e-03  2.14858594e-02  0.00000000e+00  1.13057043e-03
  0.00000000e+00  0.00000000e+00  7.04444251e-04  1.04672800e-03 -1.51278153e-02
 -2.08655776e-02 -4.01325976e-03  3.60793388e-03 -3.97018016e-03 -6.68144833e-03
  1.21018701e-02  2.52869629e-03  0.00000000e+00  1.93168475e-02  1.86128107e-02
  3.50602113e-03  0.00000000e+00  1.64438566e-02  1.17441966e-02  4.24691331e-03
  0.00000000e+00 -4.49604465e-05  0.00000000e+00  0.00000000e+00  1.72200103e-04
 -1.52798640e-03  9.34178423e-03  1.16175835e-02  2.67232074e-03 -1.25566399e-03
  1.99937950e-03  0.00000000e+00  0.00000000e+00  0.00000000e+00  0.00000000e+00
  1.77771635e-02  0.00000000e+00  0.00000000e+00  0.00000000e+00  2.65854610e-02
  0.00000000e+00  0.00000000e+00  0.00000000e+00  2.83910875e-02  0.00000000e+00
 -1.50014392e-05 -1.02739165e-03  0.00000000e+00  0.00000000e+00  0.00000000e+00
  0.00000000e+00  0.00000000e+00  0.00000000e+00  0.00000000e+00  1.84821235e-03
 -1.38977760e-02 -2.32165976e-02 -6.72518492e-02 -5.03374213e-02  0.00000000e+00
  6.47540857e-02 -1.03442645e-01 -7.58927724e-02  0.00000000e+00  1.13881794e-02
 -6.53200075e-02 -6.25557642e-02  0.00000000e+00 -3.67561683e-03  0.00000000e+00
  0.00000000e+00 -1.66807902e-03  8.44513334e-03 -1.10278689e-02 -2.16001055e-02
 -1.25774234e-02 -4.07751204e-03 -6.42609965e-03  0.00000000e+00  7.59041044e-02
 -6.67741870e-03 -1.09474013e-02 -9.76246782e-02 -8.07720405e-02  0.00000000e+00
  2.81388798e-02 -1.50142174e-01 -1.20777226e-01  0.00000000e+00 -3.84298253e-02
 -9.49025889e-02 -1.03895603e-01  0.00000000e+00 -5.09346211e-03  0.00000000e+00
  0.00000000e+00 -3.09392161e-03  1.22646430e-02 -2.16001074e-02 -3.29130368e-02
 -1.65961497e-02 -4.84333294e-03 -1.12448613e-02  0.00000000e+00  1.04445841e-01
  1.49845732e-01  2.95800704e-03  4.93098147e-03 -2.72330952e-02 -1.51619798e-02
  0.00000000e+00 -1.45294786e-02 -4.18839193e-02 -2.24009274e-02  0.00000000e+00
 -2.21641028e-02 -2.64537635e-02 -2.04776267e-02  0.00000000e+00 -7.55568382e-04
  0.00000000e+00  0.00000000e+00 -6.54563359e-04  3.42880285e-03 -1.25774243e-02
 -1.65961458e-02 -5.23615725e-03  4.74131458e-04 -3.73082842e-03  0.00000000e+00
  2.27246292e-02  3.45896275e-02  9.09958851e-03 -3.00222779e-03 -5.03544505e-03
 -9.04841016e-03 -1.67450592e-02  0.00000000e+00  1.39297004e-02 -1.39118726e-02
 -2.51537544e-02  0.00000000e+00 -1.77816134e-03 -8.83275181e-03 -2.11038073e-02
  0.00000000e+00 -1.13140081e-03  0.00000000e+00  0.00000000e+00 -6.34249628e-04
  1.12984139e-03  3.88814780e-03  4.51294449e-03 -5.82862721e-04 -2.18048383e-03
 -7.73468856e-04  0.00000000e+00  1.53941175e-02  2.11958863e-02  4.08957917e-03
  3.67985521e-03 -3.88417915e-03 -6.53721408e-03 -1.17637080e-02  3.37129959e-03
  0.00000000e+00  1.89182040e-02 -1.81040419e-02  4.78441851e-03  0.00000000e+00
  1.65028122e-02 -1.13621461e-02  5.20638195e-03  0.00000000e+00 -1.19317976e-05
  0.00000000e+00  0.00000000e+00  2.79731033e-04  1.48297404e-03 -6.54241036e-03
 -1.13814755e-02 -3.71539193e-03  8.12669374e-04 -8.38402217e-04  0.00000000e+00
  8.89611219e-03  1.10034191e-02  2.55400782e-03  1.20657915e-03  1.92745829e-03
  0.00000000e+00  0.00000000e+00  0.00000000e+00  0.00000000e+00  1.77771566e-02
  0.00000000e+00  0.00000000e+00  0.00000000e+00  2.65854507e-02  0.00000000e+00
  0.00000000e+00  0.00000000e+00  2.83910766e-02  0.00000000e+00 -1.50014334e-05
 -1.02739125e-03  0.00000000e+00  0.00000000e+00  0.00000000e+00  0.00000000e+00
  0.00000000e+00  0.00000000e+00  0.00000000e+00  1.84821164e-03  0.00000000e+00
  0.00000000e+00  0.00000000e+00  0.00000000e+00  0.00000000e+00  1.84821092e-03
Total MP2 Density                          R   N=         465
  6.36831626e-01  5.68262267e-01  5.25308626e-01 -1.83671445e-04 -2.88627460e-04
  1.12468212e-01 -1.25787773e-02 -1.97667144e-02  4.03542441e-04  1.40099703e-01
  2.15981606e-16  1.97361722e-16 -2.27109287e-16  1.08683555e-17  1.78931883e-01
 -1.33230265e-01 -2.26878366e-01  8.15169997e-04  5.58271776e-02 -4.29763636e-17
  6.82451433e-01 -1.82626493e-04 -3.21910655e-04  1.65372475e-01  4.74215449e-04
  3.72661635e-16  1.00221291e-03  2.47792563e-01 -1.25071950e-02 -2.20461077e-02
  4.74213960e-04  1.97843002e-01 -6.99035313e-17  6.86368337e-02  5.38606791e-04
  2.84672068e-01 -2.87668769e-16 -2.45682052e-16  2.46394181e-16  2.92627893e-16
  2.53546385e-01 -2.61932493e-17 -2.80817933e-16 -2.36191985e-16  3.65361342e-01
 -1.10963176e-01 -1.85502201e-01  2.06088706e-03  1.41142702e-01 -4.16877302e-16
  5.19343404e-01  2.88166656e-03  1.97354934e-01  2.92475763e-16  5.54356121e-01
 -3.11288605e-04 -5.27787409e-04  9.42908700e-02  1.05470314e-03 -1.40147154e-16
  1.52398893e-03  1.42074378e-01  1.43944446e-03 -2.52905455e-16  3.16528081e-03
  9.05327515e-02 -2.13188509e-02 -3.61459525e-02  1.05470435e-03  1.66507328e-01
  1.85560617e-16  1.04371680e-01  1.43944876e-03  2.40634306e-01  1.43003118e-16
  2.16777594e-01  2.03267789e-03  2.29711479e-01  1.75028192e-16  1.46479006e-16
 -4.24966486e-17  1.32176607e-16  2.68082817e-01  3.25435769e-17  2.80457730e-16
 -1.28349274e-16  3.90591517e-01 -2.06826778e-16 -1.65291513e-16  2.43218005e-16
  4.57772899e-01  1.07904814e-03  1.65792564e-03  9.50725531e-05  6.51119947e-03
  1.05499390e-16 -4.68176769e-03  1.32984800e-04  9.10766858e-03 -2.33885425e-17
  4.61045851e-03  8.72035794e-05  5.97222284e-03  7.71366791e-17  3.20259261e-03
 -7.01055473e-17 -5.87834012e-17 -7.32916247e-18 -7.85655955e-18 -1.42730780e-04
 -1.16878362e-17 -1.77378681e-17 -8.64472323e-17 -2.06032406e-04  2.85880236e-17
 -2.53985701e-17 -4.37675019e-17 -2.32773634e-04 -5.58495324e-18  3.07667615e-03
 -1.48366925e-18  3.49889593e-18 -3.49902830e-18 -2.48278062e-17 -9.77509026e-03
 -1.90574458e-17  1.76769647e-17  2.69835005e-17 -1.41103710e-02 -4.79745617e-17
  1.06271865e-17 -1.01448121e-17 -1.59417505e-02  1.47789084e-18  9.26279782e-06
  3.71090631e-03 -1.31113567e-03 -2.16637157e-03 -2.72564820e-04  6.25239631e-03
  1.83932522e-17  6.27630673e-03 -4.02042338e-04  8.87599038e-03  8.50141240e-17
  9.43632064e-03 -1.43129331e-04  8.57948250e-03  5.87717054e-17  3.75319131e-04
  2.65614145e-18 -2.58485340e-18  2.97308300e-03  3.82983400e-05  6.32799232e-05
 -1.24569412e-02 -6.18867879e-07 -8.53980423e-17 -1.83332006e-04 -1.82010877e-02
  6.67738013e-06  9.70866504e-17 -2.75628064e-04 -9.19064372e-03 -1.16341592e-04
 -1.87196100e-17 -1.09625555e-05  2.71035912e-18 -9.95111936e-18  2.68138069e-05