
    -----------------------------------------------------------------------
          Psi4: An Open-Source Ab Initio Electronic Structure Package
                               Psi4 1.5 release

                         Git: Rev {HEAD} e9f4d6d 


    D. G. A. Smith, L. A. Burns, A. C. Simmonett, R. M. Parrish,
    M. C. Schieber, R. Galvelis, P. Kraus, H. Kruse, R. Di Remigio,
    A. Alenaizan, A. M. James, S. Lehtola, J. P. Misiewicz, M. Scheurer,
    R. A. Shaw, J. B. Schriber, Y. Xie, Z. L. Glick, D. A. Sirianni,
    J. S. O'Brien, J. M. Waldrop, A. Kumar, E. G. Hohenstein,
    B. P. Pritchard, B. R. Brooks, H. F. Schaefer III, A. Yu. Sokolov,
    K. Patkowski, A. E. DePrince III, U. Bozkaya, R. A. King,
    F. A. Evangelista, J. M. Turney, T. D. Crawford, C. D. Sherrill,
    J. Chem. Phys. 152(18) 184108 (2020). https://doi.org/10.1063/5.0006002

                            Additional Code Authors
    E. T. Seidl, C. L. Janssen, E. F. Valeev, M. L. Leininger,
    J. F. Gonthier, R. M. Richard, H. R. McAlexander, M. Saitow, X. Wang,
    P. Verma, M. H. Lechner, and A. Jiang

             Previous Authors, Complete List of Code Contributors,
                       and Citations for Specific Modules
    https://github.com/psi4/psi4/blob/master/codemeta.json
    https://github.com/psi4/psi4/graphs/contributors
    http://psicode.org/psi4manual/master/introduction.html#citing-psifour

    -----------------------------------------------------------------------


    Psi4 started on: Wednesday, 08 June 2022 01:00PM

    Process ID: 1113001
    Host:       node74.bme.utexas.edu
    PSIDATADIR: /home/bdw2292/miniconda3/envs/newamoebamdpoltype/share/psi4
    Memory:     500.0 MiB
    Threads:    1
    
  ==> Input File <==

--------------------------------------------------------------------------
molecule { 
0 1
 N   -0.235414    0.542526   -0.592879
 C    0.917964    0.385657    0.216742
 C    2.287590    0.677991   -0.471473
 N    3.230817   -0.464344   -0.478095
 O    0.832796    0.093948    1.412037
 H    2.211457    1.082721   -1.493202
 H    2.781634    1.491258    0.089934
 C   -1.550038    0.396175    0.003842
 C   -4.135757    0.130370    1.114702
 C   -3.192618   -0.893253    1.274593
 C   -3.790176    1.285759    0.401682
 C   -1.908125   -0.771691    0.727354
 C   -2.510434    1.427737   -0.153343
 C   -0.190472    0.464432   -2.073875
 C    4.354697   -0.234504   -1.407544
 C    3.755718   -0.752169    0.877052
 H   -3.456300   -1.796464    1.827530
 H   -4.520528    2.086403    0.271538
 H   -1.183280   -1.576158    0.862864
 H   -2.258756    2.336101   -0.704729
 H   -1.158211    0.165210   -2.478943
 H    0.066747    1.437101   -2.493882
 H    0.539488   -0.277889   -2.399479
 H    3.965604   -0.103114   -2.430759
 H    4.938255    0.655996   -1.118028
 H    4.357804    0.087159    1.263767
 H    2.913097   -0.929241    1.563415
 H   -5.134644    0.027442    1.543055
 H    5.013031   -1.118510   -1.416236
 H    4.368129   -1.668174    0.852235
}
set optking { 
  frozen_dihedral = ("
    1 2 3 4
    2 1 8 12
    8 1 2 3
    2 3 4 15
  ")
}
set {
  geom_maxiter 400
  g_convergence GAU_LOOSE
  dynamic_level 1
}
memory 8.166666666666666GB
set_num_threads(2)
psi4_io.set_default_path("/scratch/bdw2292/Psi4-25_27_Index_0-farH_in17")
for _ in range(1):
  try:
    set opt_coordinates both
    optimize('wb97x-d/6-311G')
    break
  except OptimizationConvergenceError:
    break
  else:
    try:
      set opt_coordinates cartesian
      optimize('wb97x-d/6-311G')
      break
    except OptimizationConvergenceError:
      pass
clean()
--------------------------------------------------------------------------

  Memory set to   7.606 GiB by Python driver.
  Threads set to 2 by Python driver.

Scratch directory: /scratch/bdw2292/Psi4-25_27_Index_0-farH_in17/

Scratch directory: /scratch/bdw2292/Psi4-25_27_Index_0-farH_in17/
gradient() will perform analytic gradient computation.

*** tstart() called on node74.bme.utexas.edu
*** at Wed Jun  8 13:00:15 2022

   => Loading Basis Set <=

    Name: 6-311G
    Role: ORBITAL
    Keyword: BASIS
    atoms 1, 4       entry N          line   109 file /home/bdw2292/miniconda3/envs/newamoebamdpoltype/share/psi4/basis/6-311g.gbs 
    atoms 2-3, 8-16  entry C          line    92 file /home/bdw2292/miniconda3/envs/newamoebamdpoltype/share/psi4/basis/6-311g.gbs 
    atoms 5          entry O          line   126 file /home/bdw2292/miniconda3/envs/newamoebamdpoltype/share/psi4/basis/6-311g.gbs 
    atoms 6-7, 17-30 entry H          line    21 file /home/bdw2292/miniconda3/envs/newamoebamdpoltype/share/psi4/basis/6-311g.gbs 

   => WB97X-D: Empirical Dispersion <=

    Chai and Head-Gordon Dispersion Correction
    Chai, J.-D.; Head-Gordon, M. (2010), J. Chem. Phys., 132: 6615-6620

        s6 =       1.000000


         ---------------------------------------------------------
                                   SCF
               by Justin Turney, Rob Parrish, Andy Simmonett
                          and Daniel G. A. Smith
                              RKS Reference
                        2 Threads,   7788 MiB Core
         ---------------------------------------------------------

  ==> Geometry <==

    Molecular point group: c1
    Full point group: C1

    Geometry (in Angstrom), charge = 0, multiplicity = 1:

       Center              X                  Y                   Z               Mass       
    ------------   -----------------  -----------------  -----------------  -----------------
         N           -0.221226776839     0.386845910261    -0.631371161634    14.003074004430
         C            0.932151223161     0.229976910261     0.178249838366    12.000000000000
         C            2.301777223161     0.522310910261    -0.509965161634    12.000000000000
         N            3.245004223161    -0.620024089739    -0.516587161634    14.003074004430
         O            0.846983223161    -0.061732089739     1.373544838366    15.994914619570
         H            2.225644223161     0.927040910261    -1.531694161634     1.007825032230
         H            2.795821223161     1.335577910261     0.051441838366     1.007825032230
         C           -1.535850776839     0.240494910261    -0.034650161634    12.000000000000
         C           -4.121569776839    -0.025310089739     1.076209838366    12.000000000000
         C           -3.178430776839    -1.048933089739     1.236100838366    12.000000000000
         C           -3.775988776839     1.130078910261     0.363189838366    12.000000000000
         C           -1.893937776839    -0.927371089739     0.688861838366    12.000000000000
         C           -2.496246776839     1.272056910261    -0.191835161634    12.000000000000
         C           -0.176284776839     0.308751910261    -2.112367161634    12.000000000000
         C            4.368884223161    -0.390184089739    -1.446036161634    12.000000000000
         C            3.769905223161    -0.907849089739     0.838559838366    12.000000000000
         H           -3.442112776839    -1.952144089739     1.789037838366     1.007825032230
         H           -4.506340776839     1.930722910261     0.233045838366     1.007825032230
         H           -1.169092776839    -1.731838089739     0.824371838366     1.007825032230
         H           -2.244568776839     2.180420910261    -0.743221161634     1.007825032230
         H           -1.144023776839     0.009529910261    -2.517435161634     1.007825032230
         H            0.080934223161     1.281420910261    -2.532374161634     1.007825032230
         H            0.553675223161    -0.433569089739    -2.437971161634     1.007825032230
         H            3.979791223161    -0.258794089739    -2.469251161634     1.007825032230
         H            4.952442223161     0.500315910261    -1.156520161634     1.007825032230
         H            4.371991223161    -0.068521089739     1.225274838366     1.007825032230
         H            2.927284223161    -1.084921089739     1.524922838366     1.007825032230
         H           -5.120456776839    -0.128238089739     1.504562838366     1.007825032230
         H            5.027218223161    -1.274190089739    -1.454728161634     1.007825032230
         H            4.382316223161    -1.823854089739     0.813742838366     1.007825032230

  Running in c1 symmetry.

  Rotational constants: A =      0.05987  B =      0.01071  C =      0.00977 [cm^-1]
  Rotational constants: A =   1794.96671  B =    320.96405  C =    292.82603 [MHz]
  Nuclear repulsion =  872.477514317409714

  Charge       = 0
  Multiplicity = 1
  Electrons    = 104
  Nalpha       = 52
  Nbeta        = 52

  ==> Algorithm <==

  SCF Algorithm Type is DF.
  DIIS enabled.
  MOM disabled.
  Fractional occupation disabled.
  Guess Type is SAD.
  Energy threshold   = 1.00e-08
  Density threshold  = 1.00e-08
  Integral threshold = 1.00e-12

  ==> Primary Basis <==

  Basis Set: 6-311G
    Blend: 6-311G
    Number of shells: 146
    Number of basis functions: 230
    Number of Cartesian functions: 230
    Spherical Harmonics?: true
    Max angular momentum: 1

  ==> DFT Potential <==

   => LibXC <=

    Version 5.1.5
    S. Lehtola, C. Steigemann, M. J. Oliveira, and M. A. Marques, SoftwareX 7, 1 (2018) (10.1016/j.softx.2017.11.002)

   => Composite Functional: WB97X-D <= 

    wB97X-D Hyb-GGA Exchange-Correlation Functional

    J.-D. Chai and M. Head-Gordon, Phys. Chem. Chem. Phys. 10, 6615 (2008) (10.1039/B810189B)

    Deriv               =              1
    GGA                 =           TRUE
    Meta                =          FALSE

    Exchange Hybrid     =           TRUE
    MP2 Hybrid          =          FALSE

   => Exchange-Correlation Functionals <=

    1.0000   wB97X-D range-separated functional

   => Exact (HF) Exchange <=

    0.7780            HF,LR [omega = 0.2000]
    0.2220               HF 

   => LibXC Density Thresholds  <==

    XC_HYB_GGA_XC_WB97X_D:  1.00E-14 

   => Molecular Quadrature <=

    Radial Scheme          =       TREUTLER
    Pruning Scheme         =           NONE
    Nuclear Scheme         =       TREUTLER

    BS radius alpha        =              1
    Pruning alpha          =              1
    Radial Points          =             75
    Spherical Points       =            302
    Total Points           =         624622
    Total Blocks           =           4509
    Max Points             =            256
    Max Functions          =            184
    Weights Tolerance      =       1.00E-15

   => Loading Basis Set <=

    Name: (6-311G AUX)
    Role: JKFIT
    Keyword: DF_BASIS_SCF
    atoms 1, 4       entry N          line   177 file /home/bdw2292/miniconda3/envs/newamoebamdpoltype/share/psi4/basis/cc-pvtz-jkfit.gbs 
    atoms 2-3, 8-16  entry C          line   125 file /home/bdw2292/miniconda3/envs/newamoebamdpoltype/share/psi4/basis/cc-pvtz-jkfit.gbs 
    atoms 5          entry O          line   229 file /home/bdw2292/miniconda3/envs/newamoebamdpoltype/share/psi4/basis/cc-pvtz-jkfit.gbs 
    atoms 6-7, 17-30 entry H          line    51 file /home/bdw2292/miniconda3/envs/newamoebamdpoltype/share/psi4/basis/cc-pvtz-jkfit.gbs 

  ==> Integral Setup <==

  DFHelper Memory: AOs need 1.521 GiB; user supplied 3.546 GiB. Using in-core AOs.

  ==> MemDFJK: Density-Fitted J/K Matrices <==

    J tasked:                   Yes
    K tasked:                   Yes
    wK tasked:                  Yes
    Omega:                2.000E-01
    OpenMP threads:               2
    Memory [MiB]:              3631
    Algorithm:                 Core
    Schwarz Cutoff:           1E-12
    Mask sparsity (%):      20.4953
    Fitting Condition:        1E-10

   => Auxiliary Basis Set <=

  Basis Set: (6-311G AUX)
    Blend: CC-PVTZ-JKFIT
    Number of shells: 510
    Number of basis functions: 1586
    Number of Cartesian functions: 1904
    Spherical Harmonics?: true
    Max angular momentum: 4

  Cached 100.0% of DFT collocation blocks in 2.158 [GiB].

  Minimum eigenvalue in the overlap matrix is 2.6824765185E-04.
  Reciprocal condition number of the overlap matrix is 3.7810756859E-05.
    Using symmetric orthogonalization.

  ==> Pre-Iterations <==

  SCF Guess: Superposition of Atomic Densities via on-the-fly atomic UHF (no occupation information).

   -------------------------
    Irrep   Nso     Nmo    
   -------------------------
     A        230     230 
   -------------------------
    Total     230     230
   -------------------------

  ==> Iterations <==

                           Total Energy        Delta E     RMS |[F,P]|

   @DF-RKS iter SAD:  -612.16272482439945   -6.12163e+02   0.00000e+00 
   @DF-RKS iter   1:  -612.77307001953943   -6.10345e-01   4.37780e-03 DIIS
   @DF-RKS iter   2:  -612.87748869901782   -1.04419e-01   4.31011e-03 DIIS
   @DF-RKS iter   3:  -613.24331782180411   -3.65829e-01   1.18060e-03 DIIS
   @DF-RKS iter   4:  -613.27083685899515   -2.75190e-02   2.32674e-04 DIIS
   @DF-RKS iter   5:  -613.27194270037637   -1.10584e-03   9.73645e-05 DIIS
   @DF-RKS iter   6:  -613.27216055789972   -2.17858e-04   2.01342e-05 DIIS
   @DF-RKS iter   7:  -613.27217135623277   -1.07983e-05   6.15799e-06 DIIS
   @DF-RKS iter   8:  -613.27217282764593   -1.47141e-06   1.81279e-06 DIIS
   @DF-RKS iter   9:  -613.27217301450457   -1.86859e-07   9.83748e-07 DIIS
   @DF-RKS iter  10:  -613.27217305782335   -4.33188e-08   2.57320e-07 DIIS
   @DF-RKS iter  11:  -613.27217306252044   -4.69709e-09   9.47328e-08 DIIS
   @DF-RKS iter  12:  -613.27217306290856   -3.88127e-10   2.88189e-08 DIIS
   @DF-RKS iter  13:  -613.27217306296473   -5.61613e-11   8.81946e-09 DIIS
  Energy and wave function converged.


  ==> Post-Iterations <==

   Electrons on quadrature grid:
      Ntotal   =  103.9999535073 ; deviation = -4.649e-05 

    Orbital Energies [Eh]
    ---------------------

    Doubly Occupied:                                                      

       1A    -19.222529     2A    -14.476115     3A    -14.434216  
       4A    -10.410626     5A    -10.341680     6A    -10.329808  
       7A    -10.327929     8A    -10.307907     9A    -10.300778  
      10A    -10.298182    11A    -10.297257    12A    -10.296383  
      13A    -10.295863    14A    -10.291381    15A     -1.158909  
      16A     -1.043079    17A     -1.024664    18A     -0.956195  
      19A     -0.858535    20A     -0.852974    21A     -0.831138  
      22A     -0.805370    23A     -0.800985    24A     -0.728561  
      25A     -0.707302    26A     -0.691519    27A     -0.650242  
      28A     -0.603907    29A     -0.597163    30A     -0.576134  
      31A     -0.572124    32A     -0.555739    33A     -0.551011  
      34A     -0.532587    35A     -0.531333    36A     -0.518921  
      37A     -0.512713    38A     -0.497708    39A     -0.493557  
      40A     -0.485169    41A     -0.476680    42A     -0.458770  
      43A     -0.452193    44A     -0.446512    45A     -0.444634  
      46A     -0.439246    47A     -0.433852    48A     -0.349817  
      49A     -0.345040    50A     -0.330219    51A     -0.308842  
      52A     -0.290507  

    Virtual:                                                              

      53A      0.051341    54A      0.061795    55A      0.075594  
      56A      0.110688    57A      0.125567    58A      0.137457  
      59A      0.155394    60A      0.162542    61A      0.169215  
      62A      0.170484    63A      0.175087    64A      0.180922  
      65A      0.189074    66A      0.193458    67A      0.201344  
      68A      0.206415    69A      0.211169    70A      0.222472  
      71A      0.229485    72A      0.234162    73A      0.242851  
      74A      0.255160    75A      0.275738    76A      0.304592  
      77A      0.305090    78A      0.317443    79A      0.341740  
      80A      0.349045    81A      0.361184    82A      0.369732  
      83A      0.371816    84A      0.380100    85A      0.385272  
      86A      0.404087    87A      0.426161    88A      0.446976  
      89A      0.448107    90A      0.462226    91A      0.464167  
      92A      0.478058    93A      0.486198    94A      0.486848  
      95A      0.492983    96A      0.505820    97A      0.517137  
      98A      0.529673    99A      0.539048   100A      0.543275  
     101A      0.550899   102A      0.556207   103A      0.557939  
     104A      0.577330   105A      0.586558   106A      0.603599  
     107A      0.609311   108A      0.619518   109A      0.627955  
     110A      0.636828   111A      0.642888   112A      0.650281  
     113A      0.657635   114A      0.663814   115A      0.668144  
     116A      0.676715   117A      0.679950   118A      0.680611  
     119A      0.689943   120A      0.694636   121A      0.699192  
     122A      0.706989   123A      0.714106   124A      0.727441  
     125A      0.742675   126A      0.747916   127A      0.753330  
     128A      0.754585   129A      0.759314   130A      0.768653  
     131A      0.814664   132A      0.830775   133A      0.849243  
     134A      0.859151   135A      0.867576   136A      0.873608  
     137A      0.882477   138A      0.904259   139A      0.935602  
     140A      0.944774   141A      0.953855   142A      0.970648  
     143A      0.992074   144A      1.014590   145A      1.045460  
     146A      1.078956   147A      1.095984   148A      1.112461  
     149A      1.114466   150A      1.130287   151A      1.153329  
     152A      1.222890   153A      1.245212   154A      1.303291  
     155A      1.369482   156A      1.448236   157A      1.519094  
     158A      1.753509   159A      2.298434   160A      2.307110  
     161A      2.317669   162A      2.330889   163A      2.347183  
     164A      2.353625   165A      2.357867   166A      2.366385  
     167A      2.376689   168A      2.395597   169A      2.412337  
     170A      2.422155   171A      2.428735   172A      2.449146  
     173A      2.471435   174A      2.627585   175A      2.636317  
     176A      2.668601   177A      2.685723   178A      2.702580  
     179A      2.782599   180A      2.793649   181A      2.843132  
     182A      2.850130   183A      2.884538   184A      2.901458  
     185A      2.917854   186A      2.923776   187A      2.955197  
     188A      2.965143   189A      2.971727   190A      2.997442  
     191A      3.024391   192A      3.032314   193A      3.066420  
     194A      3.085208   195A      3.088893   196A      3.125388  
     197A      3.149325   198A      3.163493   199A      3.178656  
     200A      3.213138   201A      3.241028   202A      3.243196  
     203A      3.300519   204A      3.317798   205A      3.349998  
     206A      3.374138   207A      3.506409   208A      3.920078  
     209A      3.944888   210A      4.079924   211A      4.107160  
     212A      4.132711   213A      4.246504   214A      4.998169  
     215A      5.089453   216A      5.123456   217A     23.244103  
     218A     23.443348   219A     23.476290   220A     23.490288  
     221A     23.527918   222A     23.544595   223A     23.584257  
     224A     23.666849   225A     23.717835   226A     23.749387  
     227A     23.990777   228A     35.534971   229A     35.562619  
     230A     50.053238  

    Final Occupation by Irrep:
              A 
    DOCC [    52 ]

  @DF-RKS Final Energy:  -613.27217306296473

   => Energetics <=

    Nuclear Repulsion Energy =            872.4775143174097138
    One-Electron Energy =               -2561.4366298745026143
    Two-Electron Energy =                1136.0986979952845104
    DFT Exchange-Correlation Energy =     -60.3922711842164119
    Empirical Dispersion Energy =          -0.0194843169399569
    VV10 Nonlocal Energy =                  0.0000000000000000
    Total Energy =                       -613.2721730629647254

Computation Completed


Properties will be evaluated at   0.000000,   0.000000,   0.000000 [a0]

Properties computed using the SCF density matrix

  Nuclear Dipole Moment: [e a0]
     X:    12.8110      Y:    -0.5537      Z:    -6.4369

  Electronic Dipole Moment: [e a0]
     X:   -12.8386      Y:     0.8788      Z:     5.0962

  Dipole Moment: [e a0]
     X:    -0.0276      Y:     0.3251      Z:    -1.3407     Total:     1.3798

  Dipole Moment: [D]
     X:    -0.0702      Y:     0.8263      Z:    -3.4077     Total:     3.5071


*** tstop() called on node74.bme.utexas.edu at Wed Jun  8 13:01:29 2022
Module time:
	user time   =     136.01 seconds =       2.27 minutes
	system time =       9.12 seconds =       0.15 minutes
	total time  =         74 seconds =       1.23 minutes
Total time:
	user time   =     136.01 seconds =       2.27 minutes
	system time =       9.12 seconds =       0.15 minutes
	total time  =         74 seconds =       1.23 minutes

*** tstart() called on node74.bme.utexas.edu
*** at Wed Jun  8 13:01:29 2022


         ------------------------------------------------------------
                                   SCF GRAD                          
                          Rob Parrish, Justin Turney,                
                       Andy Simmonett, and Alex Sokolov              
         ------------------------------------------------------------

  ==> Geometry <==

    Molecular point group: c1
    Full point group: C1

    Geometry (in Angstrom), charge = 0, multiplicity = 1:

       Center              X                  Y                   Z               Mass       
    ------------   -----------------  -----------------  -----------------  -----------------
         N           -0.221226776839     0.386845910261    -0.631371161634    14.003074004430
         C            0.932151223161     0.229976910261     0.178249838366    12.000000000000
         C            2.301777223161     0.522310910261    -0.509965161634    12.000000000000
         N            3.245004223161    -0.620024089739    -0.516587161634    14.003074004430
         O            0.846983223161    -0.061732089739     1.373544838366    15.994914619570
         H            2.225644223161     0.927040910261    -1.531694161634     1.007825032230
         H            2.795821223161     1.335577910261     0.051441838366     1.007825032230
         C           -1.535850776839     0.240494910261    -0.034650161634    12.000000000000
         C           -4.121569776839    -0.025310089739     1.076209838366    12.000000000000
         C           -3.178430776839    -1.048933089739     1.236100838366    12.000000000000
         C           -3.775988776839     1.130078910261     0.363189838366    12.000000000000
         C           -1.893937776839    -0.927371089739     0.688861838366    12.000000000000
         C           -2.496246776839     1.272056910261    -0.191835161634    12.000000000000
         C           -0.176284776839     0.308751910261    -2.112367161634    12.000000000000
         C            4.368884223161    -0.390184089739    -1.446036161634    12.000000000000
         C            3.769905223161    -0.907849089739     0.838559838366    12.000000000000
         H           -3.442112776839    -1.952144089739     1.789037838366     1.007825032230
         H           -4.506340776839     1.930722910261     0.233045838366     1.007825032230
         H           -1.169092776839    -1.731838089739     0.824371838366     1.007825032230
         H           -2.244568776839     2.180420910261    -0.743221161634     1.007825032230
         H           -1.144023776839     0.009529910261    -2.517435161634     1.007825032230
         H            0.080934223161     1.281420910261    -2.532374161634     1.007825032230
         H            0.553675223161    -0.433569089739    -2.437971161634     1.007825032230
         H            3.979791223161    -0.258794089739    -2.469251161634     1.007825032230
         H            4.952442223161     0.500315910261    -1.156520161634     1.007825032230
         H            4.371991223161    -0.068521089739     1.225274838366     1.007825032230
         H            2.927284223161    -1.084921089739     1.524922838366     1.007825032230
         H           -5.120456776839    -0.128238089739     1.504562838366     1.007825032230
         H            5.027218223161    -1.274190089739    -1.454728161634     1.007825032230
         H            4.382316223161    -1.823854089739     0.813742838366     1.007825032230

  Nuclear repulsion =  872.477514317409714

  ==> Basis Set <==

  Basis Set: 6-311G
    Blend: 6-311G
    Number of shells: 146
    Number of basis functions: 230
    Number of Cartesian functions: 230
    Spherical Harmonics?: true
    Max angular momentum: 1

  ==> DFJKGrad: Density-Fitted SCF Gradients <==

    Gradient:                    1
    J tasked:                  Yes
    K tasked:                  Yes
    wK tasked:                 Yes
    Omega:               2.000E-01
    OpenMP threads:              2
    Integrals threads:           2
    Memory [MiB]:             5841
    Schwarz Cutoff:          1E-12
    Fitting Condition:       1E-10

   => Auxiliary Basis Set <=

  Basis Set: (6-311G AUX)
    Blend: CC-PVTZ-JKFIT
    Number of shells: 510
    Number of basis functions: 1586
    Number of Cartesian functions: 1904
    Spherical Harmonics?: true
    Max angular momentum: 4

  ==> DFT Potential <==

   => LibXC <=

    Version 5.1.5
    S. Lehtola, C. Steigemann, M. J. Oliveira, and M. A. Marques, SoftwareX 7, 1 (2018) (10.1016/j.softx.2017.11.002)

   => Composite Functional: WB97X-D <= 

    wB97X-D Hyb-GGA Exchange-Correlation Functional

    J.-D. Chai and M. Head-Gordon, Phys. Chem. Chem. Phys. 10, 6615 (2008) (10.1039/B810189B)

    Deriv               =              1
    GGA                 =           TRUE
    Meta                =          FALSE

    Exchange Hybrid     =           TRUE
    MP2 Hybrid          =          FALSE

   => Exchange-Correlation Functionals <=

    1.0000   wB97X-D range-separated functional

   => Exact (HF) Exchange <=

    0.7780            HF,LR [omega = 0.2000]
    0.2220               HF 

   => LibXC Density Thresholds  <==

    XC_HYB_GGA_XC_WB97X_D:  1.00E-14 

   => Molecular Quadrature <=

    Radial Scheme          =       TREUTLER
    Pruning Scheme         =           NONE
    Nuclear Scheme         =       TREUTLER

    BS radius alpha        =              1
    Pruning alpha          =              1
    Radial Points          =             75
    Spherical Points       =            302
    Total Points           =         624622
    Total Blocks           =           4509
    Max Points             =            256
    Max Functions          =            184
    Weights Tolerance      =       1.00E-15


  -Total Gradient:
     Atom            X                  Y                   Z
    ------   -----------------  -----------------  -----------------
       1       -0.004252792199     0.014196354783    -0.009215365391
       2        0.005117877575    -0.007286737771     0.033757914615
       3       -0.005632111578    -0.004075663851    -0.003425877003
       4       -0.001415445809     0.003181800878    -0.002920792628
       5       -0.002750551142    -0.000981656296    -0.004994283324
       6        0.006541326879     0.009021322489    -0.006621699522
       7        0.007769882335    -0.003333915605    -0.004815081560
       8        0.010709846705     0.001090191783    -0.009330710401
       9       -0.001572005541    -0.000672176565     0.000820198931
      10       -0.001810236835    -0.001493878168     0.001474665000
      11       -0.000529674777     0.000872244004     0.001489303664
      12       -0.002259437045    -0.008160895107     0.006396536100
      13       -0.006907466147     0.009227578515    -0.001924236012
      14       -0.006396546208    -0.005018531340    -0.003473556770
      15        0.008922972648     0.004977607140     0.005412244253
      16        0.011636106822     0.010319805355    -0.000756693074
      17       -0.001852916907    -0.005510053565     0.003364258365
      18       -0.004343979452     0.004839909070    -0.001073549748
      19        0.003814763467    -0.007574547575     0.001364038629
      20       -0.000810106981     0.006242813634    -0.003816755003
      21       -0.000450072867    -0.000960135517    -0.006392563352
      22       -0.000515420510     0.000293614305     0.003013028089
      23       -0.000515002755    -0.000905492739    -0.000904721584
      24       -0.003537674092    -0.000565751333    -0.006615764198
      25       -0.001959432948     0.000767542082     0.002027640212
      26       -0.000576939696     0.000367311994    -0.000086163011
      27       -0.007689375318    -0.002959664288     0.005213873596
      28       -0.006426315919    -0.000928071317     0.002686250005
      29        0.004699400178    -0.007210666192    -0.001776608450
      30        0.002976769224    -0.007695775687     0.001636282922


*** tstop() called on node74.bme.utexas.edu at Wed Jun  8 13:02:05 2022
Module time:
	user time   =      66.24 seconds =       1.10 minutes
	system time =       2.12 seconds =       0.04 minutes
	total time  =         36 seconds =       0.60 minutes
Total time:
	user time   =     202.26 seconds =       3.37 minutes
	system time =      11.24 seconds =       0.19 minutes
	total time  =        110 seconds =       1.83 minutes

			-----------------------------------------
			 OPTKING 2.0: for geometry optimizations 
			  - R.A. King,  Bethel University        
			-----------------------------------------
	At level 1: Red. Int., RFO, no backsteps, dynamic trust

	Internal coordinates to be generated automatically.
	Detected frag 1 with atoms:  1 2 3 4 5 6 7 8 9 10 11 12 13 14 15 16 17 18 19 20
	 21 22 23 24 25 26 27 28 29 30
	---Fragment 1 Bond Connectivity---
	 1 : 2 8 14
	 2 : 1 3 5
	 3 : 2 4 6 7
	 4 : 3 15 16
	 5 : 2
	 6 : 3
	 7 : 3
	 8 : 1 12 13
	 9 : 10 11 28
	 10 : 9 12 17
	 11 : 9 13 18
	 12 : 8 10 19
	 13 : 8 11 20
	 14 : 1 21 22 23
	 15 : 4 24 25 29
	 16 : 4 26 27 30
	 17 : 10
	 18 : 11
	 19 : 12
	 20 : 13
	 21 : 14
	 22 : 14
	 23 : 14
	 24 : 15
	 25 : 15
	 26 : 16
	 27 : 16
	 28 : 9
	 29 : 15
	 30 : 16

	Assuming in current code that numbering for constraints corresponds to unified fragment.
	Frozen dihedral atom list: 
	     1     2     3     4
	     2     1     8    12
	     8     1     2     3
	     2     3     4    15
	---Fragment 1 Geometry and Gradient---
	 N          -0.4180580198        0.7310328231       -1.1931185790
	 C           1.7615105193        0.4345933756        0.3368433764
	 C           4.3497285536        0.9870245727       -0.9636944890
	 N           6.1321692577       -1.1716757208       -0.9762082554
	 O           1.6005663246       -0.1166567428        2.5956235655
	 H           4.2058580345        1.7518534275       -2.8944824735
	 H           5.2833364075        2.5238764696        0.0972109859
	 C          -2.9023373378        0.4544695150       -0.0654793157
	 C          -7.7886380852       -0.0478291378        2.0337418480
	 C          -6.0063636770       -1.9821962635        2.3358920480
	 C          -7.1355846410        2.1355396405        0.6863293261
	 C          -3.5790236969       -1.7524773763        1.3017602128
	 C          -4.7172227498        2.4038391764       -0.3625159167
	 C          -0.3331299483        0.5834565511       -3.9917954119
	 C           8.2559946556       -0.7373410681       -2.7326123130
	 C           7.1240883907       -1.7155861429        1.5846484343
	 H          -6.5046504412       -3.6890176870        3.3807915426
	 H          -8.5157498962        3.6485375245        0.4403928092
	 H          -2.2092651635       -3.2726996832        1.5578370001
	 H          -4.2416202580        4.1203983586       -1.4044844461
	 H          -2.1618916192        0.0180089204       -4.7572629941
	 H           0.1529435160        2.4215345718       -4.7854936127
	 H           1.0462945342       -0.8193268361       -4.6070977973
	 H           7.5207154483       -0.4890499525       -4.6662084305
	 H           9.3587594539        0.9454600466       -2.1855063641
	 H           8.2618660347       -0.1294860934        2.3154338729
	 H           5.5317654731       -2.0502037273        2.8816865270
	 H          -9.6762609455       -0.2423348685        2.8432117031
	 H           9.5000656147       -2.4078703014       -2.7490378125
	 H           8.2813774569       -3.4465847224        1.5377511011
	            -0.0042527922        0.0141963548       -0.0092153654
	             0.0051178776       -0.0072867378        0.0337579146
	            -0.0056321116       -0.0040756639       -0.0034258770
	            -0.0014154458        0.0031818009       -0.0029207926
	            -0.0027505511       -0.0009816563       -0.0049942833
	             0.0065413269        0.0090213225       -0.0066216995
	             0.0077698823       -0.0033339156       -0.0048150816
	             0.0107098467        0.0010901918       -0.0093307104
	            -0.0015720055       -0.0006721766        0.0008201989
	            -0.0018102368       -0.0014938782        0.0014746650
	            -0.0005296748        0.0008722440        0.0014893037
	            -0.0022594370       -0.0081608951        0.0063965361
	            -0.0069074661        0.0092275785       -0.0019242360
	            -0.0063965462       -0.0050185313       -0.0034735568
	             0.0089229726        0.0049776071        0.0054122443
	             0.0116361068        0.0103198054       -0.0007566931
	            -0.0018529169       -0.0055100536        0.0033642584
	            -0.0043439795        0.0048399091       -0.0010735497
	             0.0038147635       -0.0075745476        0.0013640386
	            -0.0008101070        0.0062428136       -0.0038167550
	            -0.0004500729       -0.0009601355       -0.0063925634
	            -0.0005154205        0.0002936143        0.0030130281
	            -0.0005150028       -0.0009054927       -0.0009047216
	            -0.0035376741       -0.0005657513       -0.0066157642
	            -0.0019594329        0.0007675421        0.0020276402
	            -0.0005769397        0.0003673120       -0.0000861630
	            -0.0076893753       -0.0029596643        0.0052138736
	            -0.0064263159       -0.0009280713        0.0026862500
	             0.0046994002       -0.0072106662       -0.0017766084
	             0.0029767692       -0.0076957757        0.0016362829

	Previous optimization step data not found.  Starting new optimization.

	---Fragment 1 Intrafragment Coordinates---
	 - Coordinate -           - BOHR/RAD -       - ANG/DEG -
	 R(1,2)           =         2.679399	       1.417877
	 R(1,8)           =         2.742207	       1.451114
	 R(1,14)          =         2.803852	       1.483734
	 R(2,3)           =         2.948805	       1.560440
	 R(2,5)           =         2.330637	       1.233320
	 R(3,4)           =         2.799507	       1.481435
	 R(3,6)           =         2.081731	       1.101605
	 R(3,7)           =         2.087836	       1.104835
	 R(4,15)          =         2.790024	       1.476417
	 R(4,16)          =         2.799594	       1.481482
	 R(8,12)          =         2.682883	       1.419721
	 R(8,13)          =         2.679941	       1.418164
	 R(9,10)          =         2.647560	       1.401028
	 R(9,11)          =         2.647470	       1.400981
	 R(9,28)          =         2.063055	       1.091721
	 R(10,12)         =         2.648429	       1.401489
	 R(10,17)         =         2.062364	       1.091356
	 R(11,13)         =         2.649629	       1.402123
	 R(11,18)         =         2.062645	       1.091505
	 R(12,19)         =         2.062254	       1.091298
	 R(13,20)         =         2.063606	       1.092013
	 R(14,21)         =         2.061563	       1.090932
	 R(14,22)         =         2.060280	       1.090253
	 R(14,23)         =         2.061361	       1.090825
	 R(15,24)         =         2.083525	       1.102554
	 R(15,25)         =         2.085002	       1.103336
	 R(15,29)         =         2.082943	       1.102246
	 R(16,26)         =         2.084298	       1.102963
	 R(16,27)         =         2.080810	       1.101117
	 R(16,30)         =         2.082756	       1.102147
	 B(1,2,3)         =         2.027976	     116.194454
	 B(1,2,5)         =         2.121631	     121.560510
	 B(1,8,12)        =         2.118848	     121.401021
	 B(1,8,13)        =         2.088142	     119.641726
	 B(1,14,21)       =         1.937121	     110.988851
	 B(1,14,22)       =         1.922733	     110.164476
	 B(1,14,23)       =         1.932672	     110.733972
	 B(2,1,8)         =         2.084006	     119.404727
	 B(2,1,14)        =         2.140631	     122.649132
	 B(2,3,4)         =         2.000228	     114.604620
	 B(2,3,6)         =         2.001190	     114.659766
	 B(2,3,7)         =         1.882077	     107.835072
	 B(3,2,5)         =         2.132186	     122.165263
	 B(3,4,15)        =         1.947053	     111.557924
	 B(3,4,16)        =         1.951215	     111.796388
	 B(4,3,6)         =         1.899863	     108.854106
	 B(4,3,7)         =         1.859977	     106.568856
	 B(4,15,24)       =         1.911494	     109.520544
	 B(4,15,25)       =         1.942354	     111.288709
	 B(4,15,29)       =         1.912152	     109.558216
	 B(4,16,26)       =         1.945806	     111.486490
	 B(4,16,27)       =         1.907406	     109.286337
	 B(4,16,30)       =         1.915316	     109.739545
	 B(6,3,7)         =         1.804676	     103.400335
	 B(8,1,14)        =         2.018159	     115.632005
	 B(8,12,10)       =         2.096138	     120.099842
	 B(8,12,19)       =         2.096876	     120.142141
	 B(8,13,11)       =         2.095056	     120.037879
	 B(8,13,20)       =         2.100120	     120.328040
	 B(9,10,12)       =         2.104872	     120.600257
	 B(9,10,17)       =         2.094212	     119.989537
	 B(9,11,13)       =         2.106112	     120.671314
	 B(9,11,18)       =         2.095049	     120.037484
	 B(10,9,11)       =         2.088141	     119.641683
	 B(10,9,28)       =         2.097020	     120.150368
	 B(10,12,19)      =         2.090164	     119.757572
	 B(11,9,28)       =         2.098024	     120.207937
	 B(11,13,20)      =         2.088008	     119.634031
	 B(12,8,13)       =         2.076052	     118.949004
	 B(12,10,17)      =         2.084099	     119.410064
	 B(13,11,18)      =         2.082022	     119.291087
	 B(15,4,16)       =         1.913871	     109.656728
	 B(21,14,22)      =         1.886982	     108.116080
	 B(21,14,23)      =         1.871435	     107.225344
	 B(22,14,23)      =         1.911607	     109.527017
	 B(24,15,25)      =         1.911328	     109.511034
	 B(24,15,29)      =         1.874474	     107.399453
	 B(25,15,29)      =         1.910777	     109.479484
	 B(26,16,27)      =         1.898167	     108.756947
	 B(26,16,30)      =         1.914556	     109.695964
	 B(27,16,30)      =         1.881357	     107.793818
	*D(1,2,3,4)       =        -2.107157	    -120.731223
	 D(1,2,3,6)       =         0.108811	       6.234409
	 D(1,2,3,7)       =         2.108204	     120.791167
	 D(1,8,12,10)     =        -3.124103	    -178.997916
	 D(1,8,12,19)     =         0.021734	       1.245257
	 D(1,8,13,11)     =         3.123938	     178.988481
	 D(1,8,13,20)     =        -0.019080	      -1.093210
	*D(2,1,8,12)      =        -0.949811	     -54.420187
	 D(2,1,8,13)      =         2.210211	     126.635756
	 D(2,1,14,21)     =         2.697969	     154.582244
	 D(2,1,14,22)     =        -1.495815	     -85.703906
	 D(2,1,14,23)     =         0.621535	      35.611334
	*D(2,3,4,15)      =         2.904589	     166.420678
	 D(2,3,4,16)      =        -1.228397	     -70.381964
	*D(3,2,1,8)       =        -3.053755	    -174.967251
	 D(3,2,1,14)      =         0.402663	      23.070863
	 D(3,4,15,24)     =        -1.051252	     -60.232293
	 D(3,4,15,25)     =         1.064581	      60.995991
	 D(3,4,15,29)     =        -3.103022	    -177.790063
	 D(3,4,16,26)     =        -1.119515	     -64.143501
	 D(3,4,16,27)     =         0.979344	      56.112292
	 D(3,4,16,30)     =         3.038910	     174.116709
	 D(4,3,2,5)       =         1.090321	      62.470792
	 D(5,2,1,8)       =         0.032318	       1.851693
	 D(5,2,1,14)      =        -2.794450	    -160.110192
	 D(5,2,3,6)       =        -2.976896	    -170.563576
	 D(5,2,3,7)       =        -0.977503	     -56.006818
	 D(6,3,4,15)      =         0.637614	      36.532617
	 D(6,3,4,16)      =         2.787814	     159.729975
	 D(7,3,4,15)      =        -1.298344	     -74.389624
	 D(7,3,4,16)      =         0.851856	      48.807734
	 D(8,1,14,21)     =        -0.139767	      -8.008035
	 D(8,1,14,22)     =         1.949634	     111.705815
	 D(8,1,14,23)     =        -2.216201	    -126.978945
	 D(8,12,10,9)     =         0.000961	       0.055051
	 D(8,12,10,17)    =         3.140168	     179.918382
	 D(8,13,11,9)     =         0.000034	       0.001962
	 D(8,13,11,18)    =        -3.139409	    -179.874863
	 D(9,10,12,19)    =         3.138326	     179.812816
	 D(9,11,13,20)    =        -3.140143	    -179.916915
	 D(10,9,11,13)    =         0.000097	       0.005551
	 D(10,9,11,18)    =         3.139524	     179.881459
	 D(10,12,8,13)    =        -0.000815	      -0.046719
	 D(11,9,10,12)    =        -0.000597	      -0.034195
	 D(11,9,10,17)    =        -3.139790	    -179.896735
	 D(11,13,8,12)    =         0.000322	       0.018466
	 D(12,8,1,14)     =         1.898411	     108.770956
	 D(12,8,13,20)    =         3.140489	     179.936774
	 D(12,10,9,28)    =         3.140298	     179.925814
	 D(13,8,1,14)     =        -1.224752	     -70.173101
	 D(13,8,12,19)    =        -3.138164	    -179.803546
	 D(13,11,9,28)    =        -3.140797	    -179.954435
	 D(15,4,16,26)    =         1.049371	      60.124532
	 D(15,4,16,27)    =        -3.134955	    -179.619675
	 D(15,4,16,30)    =        -1.075389	     -61.615258
	 D(16,4,15,24)    =         3.060625	     175.360917
	 D(16,4,15,25)    =        -1.106727	     -63.410799
	 D(16,4,15,29)    =         1.008855	      57.803147
	 D(17,10,9,28)    =         0.001104	       0.063274
	 D(17,10,12,19)   =        -0.005652	      -0.323852
	 D(18,11,9,28)    =        -0.001371	      -0.078527
	 D(18,11,13,20)   =         0.003600	       0.206259
	 R(5,12)          =         5.583739	       2.954788
	 R(5,16)          =         5.838488	       3.089595

	Current energy   :      -613.2721730630

	Generating empirical Hessian (Schlegel '84) for each fragment.
	Taking RFO optimization step.
	Going to follow RFO solution 1.
	Using RFO vector 1.
	Norm of target step-size    0.34707
	Projected energy change by RFO approximation:        -0.0075064198

	Back-transformation to cartesian coordinates...
	Successfully converged to displaced geometry.

	Back-transformation to cartesian coordinates to adjust frozen coordinates...
	Successfully converged to displaced geometry.

	--- Internal Coordinate Step in ANG or DEG, aJ/ANG or AJ/DEG ---
	 ---------------------------------------------------------------------------
	   Coordinate                Previous        Force       Change         New 
	   ----------                --------       ------       ------       ------
	    1 R(1,2)          =      1.417877    -0.224138    -0.024453     1.393424
	    2 R(1,8)          =      1.451114    -0.081334    -0.010635     1.440478
	    3 R(1,14)         =      1.483734    -0.065033     0.012699     1.496434
	    4 R(2,3)          =      1.560440    -0.180818    -0.036435     1.524006
	    5 R(2,5)          =      1.233320     0.043777     0.023520     1.256840
	    6 R(3,4)          =      1.481435    -0.034308     0.001102     1.482537
	    7 R(3,6)          =      1.101605    -0.074324     0.004717     1.106321
	    8 R(3,7)          =      1.104835     0.011839     0.020658     1.125493
	    9 R(4,15)         =      1.476417    -0.053963     0.001425     1.477842
	   10 R(4,16)         =      1.481482    -0.055118     0.012225     1.493707
	   11 R(8,12)         =      1.419721    -0.172416    -0.003396     1.416324
	   12 R(8,13)         =      1.418164    -0.170235    -0.017018     1.401145
	   13 R(9,10)         =      1.401028    -0.063336     0.000407     1.401435
	   14 R(9,11)         =      1.400981    -0.074620     0.013948     1.414929
	   15 R(9,28)         =      1.091721    -0.057815    -0.007057     1.084665
	   16 R(10,12)        =      1.401489    -0.079002    -0.006742     1.394747
	   17 R(10,17)        =      1.091356    -0.055325     0.008430     1.099786
	   18 R(11,13)        =      1.402123    -0.076079    -0.006339     1.395785
	   19 R(11,18)        =      1.091505    -0.054195    -0.002925     1.088580
	   20 R(12,19)        =      1.091298    -0.068327    -0.005717     1.085581
	   21 R(13,20)        =      1.092013    -0.057099     0.008040     1.100054
	   22 R(14,21)        =      1.090932    -0.025059     0.003398     1.094330
	   23 R(14,22)        =      1.090253     0.008255     0.020007     1.110260
	   24 R(14,23)        =      1.090825    -0.004357     0.004652     1.095477
	   25 R(15,24)        =      1.102554    -0.060612     0.005958     1.108512
	   26 R(15,25)        =      1.103336    -0.000891     0.016690     1.120026
	   27 R(15,29)        =      1.102246    -0.070822    -0.005143     1.097103
	   28 R(16,26)        =      1.102963     0.000738     0.016822     1.119785
	   29 R(16,27)        =      1.101117    -0.078972    -0.006459     1.094658
	   30 R(16,30)        =      1.102147    -0.066154    -0.003553     1.098594
	   31 B(1,2,3)        =    116.194454    -0.000608    -1.773141   114.421313
	   32 B(1,2,5)        =    121.560510     0.000439     1.277116   122.837625
	   33 B(1,8,12)       =    121.401021     0.000146     0.217736   121.618757
	   34 B(1,8,13)       =    119.641726    -0.000477    -1.707282   117.934444
	   35 B(1,14,21)      =    110.988851    -0.000695    -2.742621   108.246230
	   36 B(1,14,22)      =    110.164476     0.000450     2.100768   112.265244
	   37 B(1,14,23)      =    110.733972    -0.000040    -0.208170   110.525802
	   38 B(2,1,8)        =    119.404727     0.000407    -0.299937   119.104790
	   39 B(2,1,14)       =    122.649132    -0.000608    -0.562931   122.086201
	   40 B(2,3,4)        =    114.604620     0.000004    -2.121244   112.483376
	   41 B(2,3,6)        =    114.659766    -0.000333    -2.560072   112.099694
	   42 B(2,3,7)        =    107.835072    -0.000530    -2.199020   105.636053
	   43 B(3,2,5)        =    122.165263     0.000158     0.163738   122.329002
	   44 B(3,4,15)       =    111.557924    -0.000403    -2.123825   109.434099
	   45 B(3,4,16)       =    111.796388     0.000423     1.110905   112.907294
	   46 B(4,3,6)        =    108.854106     0.000076    -0.317859   108.536247
	   47 B(4,3,7)        =    106.568856     0.000575     5.158682   111.727538
	   48 B(4,15,24)      =    109.520544     0.000114     1.211866   110.732410
	   49 B(4,15,25)      =    111.288709     0.000292     1.026139   112.314848
	   50 B(4,15,29)      =    109.558216    -0.000165    -1.597359   107.960856
	   51 B(4,16,26)      =    111.486490     0.000012    -0.228840   111.257650
	   52 B(4,16,27)      =    109.286337     0.000127     1.387425   110.673762
	   53 B(4,16,30)      =    109.739545    -0.000171    -0.923377   108.816169
	   54 B(6,3,7)        =    103.400335     0.000299     2.791433   106.191769
	   55 B(8,1,14)       =    115.632005     0.000216     1.423409   117.055414
	   56 B(8,12,10)      =    120.099842    -0.000031    -0.074217   120.025625
	   57 B(8,12,19)      =    120.142141    -0.000147     0.013021   120.155163
	   58 B(8,13,11)      =    120.037879     0.000085    -0.677070   119.360809
	   59 B(8,13,20)      =    120.328040    -0.000226    -0.268035   120.060005
	   60 B(9,10,12)      =    120.600257    -0.000084    -0.911674   119.688583
	   61 B(9,10,17)      =    119.989537     0.000058     0.708802   120.698340
	   62 B(9,11,13)      =    120.671314    -0.000194    -0.329350   120.341964
	   63 B(9,11,18)      =    120.037484     0.000083     0.758535   120.796019
	   64 B(10,9,11)      =    119.641683    -0.000107     0.506461   120.148144
	   65 B(10,9,28)      =    120.150368     0.000072    -0.670110   119.480258
	   66 B(10,12,19)     =    119.757572     0.000178     0.054828   119.812400
	   67 B(11,9,28)      =    120.207937     0.000035     0.163051   120.370988
	   68 B(11,13,20)     =    119.634031     0.000141     0.945125   120.579156
	   69 B(12,8,13)      =    118.949004     0.000331     1.480709   120.429713
	   70 B(12,10,17)     =    119.410064     0.000026     0.202963   119.613028
	   71 B(13,11,18)     =    119.291087     0.000112    -0.432222   118.858866
	   72 B(15,4,16)      =    109.656728    -0.000008     1.332122   110.988850
	   73 B(21,14,22)     =    108.116080     0.000111     0.578641   108.694721
	   74 B(21,14,23)     =    107.225344     0.000281    -0.068514   107.156830
	   75 B(22,14,23)     =    109.527017    -0.000108     0.262393   109.789409
	   76 B(24,15,25)     =    109.511034    -0.000175    -0.728133   108.782901
	   77 B(24,15,29)     =    107.399453     0.000062     0.230720   107.630172
	   78 B(25,15,29)     =    109.479484    -0.000138    -0.178114   109.301369
	   79 B(26,16,27)     =    108.756947    -0.000061    -0.458986   108.297961
	   80 B(26,16,30)     =    109.695964    -0.000030     0.076523   109.772487
	   81 B(27,16,30)     =    107.793818     0.000130     0.169313   107.963131
	   82 *D(1,2,3,4)     =   -120.731223    -0.000000     0.000000  -120.731223
	   83 D(1,2,3,6)      =      6.234409    -0.000044    -4.323364     1.911045
	   84 D(1,2,3,7)      =    120.791167    -0.000082    -3.654888   117.136278
	   85 D(1,8,12,10)    =   -178.997916     0.000010     0.671013  -178.326902
	   86 D(1,8,12,19)    =      1.245257     0.000017     1.379011     2.624269
	   87 D(1,8,13,11)    =    178.988481    -0.000014    -1.181429   177.807052
	   88 D(1,8,13,20)    =     -1.093210    -0.000014    -1.162536    -2.255746
	   89 *D(2,1,8,12)    =    -54.420187     0.000000     0.000000   -54.420187
	   90 D(2,1,8,13)     =    126.635756     0.000009     0.442000   127.077756
	   91 D(2,1,14,21)    =    154.582244     0.000007     0.433287   155.015532
	   92 D(2,1,14,22)    =    -85.703906     0.000004     0.697160   -85.006747
	   93 D(2,1,14,23)    =     35.611334     0.000035     2.333350    37.944684
	   94 *D(2,3,4,15)    =    166.420678     0.000000     0.000000   166.420678
	   95 D(2,3,4,16)     =    -70.381964     0.000001     0.957962   -69.424002
	   96 *D(3,2,1,8)     =   -174.967251    -0.000000     0.000000  -174.967251
	   97 D(3,2,1,14)     =     23.070863    -0.000024    -2.504502    20.566361
	   98 D(3,4,15,24)    =    -60.232293     0.000030     0.318585   -59.913708
	   99 D(3,4,15,25)    =     60.995991     0.000040     0.927112    61.923103
	  100 D(3,4,15,29)    =   -177.790063     0.000019     0.286836  -177.503227
	  101 D(3,4,16,26)    =    -64.143501     0.000014     0.293033   -63.850468
	  102 D(3,4,16,27)    =     56.112292     0.000017     0.492534    56.604826
	  103 D(3,4,16,30)    =    174.116709     0.000047     0.966006   175.082715
	  104 D(4,3,2,5)      =     62.470792     0.000049     3.975185    66.445978
	  105 D(5,2,1,8)      =      1.851693    -0.000050    -4.037198    -2.185505
	  106 D(5,2,1,14)     =   -160.110192    -0.000074    -6.541700  -166.651892
	  107 D(5,2,3,6)      =   -170.563576     0.000004    -0.348179  -170.911755
	  108 D(5,2,3,7)      =    -56.006818    -0.000033     0.320297   -55.686521
	  109 D(6,3,4,15)     =     36.532617     0.000089     5.262017    41.794634
	  110 D(6,3,4,16)     =    159.729975     0.000090     6.219979   165.949954
	  111 D(7,3,4,15)     =    -74.389624    -0.000061    -0.573695   -74.963319
	  112 D(7,3,4,16)     =     48.807734    -0.000060     0.384267    49.192001
	  113 D(8,1,14,21)    =     -8.008035    -0.000025    -1.743667    -9.751701
	  114 D(8,1,14,22)    =    111.705815    -0.000028    -1.479795   110.226020
	  115 D(8,1,14,23)    =   -126.978945     0.000003     0.156396  -126.822549
	  116 D(8,12,10,9)    =      0.055051     0.000004     0.310481     0.365532
	  117 D(8,12,10,17)   =    179.918382     0.000004     0.366754   180.285137
	  118 D(8,13,11,9)    =      0.001962     0.000007     0.784680     0.786642
	  119 D(8,13,11,18)   =   -179.874863    -0.000001     0.020914  -179.853949
	  120 D(9,10,12,19)   =    179.812816    -0.000003    -0.395178   179.417638
	  121 D(9,11,13,20)   =   -179.916915     0.000007     0.766689  -179.150226
	  122 D(10,9,11,13)   =      0.005551    -0.000004    -0.294062    -0.288511
	  123 D(10,9,11,18)   =    179.881459     0.000004     0.483162   180.364621
	  124 D(10,12,8,13)   =     -0.046719    -0.000001     0.184978     0.138259
	  125 D(11,9,10,12)   =     -0.034195    -0.000002    -0.258352    -0.292547
	  126 D(11,9,10,17)   =   -179.896735    -0.000002    -0.314527  -180.211262
	  127 D(11,13,8,12)   =      0.018466    -0.000004    -0.732056    -0.713590
	  128 D(12,8,1,14)    =    108.770956    -0.000012     2.048445   110.819401
	  129 D(12,8,13,20)   =    179.936774    -0.000005    -0.713162   179.223612
	  130 D(12,10,9,28)   =    179.925814     0.000000     0.064713   179.990527
	  131 D(13,8,1,14)    =    -70.173101    -0.000003     2.490445   -67.682656
	  132 D(13,8,12,19)   =   -179.803546     0.000006     0.892976  -178.910570
	  133 D(13,11,9,28)   =   -179.954435    -0.000006    -0.619695  -180.574129
	  134 D(15,4,16,26)   =     60.124532    -0.000038    -0.677118    59.447414
	  135 D(15,4,16,27)   =   -179.619675    -0.000035    -0.477617  -180.097292
	  136 D(15,4,16,30)   =    -61.615258    -0.000005    -0.004145   -61.619403
	  137 D(16,4,15,24)   =    175.360917    -0.000029    -0.545928   174.814989
	  138 D(16,4,15,25)   =    -63.410799    -0.000018     0.062599   -63.348200
	  139 D(16,4,15,29)   =     57.803147    -0.000039    -0.577678    57.225470
	  140 D(17,10,9,28)   =      0.063274     0.000000     0.008538     0.071812
	  141 D(17,10,12,19)  =     -0.323852    -0.000003    -0.338904    -0.662757
	  142 D(18,11,9,28)   =     -0.078527     0.000001     0.157529     0.079003
	  143 D(18,11,13,20)  =      0.206259    -0.000000     0.002923     0.209183
	  144 R(5,12)         =      2.954788    -0.018617     0.017752     2.972540
	  145 R(5,16)         =      3.089595    -0.033002    -0.036003     3.053592
	 ---------------------------------------------------------------------------
	Successfully symmetrized geometry.

  ==> Convergence Check <==

  Measures of convergence in internal coordinates in au.
  Criteria marked as inactive (o), active & met (*), and active & unmet ( ).
  --------------------------------------------------------------------------------------------- ~
   Step     Total Energy     Delta E     MAX Force     RMS Force      MAX Disp      RMS Disp    ~
  --------------------------------------------------------------------------------------------- ~
    Convergence Criteria             o    2.50e-03 *    1.70e-03 *    1.00e-02 *    6.70e-03 *  ~
  --------------------------------------------------------------------------------------------- ~
      1    -613.27217306   -6.13e+02 o    2.72e-02      5.40e-03      1.14e-01      2.87e-02    ~
  ---------------------------------------------------------------------------------------------

	Writing optimization data to binary file.
	Structure for next step:
	Cartesian Geometry (in Angstrom)
	    N    -0.2247453622   0.2731144233  -0.6456838189
	    C     0.9442623038   0.3276577199   0.1106740042
	    C     2.2157381201   0.5189029799  -0.7074754243
	    N     3.1837929341  -0.5878088549  -0.5178064230
	    O     0.9422012485   0.3601956817   1.3670912557
	    H     2.0038134666   0.6193761995  -1.7886508084
	    H     2.6426168070   1.5068709960  -0.3781910554
	    C    -1.4945448957   0.2047089379   0.0310048335
	    C    -4.0080325085   0.0800030705   1.2530328264
	    C    -3.0232306371  -0.8536401091   1.6030269494
	    C    -3.7301452297   1.0788551100   0.2901734930
	    C    -1.7700805277  -0.7973043165   0.9933062710
	    C    -2.4734336411   1.1461633199  -0.3134489042
	    C    -0.2125507573  -0.0573228563  -2.1051276041
	    C     4.2257163876  -0.5142883754  -1.5632760414
	    C     3.7938033832  -0.5994136768   0.8456132209
	    H    -3.2283070025  -1.6316624576   2.3527968130
	    H    -4.4853083942   1.8129334222   0.0147401686
	    H    -1.0026638077  -1.5136256107   1.2697869445
	    H    -2.2486954628   1.9296061398  -1.0522512228
	    H    -1.1897114141  -0.4723041056  -2.3706554371
	    H    -0.0214272756   0.8353746328  -2.7369830800
	    H     0.5350161671  -0.8292843249  -2.3179404211
	    H     3.7755036198  -0.5994500601  -2.5726591833
	    H     4.8149693672   0.4367279784  -1.5102904430
	    H     4.4048898758   0.3216572784   1.0248337692
	    H     3.0177134745  -0.6521983777   1.6157913727
	    H    -4.9814547968   0.0329814857   1.7292004734
	    H     4.9016746286  -1.3677379316  -1.4278525023
	    H     4.4283115779  -1.4910160086   0.9423301504
			--------------------------
			 OPTKING Finished Execution 
			--------------------------

    Structure for next step:
    Molecular point group: c1
    Full point group: C1

    Geometry (in Angstrom), charge = 0, multiplicity = 1:

    N           -0.243419292199     0.238260196984    -0.664222306453
    C            0.925588378430     0.292803493862     0.092135519584
    C            2.197064199735     0.484048754582    -0.726013912127
    N            3.165119017477    -0.622663084561    -0.536344910053
    O            0.923527323090     0.325341455733     1.348552776012
    H            1.985139545420     0.584521974554    -1.807189300473
    H            2.623942888264     1.472016774528    -0.396729541944
    C           -1.513218830693     0.169854711321     0.012466348584
    C           -4.026706453323     0.045148843433     1.234494346244
    C           -3.041904578118    -0.888494339792     1.584488470660
    C           -3.748819173484     1.044000886927     0.271635009060
    C           -1.788754463732    -0.832158547006     0.974767789833
    C           -2.492107579864     1.111309097058    -0.331987390469
    C           -0.231224687183    -0.092177083898    -2.123666097434
    C            4.207042475142    -0.549142604746    -1.581814532638
    C            3.775129468999    -0.634267906526     0.827074739166
    H           -3.246980944306    -1.666516691315     2.334258337182
    H           -4.503982340893     1.778079202008    -0.003798316371
    H           -1.021337740761    -1.548479843958     1.251248464443
    H           -2.267369400725     1.894751920045    -1.070789711969
    H           -1.208385347876    -0.507158334802    -2.389193931436
    H           -0.040101204774     0.800520408777    -2.755521575867
    H            0.516342240135    -0.864138555554    -2.336478915282
    H            3.756829705575    -0.634304289840    -2.591197678432
    H            4.796295457069     0.401873752761    -1.528828934027
    H            4.386215963997     0.286803052271     1.006295288149
    H            2.999039557289    -0.687052607629     1.597252894019
    H           -5.000128745509    -0.001872741556     1.710661995134
    H            4.883000718820    -1.402592164366    -1.446390992965
    H            4.409637666213    -1.525870241842     0.923791669053


Scratch directory: /scratch/bdw2292/Psi4-25_27_Index_0-farH_in17/

Scratch directory: /scratch/bdw2292/Psi4-25_27_Index_0-farH_in17/
gradient() will perform analytic gradient computation.

*** tstart() called on node74.bme.utexas.edu
*** at Wed Jun  8 13:02:05 2022

   => Loading Basis Set <=

    Name: 6-311G
    Role: ORBITAL
    Keyword: BASIS
    atoms 1, 4       entry N          line   109 file /home/bdw2292/miniconda3/envs/newamoebamdpoltype/share/psi4/basis/6-311g.gbs 
    atoms 2-3, 8-16  entry C          line    92 file /home/bdw2292/miniconda3/envs/newamoebamdpoltype/share/psi4/basis/6-311g.gbs 
    atoms 5          entry O          line   126 file /home/bdw2292/miniconda3/envs/newamoebamdpoltype/share/psi4/basis/6-311g.gbs 
    atoms 6-7, 17-30 entry H          line    21 file /home/bdw2292/miniconda3/envs/newamoebamdpoltype/share/psi4/basis/6-311g.gbs 

   => WB97X-D: Empirical Dispersion <=

    Chai and Head-Gordon Dispersion Correction
    Chai, J.-D.; Head-Gordon, M. (2010), J. Chem. Phys., 132: 6615-6620

        s6 =       1.000000


         ---------------------------------------------------------
                                   SCF
               by Justin Turney, Rob Parrish, Andy Simmonett
                          and Daniel G. A. Smith
                              RKS Reference
                        2 Threads,   7788 MiB Core
         ---------------------------------------------------------

  ==> Geometry <==

    Molecular point group: c1
    Full point group: C1

    Geometry (in Angstrom), charge = 0, multiplicity = 1:

       Center              X                  Y                   Z               Mass       
    ------------   -----------------  -----------------  -----------------  -----------------
         N           -0.243419292199     0.238260196984    -0.664222306453    14.003074004430
         C            0.925588378430     0.292803493862     0.092135519584    12.000000000000
         C            2.197064199735     0.484048754582    -0.726013912127    12.000000000000
         N            3.165119017477    -0.622663084561    -0.536344910053    14.003074004430
         O            0.923527323090     0.325341455733     1.348552776012    15.994914619570
         H            1.985139545420     0.584521974554    -1.807189300473     1.007825032230
         H            2.623942888264     1.472016774528    -0.396729541944     1.007825032230
         C           -1.513218830693     0.169854711321     0.012466348584    12.000000000000
         C           -4.026706453323     0.045148843433     1.234494346244    12.000000000000
         C           -3.041904578118    -0.888494339792     1.584488470660    12.000000000000
         C           -3.748819173484     1.044000886927     0.271635009060    12.000000000000
         C           -1.788754463732    -0.832158547006     0.974767789833    12.000000000000
         C           -2.492107579864     1.111309097058    -0.331987390469    12.000000000000
         C           -0.231224687183    -0.092177083898    -2.123666097434    12.000000000000
         C            4.207042475142    -0.549142604746    -1.581814532638    12.000000000000
         C            3.775129468999    -0.634267906526     0.827074739166    12.000000000000
         H           -3.246980944306    -1.666516691315     2.334258337182     1.007825032230
         H           -4.503982340893     1.778079202008    -0.003798316371     1.007825032230
         H           -1.021337740761    -1.548479843958     1.251248464443     1.007825032230
         H           -2.267369400725     1.894751920045    -1.070789711969     1.007825032230
         H           -1.208385347876    -0.507158334802    -2.389193931436     1.007825032230
         H           -0.040101204774     0.800520408777    -2.755521575867     1.007825032230
         H            0.516342240135    -0.864138555554    -2.336478915282     1.007825032230
         H            3.756829705575    -0.634304289840    -2.591197678432     1.007825032230
         H            4.796295457069     0.401873752761    -1.528828934027     1.007825032230
         H            4.386215963997     0.286803052271     1.006295288149     1.007825032230
         H            2.999039557289    -0.687052607629     1.597252894019     1.007825032230
         H           -5.000128745509    -0.001872741556     1.710661995134     1.007825032230
         H            4.883000718820    -1.402592164366    -1.446390992965     1.007825032230
         H            4.409637666213    -1.525870241842     0.923791669053     1.007825032230

  Running in c1 symmetry.

  Rotational constants: A =      0.05889  B =      0.01106  C =      0.01005 [cm^-1]
  Rotational constants: A =   1765.56598  B =    331.69131  C =    301.28609 [MHz]
  Nuclear repulsion =  877.797070123285380

  Charge       = 0
  Multiplicity = 1
  Electrons    = 104
  Nalpha       = 52
  Nbeta        = 52

  ==> Algorithm <==

  SCF Algorithm Type is DF.
  DIIS enabled.
  MOM disabled.
  Fractional occupation disabled.
  Guess Type is READ.
  Energy threshold   = 1.00e-08
  Density threshold  = 1.00e-08
  Integral threshold = 1.00e-12

  ==> Primary Basis <==

  Basis Set: 6-311G
    Blend: 6-311G
    Number of shells: 146
    Number of basis functions: 230
    Number of Cartesian functions: 230
    Spherical Harmonics?: true
    Max angular momentum: 1

  ==> DFT Potential <==

   => LibXC <=

    Version 5.1.5
    S. Lehtola, C. Steigemann, M. J. Oliveira, and M. A. Marques, SoftwareX 7, 1 (2018) (10.1016/j.softx.2017.11.002)

   => Composite Functional: WB97X-D <= 

    wB97X-D Hyb-GGA Exchange-Correlation Functional

    J.-D. Chai and M. Head-Gordon, Phys. Chem. Chem. Phys. 10, 6615 (2008) (10.1039/B810189B)

    Deriv               =              1
    GGA                 =           TRUE
    Meta                =          FALSE

    Exchange Hybrid     =           TRUE
    MP2 Hybrid          =          FALSE

   => Exchange-Correlation Functionals <=

    1.0000   wB97X-D range-separated functional

   => Exact (HF) Exchange <=

    0.7780            HF,LR [omega = 0.2000]
    0.2220               HF 

   => LibXC Density Thresholds  <==

    XC_HYB_GGA_XC_WB97X_D:  1.00E-14 

   => Molecular Quadrature <=

    Radial Scheme          =       TREUTLER
    Pruning Scheme         =           NONE
    Nuclear Scheme         =       TREUTLER

    BS radius alpha        =              1
    Pruning alpha          =              1
    Radial Points          =             75
    Spherical Points       =            302
    Total Points           =         624207
    Total Blocks           =           4505
    Max Points             =            256
    Max Functions          =            187
    Weights Tolerance      =       1.00E-15

   => Loading Basis Set <=

    Name: (6-311G AUX)
    Role: JKFIT
    Keyword: DF_BASIS_SCF
    atoms 1, 4       entry N          line   177 file /home/bdw2292/miniconda3/envs/newamoebamdpoltype/share/psi4/basis/cc-pvtz-jkfit.gbs 
    atoms 2-3, 8-16  entry C          line   125 file /home/bdw2292/miniconda3/envs/newamoebamdpoltype/share/psi4/basis/cc-pvtz-jkfit.gbs 
    atoms 5          entry O          line   229 file /home/bdw2292/miniconda3/envs/newamoebamdpoltype/share/psi4/basis/cc-pvtz-jkfit.gbs 
    atoms 6-7, 17-30 entry H          line    51 file /home/bdw2292/miniconda3/envs/newamoebamdpoltype/share/psi4/basis/cc-pvtz-jkfit.gbs 

   => Loading Basis Set <=

    Name: 6-311G
    Role: ORBITAL
    Keyword: BASIS
    atoms 1, 4       entry N          line   109 file /home/bdw2292/miniconda3/envs/newamoebamdpoltype/share/psi4/basis/6-311g.gbs 
    atoms 2-3, 8-16  entry C          line    92 file /home/bdw2292/miniconda3/envs/newamoebamdpoltype/share/psi4/basis/6-311g.gbs 
    atoms 5          entry O          line   126 file /home/bdw2292/miniconda3/envs/newamoebamdpoltype/share/psi4/basis/6-311g.gbs 
    atoms 6-7, 17-30 entry H          line    21 file /home/bdw2292/miniconda3/envs/newamoebamdpoltype/share/psi4/basis/6-311g.gbs 

  Reading orbitals from file /scratch/bdw2292/Psi4-25_27_Index_0-farH_in17/25_27_Index_0-opt-1_2-3-239.default.1113001.180.npy, no projection.

  ==> Integral Setup <==

  DFHelper Memory: AOs need 1.534 GiB; user supplied 3.530 GiB. Using in-core AOs.

  ==> MemDFJK: Density-Fitted J/K Matrices <==

    J tasked:                   Yes
    K tasked:                   Yes
    wK tasked:                  Yes
    Omega:                2.000E-01
    OpenMP threads:               2
    Memory [MiB]:              3614
    Algorithm:                 Core
    Schwarz Cutoff:           1E-12
    Mask sparsity (%):      19.8261
    Fitting Condition:        1E-10

   => Auxiliary Basis Set <=

  Basis Set: (6-311G AUX)
    Blend: CC-PVTZ-JKFIT
    Number of shells: 510
    Number of basis functions: 1586
    Number of Cartesian functions: 1904
    Spherical Harmonics?: true
    Max angular momentum: 4

  Cached 100.0% of DFT collocation blocks in 2.174 [GiB].

  Minimum eigenvalue in the overlap matrix is 2.6734220092E-04.
  Reciprocal condition number of the overlap matrix is 3.7736012296E-05.
    Using symmetric orthogonalization.

  ==> Pre-Iterations <==

  SCF Guess: Orbitals guess was supplied from a previous computation.

   -------------------------------------------------------
    Irrep   Nso     Nmo     Nalpha   Nbeta   Ndocc  Nsocc
   -------------------------------------------------------
     A        230     230      52      52      52       0
   -------------------------------------------------------
    Total     230     230      52      52      52       0
   -------------------------------------------------------

  ==> Iterations <==

                           Total Energy        Delta E     RMS |[F,P]|

   @DF-RKS iter   0:  -612.97258705500326   -6.12973e+02   3.74711e-03 
   @DF-RKS iter   1:  -613.25137883808736   -2.78792e-01   6.73018e-04 DIIS
   @DF-RKS iter   2:  -613.26811271994688   -1.67339e-02   4.84351e-04 DIIS
   @DF-RKS iter   3:  -613.27378121600907   -5.66850e-03   1.49892e-04 DIIS
   @DF-RKS iter   4:  -613.27434928099660   -5.68065e-04   9.90119e-05 DIIS
   @DF-RKS iter   5:  -613.27458491300945   -2.35632e-04   2.89017e-05 DIIS
   @DF-RKS iter   6:  -613.27460468509628   -1.97721e-05   7.96437e-06 DIIS
   @DF-RKS iter   7:  -613.27460706194574   -2.37685e-06   2.23491e-06 DIIS
   @DF-RKS iter   8:  -613.27460724863283   -1.86687e-07   9.06299e-07 DIIS
   @DF-RKS iter   9:  -613.27460727918037   -3.05475e-08   2.43158e-07 DIIS
   @DF-RKS iter  10:  -613.27460728100368   -1.82331e-09   8.20310e-08 DIIS
   @DF-RKS iter  11:  -613.27460728138408   -3.80396e-10   2.45126e-08 DIIS
   @DF-RKS iter  12:  -613.27460728142876   -4.46789e-11   1.18289e-08 DIIS
   @DF-RKS iter  13:  -613.27460728144138   -1.26192e-11   3.16692e-09 DIIS
  Energy and wave function converged.


  ==> Post-Iterations <==

   Electrons on quadrature grid:
      Ntotal   =  104.0000324372 ; deviation = 3.244e-05 

    Orbital Energies [Eh]
    ---------------------

    Doubly Occupied:                                                      

       1A    -19.214957     2A    -14.479091     3A    -14.436699  
       4A    -10.403304     5A    -10.339559     6A    -10.335152  
       7A    -10.326741     8A    -10.309072     9A    -10.299939  
      10A    -10.299247    11A    -10.297794    12A    -10.297154  
      13A    -10.296434    14A    -10.293349    15A     -1.143745  
      16A     -1.047105    17A     -1.021398    18A     -0.958726  
      19A     -0.863188    20A     -0.855910    21A     -0.831794  
      22A     -0.807466    23A     -0.800491    24A     -0.731197  
      25A     -0.708747    26A     -0.691237    27A     -0.650342  
      28A     -0.604807    29A     -0.596479    30A     -0.577396  
      31A     -0.574390    32A     -0.554732    33A     -0.550207  
      34A     -0.532123    35A     -0.531348    36A     -0.516848  
      37A     -0.513903    38A     -0.497949    39A     -0.490193  
      40A     -0.479677    41A     -0.471924    42A     -0.460113  
      43A     -0.449244    44A     -0.447407    45A     -0.444812  
      46A     -0.439143    47A     -0.433593    48A     -0.351411  
      49A     -0.341554    50A     -0.330410    51A     -0.308341  
      52A     -0.292609  

    Virtual:                                                              

      53A      0.050928    54A      0.061360    55A      0.077619  
      56A      0.109344    57A      0.126067    58A      0.137321  
      59A      0.153391    60A      0.160909    61A      0.168090  
      62A      0.169974    63A      0.176121    64A      0.179797  
      65A      0.188294    66A      0.190887    67A      0.198065  
      68A      0.205630    69A      0.207979    70A      0.221221  
      71A      0.228661    72A      0.235976    73A      0.246368  
      74A      0.257955    75A      0.284822    76A      0.304051  
      77A      0.310180    78A      0.315177    79A      0.342348  
      80A      0.347240    81A      0.361765    82A      0.366283  
      83A      0.375349    84A      0.379037    85A      0.384131  
      86A      0.413835    87A      0.430940    88A      0.446523  
      89A      0.452530    90A      0.460482    91A      0.473671  
      92A      0.477128    93A      0.486039    94A      0.486442  
      95A      0.493664    96A      0.504407    97A      0.512689  
      98A      0.521687    99A      0.534512   100A      0.542918  
     101A      0.549065   102A      0.550946   103A      0.557141  
     104A      0.572953   105A      0.587226   106A      0.600197  
     107A      0.607388   108A      0.616233   109A      0.628507  
     110A      0.635758   111A      0.639580   112A      0.644560  
     113A      0.658844   114A      0.661488   115A      0.666282  
     116A      0.673876   117A      0.678563   118A      0.685328  
     119A      0.687575   120A      0.695638   121A      0.698345  
     122A      0.708345   123A      0.710680   124A      0.727526  
     125A      0.744372   126A      0.748009   127A      0.752088  
     128A      0.754708   129A      0.764366   130A      0.768860  
     131A      0.825853   132A      0.833813   133A      0.847928  
     134A      0.861376   135A      0.869680   136A      0.879567  
     137A      0.888844   138A      0.905855   139A      0.931400  
     140A      0.940020   141A      0.958299   142A      0.977340  
     143A      0.995371   144A      1.016791   145A      1.043363  
     146A      1.081121   147A      1.100258   148A      1.110470  
     149A      1.122469   150A      1.134885   151A      1.157436  
     152A      1.215499   153A      1.249795   154A      1.305711  
     155A      1.371173   156A      1.449214   157A      1.523199  
     158A      1.771558   159A      2.302674   160A      2.309393  
     161A      2.321450   162A      2.335868   163A      2.347827  
     164A      2.355430   165A      2.360118   166A      2.365404  
     167A      2.377686   168A      2.390488   169A      2.408892  
     170A      2.423595   171A      2.431688   172A      2.450837  
     173A      2.476269   174A      2.626503   175A      2.635790  
     176A      2.669751   177A      2.690551   178A      2.704251  
     179A      2.782131   180A      2.786350   181A      2.840745  
     182A      2.847770   183A      2.880120   184A      2.906212  
     185A      2.914800   186A      2.925179   187A      2.952215  
     188A      2.965032   189A      2.994555   190A      3.001781  
     191A      3.023371   192A      3.032399   193A      3.069903  
     194A      3.084078   195A      3.102455   196A      3.131704  
     197A      3.148383   198A      3.164660   199A      3.176915  
     200A      3.213829   201A      3.235182   202A      3.261366  
     203A      3.299593   204A      3.317459   205A      3.350949  
     206A      3.381659   207A      3.505826   208A      3.922674  
     209A      3.945960   210A      4.086844   211A      4.112758  
     212A      4.137231   213A      4.256117   214A      5.005887  
     215A      5.086276   216A      5.120656   217A     23.244278  
     218A     23.436993   219A     23.473033   220A     23.494053  
     221A     23.522738   222A     23.543754   223A     23.583165  
     224A     23.677059   225A     23.717578   226A     23.757012  
     227A     23.995224   228A     35.531138   229A     35.564109  
     230A     50.062728  

    Final Occupation by Irrep:
              A 
    DOCC [    52 ]

  @DF-RKS Final Energy:  -613.27460728144138

   => Energetics <=

    Nuclear Repulsion Energy =            877.7970701232853799
    One-Electron Energy =               -2572.1127500557422536
    Two-Electron Energy =                1141.4468891875524150
    DFT Exchange-Correlation Energy =     -60.3861339486325051
    Empirical Dispersion Energy =          -0.0196825879043267
    VV10 Nonlocal Energy =                  0.0000000000000000
    Total Energy =                       -613.2746072814413765

Computation Completed


Properties will be evaluated at   0.000000,   0.000000,   0.000000 [a0]

Properties computed using the SCF density matrix

  Nuclear Dipole Moment: [e a0]
     X:    12.2470      Y:    -1.5155      Z:    -7.0235

  Electronic Dipole Moment: [e a0]
     X:   -12.4099      Y:     1.4935      Z:     5.5717

  Dipole Moment: [e a0]
     X:    -0.1629      Y:    -0.0219      Z:    -1.4518     Total:     1.4611

  Dipole Moment: [D]
     X:    -0.4141      Y:    -0.0558      Z:    -3.6902     Total:     3.7137


*** tstop() called on node74.bme.utexas.edu at Wed Jun  8 13:03:19 2022
Module time:
	user time   =     136.24 seconds =       2.27 minutes
	system time =       8.24 seconds =       0.14 minutes
	total time  =         74 seconds =       1.23 minutes
Total time:
	user time   =     339.29 seconds =       5.65 minutes
	system time =      19.53 seconds =       0.33 minutes
	total time  =        184 seconds =       3.07 minutes

*** tstart() called on node74.bme.utexas.edu
*** at Wed Jun  8 13:03:19 2022


         ------------------------------------------------------------
                                   SCF GRAD                          
                          Rob Parrish, Justin Turney,                
                       Andy Simmonett, and Alex Sokolov              
         ------------------------------------------------------------

  ==> Geometry <==

    Molecular point group: c1
    Full point group: C1

    Geometry (in Angstrom), charge = 0, multiplicity = 1:

       Center              X                  Y                   Z               Mass       
    ------------   -----------------  -----------------  -----------------  -----------------
         N           -0.243419292199     0.238260196984    -0.664222306453    14.003074004430
         C            0.925588378430     0.292803493862     0.092135519584    12.000000000000
         C            2.197064199735     0.484048754582    -0.726013912127    12.000000000000
         N            3.165119017477    -0.622663084561    -0.536344910053    14.003074004430
         O            0.923527323090     0.325341455733     1.348552776012    15.994914619570
         H            1.985139545420     0.584521974554    -1.807189300473     1.007825032230
         H            2.623942888264     1.472016774528    -0.396729541944     1.007825032230
         C           -1.513218830693     0.169854711321     0.012466348584    12.000000000000
         C           -4.026706453323     0.045148843433     1.234494346244    12.000000000000
         C           -3.041904578118    -0.888494339792     1.584488470660    12.000000000000
         C           -3.748819173484     1.044000886927     0.271635009060    12.000000000000
         C           -1.788754463732    -0.832158547006     0.974767789833    12.000000000000
         C           -2.492107579864     1.111309097058    -0.331987390469    12.000000000000
         C           -0.231224687183    -0.092177083898    -2.123666097434    12.000000000000
         C            4.207042475142    -0.549142604746    -1.581814532638    12.000000000000
         C            3.775129468999    -0.634267906526     0.827074739166    12.000000000000
         H           -3.246980944306    -1.666516691315     2.334258337182     1.007825032230
[...]
	 D(9,11,13,20)    =        -3.118022	    -178.649516
	 D(10,9,11,13)    =        -0.001472	      -0.084327
	 D(10,9,11,18)    =        -3.131260	    -179.407960
	 D(10,12,8,13)    =         0.003609	       0.206778
	 D(11,9,10,12)    =        -0.008568	      -0.490884
	 D(11,9,10,17)    =         3.135341	     179.641796
	 D(11,13,8,12)    =        -0.013609	      -0.779731
	 D(12,8,1,14)     =         2.109249	     120.851063
	 D(12,8,13,20)    =         3.117037	     178.593063
	 D(12,10,9,28)    =         3.138596	     179.828324
	 D(13,8,1,14)     =        -1.004921	     -57.577717
	 D(13,8,12,19)    =        -3.117557	    -178.622855
	 D(13,11,9,28)    =         3.134553	     179.596640
	 D(15,4,16,26)    =         1.070540	      61.337415
	 D(15,4,16,27)    =        -3.113585	    -178.395261
	 D(15,4,16,30)    =        -1.020349	     -58.461719
	 D(16,4,15,24)    =         3.035231	     173.905932
	 D(16,4,15,25)    =        -1.130646	     -64.781240
	 D(16,4,15,29)    =         0.965572	      55.323180
	 D(17,10,9,28)    =        -0.000681	      -0.038996
	 D(17,10,12,19)   =        -0.015484	      -0.887161
	 D(18,11,9,28)    =         0.004765	       0.273007
	 D(18,11,13,20)   =         0.011821	       0.677310
	 R(5,12)          =         5.509116	       2.915299
	 R(5,16)          =         5.609227	       2.968275

	Current energy   :      -613.2809752438

	Energy change for the previous step:
		Projected    :        -0.0000329757
		Actual       :        -0.0000079764

	Performing BFGS update.
	Previous computed or guess Hessian on step 1.
	Steps to be used in Hessian update: 2 1
	Taking RFO optimization step.
	Going to follow RFO solution 1.
	Using RFO vector 1.
	Norm of target step-size    0.01151
	Projected energy change by RFO approximation:        -0.0000016261

	Back-transformation to cartesian coordinates...
	Successfully converged to displaced geometry.

	Back-transformation to cartesian coordinates to adjust frozen coordinates...
	Successfully converged to displaced geometry.

	--- Internal Coordinate Step in ANG or DEG, aJ/ANG or AJ/DEG ---
	 ---------------------------------------------------------------------------
	   Coordinate                Previous        Force       Change         New 
	   ----------                --------       ------       ------       ------
	    1 R(1,2)          =      1.376267     0.001889     0.000154     1.376421
	    2 R(1,8)          =      1.437356     0.000523     0.000004     1.437360
	    3 R(1,14)         =      1.469891    -0.000031    -0.000051     1.469840
	    4 R(2,3)          =      1.519425     0.001020     0.000095     1.519519
	    5 R(2,5)          =      1.245197    -0.000293    -0.000055     1.245142
	    6 R(3,4)          =      1.466806    -0.000362    -0.000028     1.466778
	    7 R(3,6)          =      1.085144    -0.000810    -0.000106     1.085038
	    8 R(3,7)          =      1.106211    -0.000213    -0.000006     1.106205
	    9 R(4,15)         =      1.462923     0.000037     0.000029     1.462952
	   10 R(4,16)         =      1.466135     0.000373     0.000054     1.466189
	   11 R(8,12)         =      1.394128     0.000888     0.000077     1.394205
	   12 R(8,13)         =      1.395258     0.000384     0.000001     1.395259
	   13 R(9,10)         =      1.393983     0.000427     0.000044     1.394027
	   14 R(9,11)         =      1.392882     0.000174     0.000014     1.392896
	   15 R(9,28)         =      1.081291     0.000058    -0.000000     1.081291
	   16 R(10,12)        =      1.391776     0.000228     0.000006     1.391782
	   17 R(10,17)        =      1.081361    -0.000026     0.000004     1.081365
	   18 R(11,13)        =      1.392450     0.000627     0.000065     1.392514
	   19 R(11,18)        =      1.081484     0.000051     0.000006     1.081490
	   20 R(12,19)        =      1.078467     0.000049    -0.000002     1.078466
	   21 R(13,20)        =      1.082003     0.000016     0.000009     1.082013
	   22 R(14,21)        =      1.086347     0.000316    -0.000015     1.086331
	   23 R(14,22)        =      1.091777    -0.000216    -0.000082     1.091695
	   24 R(14,23)        =      1.089529     0.000668     0.000029     1.089558
	   25 R(15,24)        =      1.090911    -0.000503    -0.000120     1.090791
	   26 R(15,25)        =      1.104817    -0.000644    -0.000142     1.104675
	   27 R(15,29)        =      1.089631    -0.000185    -0.000068     1.089563
	   28 R(16,26)        =      1.104775    -0.000188    -0.000027     1.104748
	   29 R(16,27)        =      1.083971     0.000069    -0.000001     1.083970
	   30 R(16,30)        =      1.090000    -0.000127    -0.000025     1.089975
	   31 B(1,2,3)        =    117.820197     0.000009     0.017440   117.837636
	   32 B(1,2,5)        =    121.566334    -0.000008    -0.029184   121.537150
	   33 B(1,8,12)       =    121.105027    -0.000001    -0.013860   121.091167
	   34 B(1,8,13)       =    118.917663     0.000003     0.015969   118.933632
	   35 B(1,14,21)      =    108.182266     0.000001     0.001915   108.184182
	   36 B(1,14,22)      =    112.311347     0.000001     0.003582   112.314929
	   37 B(1,14,23)      =    110.726619     0.000001     0.007856   110.734475
	   38 B(2,1,8)        =    119.973035    -0.000003    -0.028150   119.944885
	   39 B(2,1,14)       =    122.833728     0.000006     0.017080   122.850808
	   40 B(2,3,4)        =    112.785501    -0.000001    -0.017906   112.767595
	   41 B(2,3,6)        =    112.119803     0.000005     0.027700   112.147503
	   42 B(2,3,7)        =    105.903667     0.000005     0.033378   105.937044
	   43 B(3,2,5)        =    120.513780    -0.000001     0.000027   120.513806
	   44 B(3,4,15)       =    111.119252     0.000003     0.013581   111.132833
	   45 B(3,4,16)       =    114.450959    -0.000002    -0.023363   114.427596
	   46 B(4,3,6)        =    107.739189    -0.000005    -0.023059   107.716130
	   47 B(4,3,7)        =    111.326791    -0.000003    -0.016634   111.310156
	   48 B(4,15,24)      =    110.355014    -0.000002    -0.007807   110.347207
	   49 B(4,15,25)      =    112.516360    -0.000002    -0.006707   112.509654
	   50 B(4,15,29)      =    109.266485    -0.000000     0.001729   109.268215
	   51 B(4,16,26)      =    111.609135    -0.000001    -0.005908   111.603227
	   52 B(4,16,27)      =    110.302586    -0.000003    -0.013062   110.289524
	   53 B(4,16,30)      =    108.807485     0.000001     0.002932   108.810417
	   54 B(6,3,7)        =    106.842893    -0.000001    -0.002069   106.840823
	   55 B(8,1,14)       =    117.013929    -0.000004     0.005007   117.018935
	   56 B(8,12,10)      =    119.693124     0.000001     0.002305   119.695429
	   57 B(8,12,19)      =    119.567583     0.000000     0.001824   119.569407
	   58 B(8,13,11)      =    120.117264     0.000001     0.002087   120.119351
	   59 B(8,13,20)      =    119.532843     0.000001     0.005606   119.538450
	   60 B(9,10,12)      =    120.499469    -0.000000     0.000118   120.499587
	   61 B(9,10,17)      =    120.045854    -0.000000     0.000651   120.046504
	   62 B(9,11,13)      =    120.040481     0.000000     0.000159   120.040639
	   63 B(9,11,18)      =    120.212996     0.000000     0.001230   120.214226
	   64 B(10,9,11)      =    119.685124     0.000001    -0.000941   119.684182
	   65 B(10,9,28)      =    120.184167    -0.000000     0.001426   120.185593
	   66 B(10,12,19)     =    120.728786    -0.000001    -0.004392   120.724394
	   67 B(11,9,28)      =    120.129937    -0.000000    -0.000378   120.129559
	   68 B(11,13,20)     =    120.346899    -0.000001    -0.007671   120.339227
	   69 B(12,8,13)      =    119.958672    -0.000002    -0.003555   119.955118
	   70 B(12,10,17)     =    119.454546     0.000000    -0.000796   119.453750
	   71 B(13,11,18)     =    119.743084    -0.000000    -0.001460   119.741623
	   72 B(15,4,16)      =    111.131155    -0.000001    -0.004994   111.126161
	   73 B(21,14,22)     =    108.337580    -0.000003    -0.021238   108.316342
	   74 B(21,14,23)     =    107.779065     0.000001     0.007255   107.786320
	   75 B(22,14,23)     =    109.364406    -0.000000     0.000148   109.364554
	   76 B(24,15,25)     =    108.476213     0.000002     0.004164   108.480377
	   77 B(24,15,29)     =    107.978373     0.000001     0.001282   107.979656
	   78 B(25,15,29)     =    108.121574     0.000001     0.007949   108.129523
	   79 B(26,16,27)     =    108.162594     0.000003     0.015122   108.177716
	   80 B(26,16,30)     =    108.580507    -0.000000     0.000098   108.580605
	   81 B(27,16,30)     =    109.338266     0.000001     0.001095   109.339361
	   82 *D(1,2,3,4)     =   -120.731223     0.000000    -0.000000  -120.731223
	   83 D(1,2,3,6)      =      1.103420    -0.000001    -0.022824     1.080596
	   84 D(1,2,3,7)      =    117.272918     0.000000     0.008854   117.281772
	   85 D(1,8,12,10)    =   -178.205803     0.000000     0.007430  -178.198373
	   86 D(1,8,12,19)    =      2.964564     0.000000     0.022063     2.986627
	   87 D(1,8,13,11)    =    177.667486    -0.000000    -0.021290   177.646196
	   88 D(1,8,13,20)    =     -2.959720    -0.000000    -0.018983    -2.978703
	   89 *D(2,1,8,12)    =    -54.420187     0.000000    -0.000000   -54.420187
	   90 D(2,1,8,13)     =    127.151033     0.000000     0.059841   127.210874
	   91 D(2,1,14,21)    =    166.194791     0.000000     0.018974   166.213765
	   92 D(2,1,14,22)    =    -74.285234    -0.000000    -0.003939   -74.289172
	   93 D(2,1,14,23)    =     48.295627    -0.000000     0.004529    48.300155
	   94 *D(2,3,4,15)    =    166.420678    -0.000000    -0.000000   166.420678
	   95 D(2,3,4,16)     =    -66.697763    -0.000000    -0.014456   -66.712218
	   96 *D(3,2,1,8)     =   -174.967251    -0.000000    -0.000000  -174.967251
	   97 D(3,2,1,14)     =     10.047247     0.000000     0.083712    10.130959
	   98 D(3,4,15,24)    =    -57.412649    -0.000000    -0.174876   -57.587525
	   99 D(3,4,15,25)    =     63.900179    -0.000000    -0.179691    63.720488
	  100 D(3,4,15,29)    =   -175.995402    -0.000000    -0.172819  -176.168221
	  101 D(3,4,16,26)    =    -65.538014    -0.000000     0.054764   -65.483250
	  102 D(3,4,16,27)    =     54.729310     0.000000     0.061137    54.790447
	  103 D(3,4,16,30)    =    174.662852    -0.000000     0.056391   174.719243
	  104 D(4,3,2,5)      =     62.842541     0.000001     0.205047    63.047589
	  105 D(5,2,1,8)      =      1.419201    -0.000001    -0.206139     1.213062
	  106 D(5,2,1,14)     =   -173.566300    -0.000001    -0.122427  -173.688727
	  107 D(5,2,3,6)      =   -175.322816     0.000000     0.182224  -175.140593
	  108 D(5,2,3,7)      =    -59.153318     0.000001     0.213901   -58.939416
	  109 D(6,3,4,15)     =     42.144597    -0.000000    -0.006564    42.138033
	  110 D(6,3,4,16)     =    169.026156    -0.000001    -0.021019   169.005137
	  111 D(7,3,4,15)     =    -74.693454     0.000001     0.018991   -74.674463
	  112 D(7,3,4,16)     =     52.188105     0.000001     0.004535    52.192641
	  113 D(8,1,14,21)    =     -8.929714     0.000001     0.101983    -8.827731
	  114 D(8,1,14,22)    =    110.590261    -0.000000     0.079070   110.669331
	  115 D(8,1,14,23)    =   -126.828879     0.000000     0.087537  -126.741341
	  116 D(8,12,10,9)    =      0.428966     0.000000     0.029817     0.458782
	  117 D(8,12,10,17)   =   -179.702934     0.000000     0.017030  -179.685904
	  118 D(8,13,11,9)    =      0.718125     0.000000    -0.000033     0.718092
	  119 D(8,13,11,18)   =   -179.955050    -0.000000    -0.007041  -179.962091
	  120 D(9,10,12,19)   =    179.244738     0.000000     0.015087   179.259825
	  121 D(9,11,13,20)   =   -178.649516     0.000000    -0.002443  -178.651959
	  122 D(10,9,11,13)   =     -0.084327    -0.000000    -0.022902    -0.107229
	  123 D(10,9,11,18)   =   -179.407960    -0.000000    -0.015842  -179.423802
	  124 D(10,12,8,13)   =      0.206778    -0.000000    -0.052715     0.154063
	  125 D(11,9,10,12)   =     -0.490884     0.000000     0.008017    -0.482867
	  126 D(11,9,10,17)   =    179.641796     0.000000     0.020881   179.662677
	  127 D(11,13,8,12)   =     -0.779731     0.000000     0.038027    -0.741705
	  128 D(12,8,1,14)    =    120.851063    -0.000000    -0.078206   120.772857
	  129 D(12,8,13,20)   =    178.593063     0.000000     0.040333   178.633396
	  130 D(12,10,9,28)   =    179.828324    -0.000000    -0.014864   179.813460
	  131 D(13,8,1,14)    =    -57.577717     0.000000    -0.018365   -57.596082
	  132 D(13,8,12,19)   =   -178.622855    -0.000000    -0.038083  -178.660938
	  133 D(13,11,9,28)   =    179.596640     0.000000    -0.000028   179.596612
	  134 D(15,4,16,26)   =     61.337415     0.000000     0.049876    61.387291
	  135 D(15,4,16,27)   =   -178.395261     0.000000     0.056249  -178.339012
	  136 D(15,4,16,30)   =    -58.461719     0.000000     0.051503   -58.410216
	  137 D(16,4,15,24)   =    173.905932     0.000000    -0.150470   173.755462
	  138 D(16,4,15,25)   =    -64.781240    -0.000000    -0.155285   -64.936525
	  139 D(16,4,15,29)   =     55.323180     0.000000    -0.148414    55.174766
	  140 D(17,10,9,28)   =     -0.038996    -0.000000    -0.002000    -0.040996
	  141 D(17,10,12,19)  =     -0.887161    -0.000000     0.002301    -0.884861
	  142 D(18,11,9,28)   =      0.273007     0.000000     0.007032     0.280039
	  143 D(18,11,13,20)  =      0.677310    -0.000000    -0.009451     0.667859
	  144 R(5,12)         =      2.915299    -0.000352    -0.000311     2.914987
	  145 R(5,16)         =      2.968275     0.000065     0.000981     2.969256
	 ---------------------------------------------------------------------------
	Successfully symmetrized geometry.

  ==> Convergence Check <==

  Measures of convergence in internal coordinates in au.
  Criteria marked as inactive (o), active & met (*), and active & unmet ( ).
  ---------------------------------------------------------------------------------------------
   Step     Total Energy     Delta E     MAX Force     RMS Force      MAX Disp      RMS Disp   
  ---------------------------------------------------------------------------------------------
    Convergence Criteria             o    2.50e-03 *    1.70e-03 *    1.00e-02 *    6.70e-03 *
  ---------------------------------------------------------------------------------------------
      3    -613.28097524   -7.98e-06 o    2.29e-04 *    3.87e-05 *    3.73e-03 *    9.56e-04 *  ~
  ---------------------------------------------------------------------------------------------


  **** Optimization is complete! (in 3 steps) ****

  ==> Optimization Summary <==

  Measures of convergence in internal coordinates in au.
  --------------------------------------------------------------------------------------------------------------- ~
   Step         Total Energy             Delta E       MAX Force       RMS Force        MAX Disp        RMS Disp  ~
  --------------------------------------------------------------------------------------------------------------- ~
      1    -613.280955851390   -613.280955851390      0.00089388      0.00019848      0.03002639      0.00804513  ~
      2    -613.280967267440     -0.000011416051      0.00096549      0.00018912      0.01013222      0.00254816  ~
      3    -613.280975243803     -0.000007976362      0.00022929      0.00003873      0.00373328      0.00095598  ~
  --------------------------------------------------------------------------------------------------------------- ~

	Writing optimization data to binary file.
	Final energy is   -613.2809752438027
	Final (previous) structure:
	Cartesian Geometry (in Angstrom)
	    N    -0.2670151313   0.1738933728  -0.6901457137
	    C     0.9176700140   0.3070335780  -0.0024646172
	    C     2.1949071924   0.4543749736  -0.8121599905
	    N     3.1699354362  -0.6052861111  -0.5329511877
	    O     0.9457835907   0.3744878145   1.2405861897
	    H     2.0037853762   0.4547245543  -1.8803402422
	    H     2.6010233755   1.4516830681  -0.5588841407
	    C    -1.5129829168   0.1402747015   0.0256937086
	    C    -3.9802793553   0.0628731324   1.3256594682
	    C    -2.9582826250  -0.8061556974   1.7044721204
	    C    -3.7630118614   0.9764419976   0.2969194444
	    C    -1.7272785142  -0.7742487001   1.0558963069
	    C    -2.5292776238   1.0205302883  -0.3471861569
	    C    -0.3252065557  -0.0460343060  -2.1423254864
	    C     4.2320007597  -0.6227236661  -1.5388621304
	    C     3.7266792210  -0.5757401169   0.8230411101
	    H    -3.1186919496  -1.5137890613   2.5062616039
	    H    -4.5467305487   1.6610804672   0.0025337854
	    H    -0.9300358037  -1.4365619976   1.3539512935
	    H    -2.3478996789   1.7428152491  -1.1321305074
	    H    -1.3337219088  -0.3588469616  -2.3976570946
	    H    -0.0924291904   0.8582069302  -2.7081343486
	    H     0.3555704839  -0.8432158562  -2.4391725664
	    H     3.8084151055  -0.7530911103  -2.5356903739
	    H     4.8354002940   0.3027475732  -1.5331274479
	    H     4.3341986177   0.3310703567   0.9937531900
	    H     2.9294863786  -0.5915531630   1.5573620185
	    H    -4.9356087953   0.0318088188   1.8312002198
	    H     4.8980464132  -1.4627776584  -1.3439568111
	    H     4.3620639818  -1.4505573541   0.9611739314
	Saving final (previous) structure.
	Cleaning optimization helper files.
			--------------------------
			 OPTKING Finished Execution 
			--------------------------

    Final optimized geometry and variables:
    Molecular point group: c1
    Full point group: C1

    Geometry (in Angstrom), charge = 0, multiplicity = 1:

    N           -0.267015132349     0.173893373506    -0.690145716392
    C            0.917670017611     0.307033579251    -0.002464617164
    C            2.194907201015     0.454374975411    -0.812159993672
    N            3.169935448700    -0.605286113499    -0.532951189750
    O            0.945783594432     0.374487815980     1.240586194607
    H            2.003785384064     0.454724556125    -1.880340249541
    H            2.601023385747     1.451683073827    -0.558884142906
    C           -1.512982922779     0.140274702095     0.025693708675
    C           -3.980279370988     0.062873132654     1.325659473367
    C           -2.958282636609    -0.806155700530     1.704472127088
    C           -3.763011876215     0.976442001404     0.296919445568
    C           -1.727278520959    -0.774248703148     1.055896311080
    C           -2.529277633705     1.020530292319    -0.347186158250
    C           -0.325206556933    -0.046034306193    -2.142325494815
    C            4.232000776374    -0.622723668504    -1.538862136458
    C            3.726679235674    -0.575740119198     0.823041113368
    H           -3.118691961894    -1.513789067296     2.506261613716
    H           -4.546730566566     1.661080473703     0.002533785410
    H           -0.930035807326    -1.436562003240     1.353951298842
    H           -2.347899688084     1.742815255910    -1.132130511862
    H           -1.333721914051    -0.358846962987    -2.397657104004
    H           -0.092429190796     0.858206933579    -2.708134359208
    H            0.355570485256    -0.843215859509    -2.439172576024
    H            3.808415120456    -0.753091113280    -2.535690383898
    H            4.835400313043     0.302747574389    -1.533127453892
    H            4.334198634765     0.331070358042     0.993753193934
    H            2.929486390142    -0.591553165371     1.557362024654
    H           -4.935608814692     0.031808818879     1.831200227040
    H            4.898046432484    -1.462777664106    -1.343956816417
    H            4.362063998975    -1.450557359772     0.961173935141

	Removing binary optimization data file.
	Cleaning optimization helper files.

    Psi4 stopped on: Wednesday, 08 June 2022 01:16PM
    Psi4 wall time for execution: 0:16:09.92

*** Psi4 exiting successfully. Buy a developer a beer!
