
    -----------------------------------------------------------------------
          Psi4: An Open-Source Ab Initio Electronic Structure Package
                               Psi4 1.5 release

                         Git: Rev {HEAD} e9f4d6d 


    D. G. A. Smith, L. A. Burns, A. C. Simmonett, R. M. Parrish,
    M. C. Schieber, R. Galvelis, P. Kraus, H. Kruse, R. Di Remigio,
    A. Alenaizan, A. M. James, S. Lehtola, J. P. Misiewicz, M. Scheurer,
    R. A. Shaw, J. B. Schriber, Y. Xie, Z. L. Glick, D. A. Sirianni,
    J. S. O'Brien, J. M. Waldrop, A. Kumar, E. G. Hohenstein,
    B. P. Pritchard, B. R. Brooks, H. F. Schaefer III, A. Yu. Sokolov,
    K. Patkowski, A. E. DePrince III, U. Bozkaya, R. A. King,
    F. A. Evangelista, J. M. Turney, T. D. Crawford, C. D. Sherrill,
    J. Chem. Phys. 152(18) 184108 (2020). https://doi.org/10.1063/5.0006002

                            Additional Code Authors
    E. T. Seidl, C. L. Janssen, E. F. Valeev, M. L. Leininger,
    J. F. Gonthier, R. M. Richard, H. R. McAlexander, M. Saitow, X. Wang,
    P. Verma, M. H. Lechner, and A. Jiang

             Previous Authors, Complete List of Code Contributors,
                       and Citations for Specific Modules
    https://github.com/psi4/psi4/blob/master/codemeta.json
    https://github.com/psi4/psi4/graphs/contributors
    http://psicode.org/psi4manual/master/introduction.html#citing-psifour

    -----------------------------------------------------------------------


    Psi4 started on: Wednesday, 08 June 2022 04:47PM

    Process ID: 1156044
    Host:       node74.bme.utexas.edu
    PSIDATADIR: /home/bdw2292/miniconda3/envs/newamoebamdpoltype/share/psi4
    Memory:     500.0 MiB
    Threads:    1
    
  ==> Input File <==

--------------------------------------------------------------------------
molecule { 
0 1
 N   -0.091046    0.213355   -0.587349
 C    0.798226   -0.831648   -0.430489
 C    2.194782   -0.691272   -1.020156
 N    3.139304   -0.081762   -0.079715
 O    0.506461   -1.848694    0.219144
 H    2.530068   -1.709011   -1.205933
 H    2.179504   -0.162862   -1.989535
 C   -1.377331    0.155031    0.053967
 C   -3.884076    0.140369    1.279430
 C   -3.485368   -0.930457    0.481705
 C   -3.022855    1.219260    1.467121
 C   -2.238073   -0.924829   -0.136717
 C   -1.769233    1.222728    0.861836
 C    0.114113    1.286357   -1.571680
 C    4.521156   -0.230591   -0.519281
 C    2.840370    1.261233    0.395997
 H   -4.146132   -1.774555    0.339766
 H   -3.318744    2.050067    2.092885
 H   -1.920826   -1.760581   -0.739958
 H   -1.085841    2.046601    1.020911
 H   -0.725030    1.972737   -1.506590
 H    1.026717    1.845368   -1.383632
 H    0.146607    0.889366   -2.588571
 H    4.733049   -1.278438   -0.731320
 H    4.747450    0.360142   -1.425872
 H    2.968092    2.036494   -0.381718
 H    1.823574    1.309951    0.782443
 H   -4.854788    0.130487    1.755688
 H    5.193330    0.094804    0.274758
 H    3.516376    1.503142    1.216639
}
memory 8.166666666666666GB
set_num_threads(2)
psi4_io.set_default_path("/scratch/bdw2292/Psi4-25_27_Index_0-farH_in17")
set freeze_core True
E, wfn = energy('wb97x-d/6-311+G*',return_wfn=True)
oeprop(wfn,"WIBERG_LOWDIN_INDICES")
clean()
--------------------------------------------------------------------------

  Memory set to   7.606 GiB by Python driver.
  Threads set to 2 by Python driver.

Scratch directory: /scratch/bdw2292/Psi4-25_27_Index_0-farH_in17/

Scratch directory: /scratch/bdw2292/Psi4-25_27_Index_0-farH_in17/

*** tstart() called on node74.bme.utexas.edu
*** at Wed Jun  8 16:47:27 2022

   => Loading Basis Set <=

    Name: 6-311+G*
    Role: ORBITAL
    Keyword: BASIS
    atoms 1, 4       entry N          line   151 file /home/bdw2292/miniconda3/envs/newamoebamdpoltype/share/psi4/basis/6-311pgs.gbs 
    atoms 2-3, 8-16  entry C          line   130 file /home/bdw2292/miniconda3/envs/newamoebamdpoltype/share/psi4/basis/6-311pgs.gbs 
    atoms 5          entry O          line   172 file /home/bdw2292/miniconda3/envs/newamoebamdpoltype/share/psi4/basis/6-311pgs.gbs 
    atoms 6-7, 17-30 entry H          line    47 file /home/bdw2292/miniconda3/envs/newamoebamdpoltype/share/psi4/basis/6-311pgs.gbs 

   => WB97X-D: Empirical Dispersion <=

    Chai and Head-Gordon Dispersion Correction
    Chai, J.-D.; Head-Gordon, M. (2010), J. Chem. Phys., 132: 6615-6620

        s6 =       1.000000


         ---------------------------------------------------------
                                   SCF
               by Justin Turney, Rob Parrish, Andy Simmonett
                          and Daniel G. A. Smith
                              RKS Reference
                        2 Threads,   7788 MiB Core
         ---------------------------------------------------------

  ==> Geometry <==

    Molecular point group: c1
    Full point group: C1

    Geometry (in Angstrom), charge = 0, multiplicity = 1:

       Center              X                  Y                   Z               Mass       
    ------------   -----------------  -----------------  -----------------  -----------------
         N           -0.091045927791     0.213355021498    -0.587349113532    14.003074004430
         C            0.798226072209    -0.831647978502    -0.430489113532    12.000000000000
         C            2.194782072209    -0.691271978502    -1.020156113532    12.000000000000
         N            3.139304072209    -0.081761978502    -0.079715113532    14.003074004430
         O            0.506461072209    -1.848693978502     0.219143886468    15.994914619570
         H            2.530068072209    -1.709010978502    -1.205933113532     1.007825032230
         H            2.179504072209    -0.162861978502    -1.989535113532     1.007825032230
         C           -1.377330927791     0.155031021498     0.053966886468    12.000000000000
         C           -3.884075927791     0.140369021498     1.279429886468    12.000000000000
         C           -3.485367927791    -0.930456978502     0.481704886468    12.000000000000
         C           -3.022854927791     1.219260021498     1.467120886468    12.000000000000
         C           -2.238072927791    -0.924828978502    -0.136717113532    12.000000000000
         C           -1.769232927791     1.222728021498     0.861835886468    12.000000000000
         C            0.114113072209     1.286357021498    -1.571680113532    12.000000000000
         C            4.521156072209    -0.230590978502    -0.519281113532    12.000000000000
         C            2.840370072209     1.261233021498     0.395996886468    12.000000000000
         H           -4.146131927791    -1.774554978502     0.339765886468     1.007825032230
         H           -3.318743927791     2.050067021498     2.092884886468     1.007825032230
         H           -1.920825927791    -1.760580978502    -0.739958113532     1.007825032230
         H           -1.085840927791     2.046601021498     1.020910886468     1.007825032230
         H           -0.725029927791     1.972737021498    -1.506590113532     1.007825032230
         H            1.026717072209     1.845368021498    -1.383632113532     1.007825032230
         H            0.146607072209     0.889366021498    -2.588571113532     1.007825032230
         H            4.733049072209    -1.278437978502    -0.731320113532     1.007825032230
         H            4.747450072209     0.360142021498    -1.425872113532     1.007825032230
         H            2.968092072209     2.036494021498    -0.381718113532     1.007825032230
         H            1.823574072209     1.309951021498     0.782442886468     1.007825032230
         H           -4.854787927791     0.130487021498     1.755687886468     1.007825032230
         H            5.193330072209     0.094804021498     0.274757886468     1.007825032230
         H            3.516376072209     1.503142021498     1.216638886468     1.007825032230

  Running in c1 symmetry.

  Rotational constants: A =      0.05605  B =      0.01192  C =      0.01107 [cm^-1]
  Rotational constants: A =   1680.32666  B =    357.45551  C =    331.76778 [MHz]
  Nuclear repulsion =  893.862786773661583

  Charge       = 0
  Multiplicity = 1
  Electrons    = 104
  Nalpha       = 52
  Nbeta        = 52

  ==> Algorithm <==

  SCF Algorithm Type is DF.
  DIIS enabled.
  MOM disabled.
  Fractional occupation disabled.
  Guess Type is SAD.
  Energy threshold   = 1.00e-06
  Density threshold  = 1.00e-06
  Integral threshold = 1.00e-12

  ==> Primary Basis <==

  Basis Set: 6-311+G*
    Blend: 6-311+G*
    Number of shells: 188
    Number of basis functions: 356
    Number of Cartesian functions: 370
    Spherical Harmonics?: true
    Max angular momentum: 2

  ==> DFT Potential <==

   => LibXC <=

    Version 5.1.5
    S. Lehtola, C. Steigemann, M. J. Oliveira, and M. A. Marques, SoftwareX 7, 1 (2018) (10.1016/j.softx.2017.11.002)

   => Composite Functional: WB97X-D <= 

    wB97X-D Hyb-GGA Exchange-Correlation Functional

    J.-D. Chai and M. Head-Gordon, Phys. Chem. Chem. Phys. 10, 6615 (2008) (10.1039/B810189B)

    Deriv               =              1
    GGA                 =           TRUE
    Meta                =          FALSE

    Exchange Hybrid     =           TRUE
    MP2 Hybrid          =          FALSE

   => Exchange-Correlation Functionals <=

    1.0000   wB97X-D range-separated functional

   => Exact (HF) Exchange <=

    0.7780            HF,LR [omega = 0.2000]
    0.2220               HF 

   => LibXC Density Thresholds  <==

    XC_HYB_GGA_XC_WB97X_D:  1.00E-14 

   => Molecular Quadrature <=

    Radial Scheme          =       TREUTLER
    Pruning Scheme         =           NONE
    Nuclear Scheme         =       TREUTLER

    BS radius alpha        =              1
    Pruning alpha          =              1
    Radial Points          =             75
    Spherical Points       =            302
    Total Points           =         624916
    Total Blocks           =           4515
    Max Points             =            256
    Max Functions          =            303
    Weights Tolerance      =       1.00E-15

   => Loading Basis Set <=

    Name: (6-311+G* AUX)
    Role: JKFIT
    Keyword: DF_BASIS_SCF
    atoms 1, 4       entry N          line   262 file /home/bdw2292/miniconda3/envs/newamoebamdpoltype/share/psi4/basis/heavy-aug-cc-pvtz-jkfit.gbs 
    atoms 2-3, 8-16  entry C          line   200 file /home/bdw2292/miniconda3/envs/newamoebamdpoltype/share/psi4/basis/heavy-aug-cc-pvtz-jkfit.gbs 
    atoms 5          entry O          line   324 file /home/bdw2292/miniconda3/envs/newamoebamdpoltype/share/psi4/basis/heavy-aug-cc-pvtz-jkfit.gbs 
    atoms 6-7, 17-30 entry H          line   116 file /home/bdw2292/miniconda3/envs/newamoebamdpoltype/share/psi4/basis/heavy-aug-cc-pvtz-jkfit.gbs 

  ==> Integral Setup <==

  DFHelper Memory: AOs need 4.799 GiB; user supplied 4.799 GiB. Using in-core AOs.

  ==> MemDFJK: Density-Fitted J/K Matrices <==

    J tasked:                   Yes
    K tasked:                   Yes
    wK tasked:                  Yes
    Omega:                2.000E-01
    OpenMP threads:               2
    Memory [MiB]:              4913
    Algorithm:                 Core
    Schwarz Cutoff:           1E-12
    Mask sparsity (%):      13.5068
    Fitting Condition:        1E-10

   => Auxiliary Basis Set <=

  Basis Set: (6-311+G* AUX)
    Blend: HEAVY-AUG-CC-PVTZ-JKFIT
    Number of shells: 580
    Number of basis functions: 1936
    Number of Cartesian functions: 2394
    Spherical Harmonics?: true
    Max angular momentum: 4

  Cached 20.0% of DFT collocation blocks in 0.776 [GiB].

  Minimum eigenvalue in the overlap matrix is 1.3053799966E-06.
  Reciprocal condition number of the overlap matrix is 8.6681917723E-08.
    Using symmetric orthogonalization.

  ==> Pre-Iterations <==

  SCF Guess: Superposition of Atomic Densities via on-the-fly atomic UHF (no occupation information).

   -------------------------
    Irrep   Nso     Nmo    
   -------------------------
     A        356     356 
   -------------------------
    Total     356     356
   -------------------------

  ==> Iterations <==

                           Total Energy        Delta E     RMS |[F,P]|

   @DF-RKS iter SAD:  -612.73316965882975   -6.12733e+02   0.00000e+00 
   @DF-RKS iter   1:  -612.77579198834826   -4.26223e-02   3.27620e-03 DIIS
   @DF-RKS iter   2:  -612.99319660756930   -2.17405e-01   2.92797e-03 DIIS
   @DF-RKS iter   3:  -613.43398354856436   -4.40787e-01   6.55624e-04 DIIS
   @DF-RKS iter   4:  -613.45251839812136   -1.85348e-02   1.95311e-04 DIIS
   @DF-RKS iter   5:  -613.45428143760489   -1.76304e-03   7.42364e-05 DIIS
   @DF-RKS iter   6:  -613.45455911920897   -2.77682e-04   1.74970e-05 DIIS
   @DF-RKS iter   7:  -613.45457631834654   -1.71991e-05   3.26454e-06 DIIS
   @DF-RKS iter   8:  -613.45457721056766   -8.92221e-07   1.50967e-06 DIIS
   @DF-RKS iter   9:  -613.45457740768995   -1.97122e-07   4.44481e-07 DIIS
  Energy and wave function converged.


  ==> Post-Iterations <==

   Electrons on quadrature grid:
      Ntotal   =  103.9999420290 ; deviation = -5.797e-05 

    Orbital Energies [Eh]
    ---------------------

    Doubly Occupied:                                                      

       1A    -19.209948     2A    -14.475460     3A    -14.432710  
       4A    -10.391535     5A    -10.333349     6A    -10.327537  
       7A    -10.319783     8A    -10.304796     9A    -10.303156  
      10A    -10.295126    11A    -10.294242    12A    -10.292024  
      13A    -10.291219    14A    -10.290364    15A     -1.134586  
      16A     -1.047351    17A     -1.027582    18A     -0.959630  
      19A     -0.862531    20A     -0.855075    21A     -0.835205  
      22A     -0.812809    23A     -0.807917    24A     -0.732749  
      25A     -0.711233    26A     -0.695180    27A     -0.652446  
      28A     -0.607958    29A     -0.596334    30A     -0.586746  
      31A     -0.578217    32A     -0.560602    33A     -0.553774  
      34A     -0.536398    35A     -0.530251    36A     -0.528158  
      37A     -0.514582    38A     -0.500145    39A     -0.489983  
      40A     -0.483865    41A     -0.472787    42A     -0.470020  
      43A     -0.460974    44A     -0.456698    45A     -0.450322  
      46A     -0.440167    47A     -0.435779    48A     -0.356892  
      49A     -0.344240    50A     -0.331346    51A     -0.310891  
      52A     -0.294597  

    Virtual:                                                              

      53A      0.043600    54A      0.051310    55A      0.054568  
      56A      0.066180    57A      0.069860    58A      0.073407  
      59A      0.075575    60A      0.085324    61A      0.087242  
      62A      0.094791    63A      0.099484    64A      0.105859  
      65A      0.109591    66A      0.116282    67A      0.120347  
      68A      0.124093    69A      0.131242    70A      0.134059  
      71A      0.138220    72A      0.147441    73A      0.151362  
      74A      0.154199    75A      0.157719    76A      0.168443  
      77A      0.174134    78A      0.180023    79A      0.184601  
      80A      0.186135    81A      0.189332    82A      0.191446  
      83A      0.195753    84A      0.201525    85A      0.210936  
      86A      0.215286    87A      0.217515    88A      0.220016  
      89A      0.224812    90A      0.228079    91A      0.238566  
      92A      0.239512    93A      0.250215    94A      0.255183  
      95A      0.260116    96A      0.263042    97A      0.264957  
      98A      0.268697    99A      0.269826   100A      0.273498  
     101A      0.276090   102A      0.281556   103A      0.284507  
     104A      0.288176   105A      0.290979   106A      0.296753  
     107A      0.298349   108A      0.302741   109A      0.308676  
     110A      0.317132   111A      0.317783   112A      0.318642  
     113A      0.322578   114A      0.334084   115A      0.339643  
     116A      0.341741   117A      0.344263   118A      0.349383  
     119A      0.357084   120A      0.358914   121A      0.363138  
     122A      0.368548   123A      0.374005   124A      0.379923  
     125A      0.385932   126A      0.389045   127A      0.404374  
     128A      0.409140   129A      0.417877   130A      0.418276  
     131A      0.426370   132A      0.432571   133A      0.440742  
     134A      0.447569   135A      0.459079   136A      0.466060  
     137A      0.468902   138A      0.484556   139A      0.506723  
     140A      0.511199   141A      0.542014   142A      0.544749  
     143A      0.558949   144A      0.571836   145A      0.579831  
     146A      0.593819   147A      0.600309   148A      0.604334  
     149A      0.611486   150A      0.624943   151A      0.626759  
     152A      0.629796   153A      0.631350   154A      0.640875  
     155A      0.652111   156A      0.658099   157A      0.670601  
     158A      0.679777   159A      0.695545   160A      0.704246  
     161A      0.713057   162A      0.721107   163A      0.730593  
     164A      0.735533   165A      0.748671   166A      0.751850  
     167A      0.757844   168A      0.768956   169A      0.773595  
     170A      0.776645   171A      0.787078   172A      0.790087  
     173A      0.792767   174A      0.796307   175A      0.809983  
     176A      0.813775   177A      0.827706   178A      0.830975  
     179A      0.833881   180A      0.834793   181A      0.849913  
     182A      0.857845   183A      0.866492   184A      0.890568  
     185A      0.896819   186A      0.919096   187A      0.924588  
     188A      0.927710   189A      0.941324   190A      0.942440  
     191A      0.955395   192A      0.962478   193A      0.983222  
     194A      0.992094   195A      1.000563   196A      1.028762  
     197A      1.048445   198A      1.056111   199A      1.075751  
     200A      1.094109   201A      1.111649   202A      1.123117  
     203A      1.140075   204A      1.151301   205A      1.165279  
     206A      1.182316   207A      1.228374   208A      1.244972  
     209A      1.263086   210A      1.280031   211A      1.282167  
     212A      1.311216   213A      1.314642   214A      1.321731  
     215A      1.339369   216A      1.352249   217A      1.382093  
     218A      1.407584   219A      1.414248   220A      1.426867  
     221A      1.446263   222A      1.492027   223A      1.512460  
     224A      1.568675   225A      1.589112   226A      1.611755  
     227A      1.612918   228A      1.623082   229A      1.635940  
     230A      1.654080   231A      1.659560   232A      1.668304  
     233A      1.689267   234A      1.700229   235A      1.709940  
     236A      1.733732   237A      1.752626   238A      1.758526  
     239A      1.767655   240A      1.780933   241A      1.795704  
     242A      1.803655   243A      1.844355   244A      1.851786  
     245A      1.858325   246A      1.871886   247A      1.877754  
     248A      1.889938   249A      1.910688   250A      1.916663  
     251A      1.925824   252A      1.950631   253A      1.978245  
     254A      1.994644   255A      2.022737   256A      2.043102  
     257A      2.055931   258A      2.086961   259A      2.121515  
     260A      2.136977   261A      2.155806   262A      2.215797  
     263A      2.264973   264A      2.324268   265A      2.361703  
     266A      2.381007   267A      2.397262   268A      2.409440  
     269A      2.414206   270A      2.452723   271A      2.491746  
     272A      2.495307   273A      2.504248   274A      2.516755  
     275A      2.549102   276A      2.582817   277A      2.602422  
     278A      2.607296   279A      2.618102   280A      2.636633  
     281A      2.656794   282A      2.675552   283A      2.694616  
     284A      2.718389   285A      2.732113   286A      2.756931  
     287A      2.761742   288A      2.779112   289A      2.792544  
     290A      2.835956   291A      2.852157   292A      2.859749  
     293A      2.865484   294A      2.886199   295A      2.948823  
     296A      2.970297   297A      2.999689   298A      3.013203  
     299A      3.025468   300A      3.041133   301A      3.066490  
     302A      3.087276   303A      3.182866   304A      3.211715  
     305A      3.252444   306A      3.273021   307A      3.293448  
     308A      3.311002   309A      3.333657   310A      3.362120  
     311A      3.392662   312A      3.403895   313A      3.412199  
     314A      3.421478   315A      3.426624   316A      3.452662  
     317A      3.469375   318A      3.485788   319A      3.490655  
     320A      3.520194   321A      3.550039   322A      3.586703  
     323A      3.611684   324A      3.639712   325A      3.689385  
     326A      3.744014   327A      3.762817   328A      3.885650  
     329A      3.965052   330A      4.123320   331A      4.132372  
     332A      4.150156   333A      4.164385   334A      4.246167  
     335A      4.799941   336A      4.835102   337A      4.878366  
     338A      4.897726   339A      5.074185   340A      5.239398  
     341A      5.372136   342A      5.882546   343A     23.498711  
     344A     23.659815   345A     23.717382   346A     23.754905  
     347A     23.829739   348A     23.971362   349A     23.980633  
     350A     24.012730   351A     24.169205   352A     24.180399  
     353A     24.283592   354A     35.629909   355A     35.689996  
     356A     50.166513  

    Final Occupation by Irrep:
              A 
    DOCC [    52 ]

  @DF-RKS Final Energy:  -613.45457740768995

   => Energetics <=

    Nuclear Repulsion Energy =            893.8627867736615826
    One-Electron Energy =               -2604.3889266039677750
    Two-Electron Energy =                1157.6228873759621365
    DFT Exchange-Correlation Energy =     -60.5300222532015795
    Empirical Dispersion Energy =          -0.0213027001443487
    VV10 Nonlocal Energy =                  0.0000000000000000
    Total Energy =                       -613.4545774076899534

Computation Completed


Properties will be evaluated at   0.000000,   0.000000,   0.000000 [a0]

Properties computed using the SCF density matrix

  Nuclear Dipole Moment: [e a0]
     X:    12.0058      Y:     7.0721      Z:    -4.1875

  Electronic Dipole Moment: [e a0]
     X:   -11.9396      Y:    -5.7076      Z:     3.2973

  Dipole Moment: [e a0]
     X:     0.0661      Y:     1.3645      Z:    -0.8903     Total:     1.6306

  Dipole Moment: [D]
     X:     0.1681      Y:     3.4682      Z:    -2.2629     Total:     4.1445


*** tstop() called on node74.bme.utexas.edu at Wed Jun  8 16:49:55 2022
Module time:
	user time   =     279.85 seconds =       4.66 minutes
	system time =      10.24 seconds =       0.17 minutes
	total time  =        148 seconds =       2.47 minutes
Total time:
	user time   =     279.85 seconds =       4.66 minutes
	system time =      10.24 seconds =       0.17 minutes
	total time  =        148 seconds =       2.47 minutes


Properties will be evaluated at   0.000000,   0.000000,   0.000000 [a0]
OEProp: No title given, name of density matrix used for the following properties is 'SCF density'


  Wiberg Bond Indices using Orthogonal Lowdin Orbitals:

  Irrep: 1 Size: 30 x 30

                 1                   2                   3                   4                   5

    1     0.00000000000000     1.33512460952811     0.10734236995236     0.02143594795777     0.24599265401427
    2     1.33512460952811     0.00000000000000     1.01651607081186     0.09975981940847     2.18211217070554
    3     0.10734236995236     1.01651607081186     0.00000000000000     1.18669596377892     0.15617613720138
    4     0.02143594795777     0.09975981940847     1.18669596377892     0.00000000000000     0.03451597154243
    5     0.24599265401427     2.18211217070554     0.15617613720138     0.03451597154243     0.00000000000000
    6     0.00560662459728     0.04372156401896     0.83105763043178     0.04651883373577     0.01773240563804
    7     0.01255799841934     0.04535704684751     0.81243695928592     0.04767043521214     0.00805957727635
    8     1.09475030996920     0.10375700800371     0.01850307155654     0.00224017977863     0.05772601858530
    9     0.01013304221668     0.00529498207144     0.00062829548857     0.00012364888495     0.00323945166624
   10     0.01555869461310     0.00479537165360     0.00077747925609     0.00011947363231     0.00833099001796
   11     0.01598377082823     0.00368779100924     0.00065333224242     0.00012429588778     0.00288032025374
   12     0.11392802593946     0.04174273130677     0.00534511336429     0.00078613665925     0.05516217761601
   13     0.12272486360091     0.02773316416529     0.00334322917914     0.00092350841970     0.01205749099361
   14     1.14533387310613     0.10586049442962     0.05268474109613     0.01290554946588     0.02788388811893
   15     0.00341215766976     0.02078047120407     0.12760173523914     1.24294539240067     0.00544776493745
   16     0.03124775271478     0.03562564623118     0.10611277308607     1.24039916037078     0.00640949753166
   17     0.00090186659663     0.00024032422954     0.00003100988132     0.00000825431316     0.00023366670945
   18     0.00085588672430     0.00037772507390     0.00006727028743     0.00001348350692     0.00008094426347
   19     0.01490642215563     0.00881037347268     0.00066886500097     0.00016560208405     0.01103222439726
   20     0.01802320103824     0.00244916633314     0.00020950882740     0.00006686758669     0.00035308808839
   21     0.04461731098778     0.00852543872604     0.00237215670205     0.00030449341173     0.00140246721722
   22     0.04844627665622     0.01253021999579     0.00990830772470     0.00265972516536     0.00270015678499
   23     0.04703608245493     0.01709972741342     0.00919387125937     0.00072800100843     0.00324594999568
   24     0.00018277404538     0.00169108931620     0.01837657543968     0.04984681269003     0.00041173819795
   25     0.00017511373488     0.00189915349768     0.01750708786894     0.05655958394861     0.00054655987561
   26     0.00168387633205     0.00385182218458     0.01525296642322     0.05464185651580     0.00020176431145
   27     0.01539804243376     0.01025912968133     0.01238743919401     0.04697439677735     0.00100657083837
   28     0.00023221277838     0.00005543161639     0.00002234932532     0.00000493252311     0.00006173383174
   29     0.00038568186475     0.00129260903785     0.01191183542070     0.05119903032644     0.00035198737041
   30     0.00046757190285     0.00134238752315     0.01245655950231     0.05251557500029     0.00026365021930

                 6                   7                   8                   9                  10

    1     0.00560662459728     0.01255799841934     1.09475030996920     0.01013304221668     0.01555869461310
    2     0.04372156401896     0.04535704684751     0.10375700800371     0.00529498207144     0.00479537165360
    3     0.83105763043178     0.81243695928592     0.01850307155654     0.00062829548857     0.00077747925609
    4     0.04651883373577     0.04767043521214     0.00224017977863     0.00012364888495     0.00011947363231
    5     0.01773240563804     0.00805957727635     0.05772601858530     0.00323945166624     0.00833099001796
    6     0.00000000000000     0.00748047204860     0.00101464097659     0.00010637234372     0.00006418709163
    7     0.00748047204860     0.00000000000000     0.00088245926182     0.00002975566069     0.00005444122817
    8     0.00101464097659     0.00088245926182     0.00000000000000     0.13818766481448     0.13737495893374
    9     0.00010637234372     0.00002975566069     0.13818766481448     0.00000000000000     1.51803106471392
   10     0.00006418709163     0.00005444122817     0.13737495893374     1.51803106471392     0.00000000000000
   11     0.00003709878368     0.00009306269478     0.13548212012637     1.52069026969562     0.13748538737254
   12     0.00033534325330     0.00020624661878     1.41108400327334     0.13782967235560     1.51750341673754
   13     0.00028525881041     0.00022998137887     1.41975638897517     0.13846406830530     0.14433287257931
   14     0.00218092862275     0.01892342108884     0.10571668005869     0.00462509225600     0.00332859116867
   15     0.01610733324043     0.01583619508362     0.00072231250670     0.00003111646766     0.00003890218420
   16     0.01051441128055     0.01482906166544     0.00601185020414     0.00027509942162     0.00031117337923
   17     0.00000815695917     0.00000259079487     0.01083711614987     0.05897407708987     0.83369233405009
   18     0.00000521471001     0.00000354776965     0.01073849127621     0.05881808590899     0.01134617575652
   19     0.00000846136211     0.00003251274151     0.05476767313424     0.01046837900203     0.05519087051465
   20     0.00001974955959     0.00002500237105     0.05633431184491     0.01067302099624     0.00238595385822
   21     0.00014083699940     0.00063288420920     0.02131976080890     0.00060181751371     0.00064346180575
   22     0.00025195849594     0.00237229963378     0.00751134219478     0.00007780104306     0.00023173864111
   23     0.00023393748099     0.00187327837868     0.00801455586815     0.00032169729165     0.00009742733816
   24     0.00242020023231     0.00110847841238     0.00006348536576     0.00000414635890     0.00000276389257
   25     0.00121755983404     0.00088391224016     0.00008734929468     0.00000392548650     0.00000729749764
   26     0.00010311286418     0.00022209941912     0.00016218849930     0.00000607907990     0.00000934871965
   27     0.00053716033653     0.00111690685564     0.00266291052225     0.00005767181038     0.00007847939578
   28     0.00000093198448     0.00000129235919     0.00296279203823     0.83579914702709     0.05899883656528
   29     0.00093819704964     0.00013198212394     0.00006883175328     0.00000147421924     0.00000182518916
   30     0.00013604215674     0.00007525127755     0.00011676420218     0.00000504835490     0.00000319042262

                11                  12                  13                  14                  15

    1     0.01598377082823     0.11392802593946     0.12272486360091     1.14533387310613     0.00341215766976
    2     0.00368779100924     0.04174273130677     0.02773316416529     0.10586049442962     0.02078047120407
    3     0.00065333224242     0.00534511336429     0.00334322917914     0.05268474109613     0.12760173523914
    4     0.00012429588778     0.00078613665925     0.00092350841970     0.01290554946588     1.24294539240067
    5     0.00288032025374     0.05516217761601     0.01205749099361     0.02788388811893     0.00544776493745
    6     0.00003709878368     0.00033534325330     0.00028525881041     0.00218092862275     0.01610733324043
    7     0.00009306269478     0.00020624661878     0.00022998137887     0.01892342108884     0.01583619508362
    8     0.13548212012637     1.41108400327334     1.41975638897517     0.10571668005869     0.00072231250670
    9     1.52069026969562     0.13782967235560     0.13846406830530     0.00462509225600     0.00003111646766
   10     0.13748538737254     1.51750341673754     0.14433287257931     0.00332859116867     0.00003890218420
   11     0.00000000000000     0.14376587181062     1.51908138679180     0.00604133696970     0.00004813120146
   12     0.14376587181062     0.00000000000000     0.12849013092774     0.02516754413487     0.00020261785946
   13     1.51908138679180     0.12849013092774     0.00000000000000     0.04691668996900     0.00032783988510
   14     0.00604133696970     0.02516754413487     0.04691668996900     0.00000000000000     0.00285121358811
   15     0.00004813120146     0.00020261785946     0.00032783988510     0.00285121358811     0.00000000000000
   16     0.00038376381423     0.00095955344434     0.00529913429123     0.03810157206390     0.12868113106436
   17     0.01135019575150     0.06013779911418     0.00247136310725     0.00030405845100     0.00000287357835
   18     0.83410542130654     0.00245370183634     0.06053212006318     0.00020231034464     0.00000439001095
   19     0.00230313416405     0.80608321630561     0.00914199656139     0.00205083551746     0.00004808889244
   20     0.05525222332323     0.00937398991479     0.81086378096258     0.00984376539363     0.00002873451397
   21     0.00151453913855     0.00359216976633     0.01343971555611     0.87362293229727     0.00006020977916
   22     0.00008715385612     0.00093102337383     0.00178845875702     0.87320271890996     0.00070093765584
   23     0.00029887104175     0.00138150324761     0.00151930342950     0.88343560851694     0.00009927305275
   24     0.00000411982777     0.00001252360957     0.00002208617488     0.00012378195938     0.89434916431496
   25     0.00000610011944     0.00004458867062     0.00002515099432     0.00050313809649     0.88411506050941
   26     0.00001278063049     0.00004863124332     0.00009536015013     0.01034243377679     0.01821582548157
   27     0.00010873122082     0.00028361967614     0.00256087549427     0.00870531026984     0.01139873473177
   28     0.05910129972950     0.01118752619116     0.01133992229083     0.00006698611803     0.00000181048343
   29     0.00000609253949     0.00001020901069     0.00003838451477     0.00014217495421     0.89455121006633
   30     0.00000682614591     0.00003264118662     0.00006843180721     0.00163556112323     0.01591994776508

                16                  17                  18                  19                  20

    1     0.03124775271478     0.00090186659663     0.00085588672430     0.01490642215563     0.01802320103824
    2     0.03562564623118     0.00024032422954     0.00037772507390     0.00881037347268     0.00244916633314
    3     0.10611277308607     0.00003100988132     0.00006727028743     0.00066886500097     0.00020950882740
    4     1.24039916037078     0.00000825431316     0.00001348350692     0.00016560208405     0.00006686758669
    5     0.00640949753166     0.00023366670945     0.00008094426347     0.01103222439726     0.00035308808839
    6     0.01051441128055     0.00000815695917     0.00000521471001     0.00000846136211     0.00001974955959
    7     0.01482906166544     0.00000259079487     0.00000354776965     0.00003251274151     0.00002500237105
    8     0.00601185020414     0.01083711614987     0.01073849127621     0.05476767313424     0.05633431184491
    9     0.00027509942162     0.05897407708987     0.05881808590899     0.01046837900203     0.01067302099624
   10     0.00031117337923     0.83369233405009     0.01134617575652     0.05519087051465     0.00238595385822
   11     0.00038376381423     0.01135019575150     0.83410542130654     0.00230313416405     0.05525222332323
   12     0.00095955344434     0.06013779911418     0.00245370183634     0.80608321630561     0.00937398991479
   13     0.00529913429123     0.00247136310725     0.06053212006318     0.00914199656139     0.81086378096258
   14     0.03810157206390     0.00030405845100     0.00020231034464     0.00205083551746     0.00984376539363
   15     0.12868113106436     0.00000287357835     0.00000439001095     0.00004808889244     0.00002873451397
   16     0.00000000000000     0.00002129790356     0.00002319311326     0.00009674776695     0.00103333134991
   17     0.00002129790356     0.00000000000000     0.00027157821673     0.00522326807733     0.00023715095977
   18     0.00002319311326     0.00027157821673     0.00000000000000     0.00022729794679     0.00519654145345
   19     0.00009674776695     0.00522326807733     0.00022729794679     0.00000000000000     0.00036814592374
   20     0.00103333134991     0.00023715095977     0.00519654145345     0.00036814592374     0.00000000000000
   21     0.00086095343188     0.00003348221019     0.00002818030967     0.00002429861301     0.00101827101348
   22     0.01594613688500     0.00001345416904     0.00001440636704     0.00004465445039     0.00032766407104
   23     0.00104348445505     0.00001088521499     0.00000957180072     0.00003832884105     0.00008016008211
   24     0.01204680629892     0.00000021390698     0.00000058634015     0.00000337599353     0.00000247164280
   25     0.01803995289161     0.00000036307499     0.00000023817002     0.00001142696205     0.00000360160981
   26     0.87439475953638     0.00000018792560     0.00000057228534     0.00002611627780     0.00002532962838
   27     0.86493847801866     0.00000843717710     0.00000231771961     0.00005383332496     0.00015676580989
   28     0.00001467970330     0.00521297429858     0.00518034894244     0.00022836211463     0.00022813525972
   29     0.01695128812051     0.00000051317724     0.00000134076962     0.00000326076555     0.00000345278577
   30     0.89062505412061     0.00000026839150     0.00000021557749     0.00000231612396     0.00000844425479

                21                  22                  23                  24                  25

    1     0.04461731098778     0.04844627665622     0.04703608245493     0.00018277404538     0.00017511373488
    2     0.00852543872604     0.01253021999579     0.01709972741342     0.00169108931620     0.00189915349768
    3     0.00237215670205     0.00990830772470     0.00919387125937     0.01837657543968     0.01750708786894
    4     0.00030449341173     0.00265972516536     0.00072800100843     0.04984681269003     0.05655958394861
    5     0.00140246721722     0.00270015678499     0.00324594999568     0.00041173819795     0.00054655987561
    6     0.00014083699940     0.00025195849594     0.00023393748099     0.00242020023231     0.00121755983404
    7     0.00063288420920     0.00237229963378     0.00187327837868     0.00110847841238     0.00088391224016
    8     0.02131976080890     0.00751134219478     0.00801455586815     0.00006348536576     0.00008734929468
    9     0.00060181751371     0.00007780104306     0.00032169729165     0.00000414635890     0.00000392548650
   10     0.00064346180575     0.00023173864111     0.00009742733816     0.00000276389257     0.00000729749764
   11     0.00151453913855     0.00008715385612     0.00029887104175     0.00000411982777     0.00000610011944
   12     0.00359216976633     0.00093102337383     0.00138150324761     0.00001252360957     0.00004458867062
   13     0.01343971555611     0.00178845875702     0.00151930342950     0.00002208617488     0.00002515099432
   14     0.87362293229727     0.87320271890996     0.88343560851694     0.00012378195938     0.00050313809649
   15     0.00006020977916     0.00070093765584     0.00009927305275     0.89434916431496     0.88411506050941
   16     0.00086095343188     0.01594613688500     0.00104348445505     0.01204680629892     0.01803995289161
   17     0.00003348221019     0.00001345416904     0.00001088521499     0.00000021390698     0.00000036307499
   18     0.00002818030967     0.00001440636704     0.00000957180072     0.00000058634015     0.00000023817002
   19     0.00002429861301     0.00004465445039     0.00003832884105     0.00000337599353     0.00001142696205
   20     0.00101827101348     0.00032766407104     0.00008016008211     0.00000247164280     0.00000360160981
   21     0.00000000000000     0.00970135486560     0.00890064596647     0.00000501781816     0.00002896073645
   22     0.00970135486560     0.00000000000000     0.00784802994792     0.00002002927491     0.00009875991713
   23     0.00890064596647     0.00784802994792     0.00000000000000     0.00001769826244     0.00000701798835
   24     0.00000501781816     0.00002002927491     0.00001769826244     0.00000000000000     0.00750474147282
   25     0.00002896073645     0.00009875991713     0.00000701798835     0.00750474147282     0.00000000000000
   26     0.00011930447076     0.00349981662465     0.00023635579266     0.00018443750694     0.00105165286713
   27     0.00018181484444     0.00152401497890     0.00011125669836     0.00027774667530     0.00015946332750
   28     0.00001155370615     0.00001684832561     0.00000536170501     0.00000004778801     0.00000041006758
   29     0.00000108274425     0.00004739448309     0.00000135415144     0.00998229075711     0.00744966609884
   30     0.00001919901902     0.00056489568813     0.00000700676404     0.00081989366846     0.00100035436570

                26                  27                  28                  29                  30

    1     0.00168387633205     0.01539804243376     0.00023221277838     0.00038568186475     0.00046757190285
    2     0.00385182218458     0.01025912968133     0.00005543161639     0.00129260903785     0.00134238752315
    3     0.01525296642322     0.01238743919401     0.00002234932532     0.01191183542070     0.01245655950231
    4     0.05464185651580     0.04697439677735     0.00000493252311     0.05119903032644     0.05251557500029
    5     0.00020176431145     0.00100657083837     0.00006173383174     0.00035198737041     0.00026365021930
    6     0.00010311286418     0.00053716033653     0.00000093198448     0.00093819704964     0.00013604215674
    7     0.00022209941912     0.00111690685564     0.00000129235919     0.00013198212394     0.00007525127755
    8     0.00016218849930     0.00266291052225     0.00296279203823     0.00006883175328     0.00011676420218
    9     0.00000607907990     0.00005767181038     0.83579914702709     0.00000147421924     0.00000504835490
   10     0.00000934871965     0.00007847939578     0.05899883656528     0.00000182518916     0.00000319042262
   11     0.00001278063049     0.00010873122082     0.05910129972950     0.00000609253949     0.00000682614591
   12     0.00004863124332     0.00028361967614     0.01118752619116     0.00001020901069     0.00003264118662
   13     0.00009536015013     0.00256087549427     0.01133992229083     0.00003838451477     0.00006843180721
   14     0.01034243377679     0.00870531026984     0.00006698611803     0.00014217495421     0.00163556112323
   15     0.01821582548157     0.01139873473177     0.00000181048343     0.89455121006633     0.01591994776508
   16     0.87439475953638     0.86493847801866     0.00001467970330     0.01695128812051     0.89062505412061
   17     0.00000018792560     0.00000843717710     0.00521297429858     0.00000051317724     0.00000026839150
   18     0.00000057228534     0.00000231771961     0.00518034894244     0.00000134076962     0.00000021557749
   19     0.00002611627780     0.00005383332496     0.00022836211463     0.00000326076555     0.00000231612396
   20     0.00002532962838     0.00015676580989     0.00022813525972     0.00000345278577     0.00000844425479
   21     0.00011930447076     0.00018181484444     0.00001155370615     0.00000108274425     0.00001919901902
   22     0.00349981662465     0.00152401497890     0.00001684832561     0.00004739448309     0.00056489568813
   23     0.00023635579266     0.00011125669836     0.00000536170501     0.00000135415144     0.00000700676404
   24     0.00018443750694     0.00027774667530     0.00000004778801     0.00998229075711     0.00081989366846
   25     0.00105165286713     0.00015946332750     0.00000041006758     0.00744966609884     0.00100035436570
   26     0.00000000000000     0.00778632699389     0.00000070142369     0.00123988661384     0.00751399956431
   27     0.00778632699389     0.00000000000000     0.00000545780796     0.00078135845914     0.01055717876807
   28     0.00000070142369     0.00000545780796     0.00000000000000     0.00000015686464     0.00000038544887
   29     0.00123988661384     0.00078135845914     0.00000015686464     0.00000000000000     0.00188296120079
   30     0.00751399956431     0.01055717876807     0.00000038544887     0.00188296120079     0.00000000000000



  Atomic Valences: 

 #  #
 Irrep: 1
      1:    4.474445014833182
      2:    5.142293539497052
      3:    4.536240704828039
      4:    4.252852931993415
      5:    2.845619018200212
      6:    0.988784624898612
      7:    0.993129152357602
      8:    4.808857239977143
      9:    4.453501967544971
     10:    4.450796708209203
     11:    4.450595428277379
     12:    4.478081728448200
     13:    4.483872958136039
     14:    4.262703231866063
     15:    4.284530575368187
     16:    4.321197744159108
     17:    0.990229761479855
     18:    0.990561157851386
     19:    0.982030088487836
     20:    0.984591830456744
     21:    0.993724314668748
     22:    1.003067578936966
     23:    0.992896245448625
     24:    0.999485097244267
     25:    0.998938191219013
     26:    1.000929593142962
     27:    1.000080429842036
     28:    0.990742628318357
     29:    0.999377532432737
     30:    0.998047621545679


    Psi4 stopped on: Wednesday, 08 June 2022 04:49PM
    Psi4 wall time for execution: 0:02:28.39

*** Psi4 exiting successfully. Buy a developer a beer!
