
    -----------------------------------------------------------------------
          Psi4: An Open-Source Ab Initio Electronic Structure Package
                               Psi4 1.5 release

                         Git: Rev {HEAD} e9f4d6d 


    D. G. A. Smith, L. A. Burns, A. C. Simmonett, R. M. Parrish,
    M. C. Schieber, R. Galvelis, P. Kraus, H. Kruse, R. Di Remigio,
    A. Alenaizan, A. M. James, S. Lehtola, J. P. Misiewicz, M. Scheurer,
    R. A. Shaw, J. B. Schriber, Y. Xie, Z. L. Glick, D. A. Sirianni,
    J. S. O'Brien, J. M. Waldrop, A. Kumar, E. G. Hohenstein,
    B. P. Pritchard, B. R. Brooks, H. F. Schaefer III, A. Yu. Sokolov,
    K. Patkowski, A. E. DePrince III, U. Bozkaya, R. A. King,
    F. A. Evangelista, J. M. Turney, T. D. Crawford, C. D. Sherrill,
    J. Chem. Phys. 152(18) 184108 (2020). https://doi.org/10.1063/5.0006002

                            Additional Code Authors
    E. T. Seidl, C. L. Janssen, E. F. Valeev, M. L. Leininger,
    J. F. Gonthier, R. M. Richard, H. R. McAlexander, M. Saitow, X. Wang,
    P. Verma, M. H. Lechner, and A. Jiang

             Previous Authors, Complete List of Code Contributors,
                       and Citations for Specific Modules
    https://github.com/psi4/psi4/blob/master/codemeta.json
    https://github.com/psi4/psi4/graphs/contributors
    http://psicode.org/psi4manual/master/introduction.html#citing-psifour

    -----------------------------------------------------------------------


    Psi4 started on: Wednesday, 08 June 2022 04:28PM

    Process ID: 1152217
    Host:       node74.bme.utexas.edu
    PSIDATADIR: /home/bdw2292/miniconda3/envs/newamoebamdpoltype/share/psi4
    Memory:     500.0 MiB
    Threads:    1
    
  ==> Input File <==

--------------------------------------------------------------------------
molecule { 
0 1
 N   -0.239479    0.270663   -0.736146
 C    0.885797   -0.021943    0.009571
 C    2.221926    0.138960   -0.699923
 N    3.274347   -0.745116   -0.210029
 O    0.799956   -0.363397    1.200693
 H    2.104763   -0.069649   -1.760890
 H    2.508074    1.209155   -0.622364
 C   -1.533338    0.246877   -0.111216
 C   -4.074171    0.211433    1.046608
 C   -3.236471   -0.897459    1.154137
 C   -3.633853    1.343088    0.364697
 C   -1.971197   -0.885622    0.575347
 C   -2.363467    1.365033   -0.205275
 C   -0.170129    0.669725   -2.147361
 C    4.411527   -0.762655   -1.130867
 C    3.718696   -0.460618    1.160052
 H   -3.567753   -1.777055    1.688697
 H   -4.271135    2.213334    0.285744
 H   -1.315748   -1.736725    0.669138
 H   -2.011663    2.254475   -0.711123
 H   -1.176793    0.883264   -2.493847
 H    0.438026    1.564544   -2.290324
 H    0.227797   -0.135204   -2.767943
 H    4.089058   -1.068933   -2.127026
 H    4.908517    0.221199   -1.210868
 H    4.201750    0.531266    1.233708
 H    2.870927   -0.496234    1.833223
 H   -5.057907    0.195780    1.495130
 H    5.146185   -1.485848   -0.778621
 H    4.443415   -1.217395    1.460221
}
memory 8.166666666666666GB
set_num_threads(2)
psi4_io.set_default_path("/scratch/bdw2292/Psi4-25_27_Index_0-farH_in17")
set freeze_core True
E, wfn = energy('wb97x-d/6-311+G*',return_wfn=True)
oeprop(wfn,"WIBERG_LOWDIN_INDICES")
clean()
--------------------------------------------------------------------------

  Memory set to   7.606 GiB by Python driver.
  Threads set to 2 by Python driver.

Scratch directory: /scratch/bdw2292/Psi4-25_27_Index_0-farH_in17/

Scratch directory: /scratch/bdw2292/Psi4-25_27_Index_0-farH_in17/

*** tstart() called on node74.bme.utexas.edu
*** at Wed Jun  8 16:28:19 2022

   => Loading Basis Set <=

    Name: 6-311+G*
    Role: ORBITAL
    Keyword: BASIS
    atoms 1, 4       entry N          line   151 file /home/bdw2292/miniconda3/envs/newamoebamdpoltype/share/psi4/basis/6-311pgs.gbs 
    atoms 2-3, 8-16  entry C          line   130 file /home/bdw2292/miniconda3/envs/newamoebamdpoltype/share/psi4/basis/6-311pgs.gbs 
    atoms 5          entry O          line   172 file /home/bdw2292/miniconda3/envs/newamoebamdpoltype/share/psi4/basis/6-311pgs.gbs 
    atoms 6-7, 17-30 entry H          line    47 file /home/bdw2292/miniconda3/envs/newamoebamdpoltype/share/psi4/basis/6-311pgs.gbs 

   => WB97X-D: Empirical Dispersion <=

    Chai and Head-Gordon Dispersion Correction
    Chai, J.-D.; Head-Gordon, M. (2010), J. Chem. Phys., 132: 6615-6620

        s6 =       1.000000


         ---------------------------------------------------------
                                   SCF
               by Justin Turney, Rob Parrish, Andy Simmonett
                          and Daniel G. A. Smith
                              RKS Reference
                        2 Threads,   7788 MiB Core
         ---------------------------------------------------------

  ==> Geometry <==

    Molecular point group: c1
    Full point group: C1

    Geometry (in Angstrom), charge = 0, multiplicity = 1:

       Center              X                  Y                   Z               Mass       
    ------------   -----------------  -----------------  -----------------  -----------------
         N           -0.239478966650     0.270663024344    -0.736146042248    14.003074004430
         C            0.885797033350    -0.021942975656     0.009570957752    12.000000000000
         C            2.221926033350     0.138960024344    -0.699923042248    12.000000000000
         N            3.274347033350    -0.745115975656    -0.210029042248    14.003074004430
         O            0.799956033350    -0.363396975656     1.200692957752    15.994914619570
         H            2.104763033350    -0.069648975656    -1.760890042248     1.007825032230
         H            2.508074033350     1.209155024344    -0.622364042248     1.007825032230
         C           -1.533337966650     0.246877024344    -0.111216042248    12.000000000000
         C           -4.074170966650     0.211433024344     1.046607957752    12.000000000000
         C           -3.236470966650    -0.897458975656     1.154136957752    12.000000000000
         C           -3.633852966650     1.343088024344     0.364696957752    12.000000000000
         C           -1.971196966650    -0.885621975656     0.575346957752    12.000000000000
         C           -2.363466966650     1.365033024344    -0.205275042248    12.000000000000
         C           -0.170128966650     0.669725024344    -2.147361042248    12.000000000000
         C            4.411527033350    -0.762654975656    -1.130867042248    12.000000000000
         C            3.718696033350    -0.460617975656     1.160051957752    12.000000000000
         H           -3.567752966650    -1.777054975656     1.688696957752     1.007825032230
         H           -4.271134966650     2.213334024344     0.285743957752     1.007825032230
         H           -1.315747966650    -1.736724975656     0.669137957752     1.007825032230
         H           -2.011662966650     2.254475024344    -0.711123042248     1.007825032230
         H           -1.176792966650     0.883264024344    -2.493847042248     1.007825032230
         H            0.438026033350     1.564544024344    -2.290324042248     1.007825032230
         H            0.227797033350    -0.135203975656    -2.767943042248     1.007825032230
         H            4.089058033350    -1.068932975656    -2.127026042248     1.007825032230
         H            4.908517033350     0.221199024344    -1.210868042248     1.007825032230
         H            4.201750033350     0.531266024344     1.233707957752     1.007825032230
         H            2.870927033350    -0.496233975656     1.833222957752     1.007825032230
         H           -5.057906966650     0.195780024344     1.495129957752     1.007825032230
         H            5.146185033350    -1.485847975656    -0.778621042248     1.007825032230
         H            4.443415033350    -1.217394975656     1.460220957752     1.007825032230

  Running in c1 symmetry.

  Rotational constants: A =      0.06020  B =      0.01092  C =      0.00991 [cm^-1]
  Rotational constants: A =   1804.90019  B =    327.30516  C =    296.97873 [MHz]
  Nuclear repulsion =  881.796766106414793

  Charge       = 0
  Multiplicity = 1
  Electrons    = 104
  Nalpha       = 52
  Nbeta        = 52

  ==> Algorithm <==

  SCF Algorithm Type is DF.
  DIIS enabled.
  MOM disabled.
  Fractional occupation disabled.
  Guess Type is SAD.
  Energy threshold   = 1.00e-06
  Density threshold  = 1.00e-06
  Integral threshold = 1.00e-12

  ==> Primary Basis <==

  Basis Set: 6-311+G*
    Blend: 6-311+G*
    Number of shells: 188
    Number of basis functions: 356
    Number of Cartesian functions: 370
    Spherical Harmonics?: true
    Max angular momentum: 2

  ==> DFT Potential <==

   => LibXC <=

    Version 5.1.5
    S. Lehtola, C. Steigemann, M. J. Oliveira, and M. A. Marques, SoftwareX 7, 1 (2018) (10.1016/j.softx.2017.11.002)

   => Composite Functional: WB97X-D <= 

    wB97X-D Hyb-GGA Exchange-Correlation Functional

    J.-D. Chai and M. Head-Gordon, Phys. Chem. Chem. Phys. 10, 6615 (2008) (10.1039/B810189B)

    Deriv               =              1
    GGA                 =           TRUE
    Meta                =          FALSE

    Exchange Hybrid     =           TRUE
    MP2 Hybrid          =          FALSE

   => Exchange-Correlation Functionals <=

    1.0000   wB97X-D range-separated functional

   => Exact (HF) Exchange <=

    0.7780            HF,LR [omega = 0.2000]
    0.2220               HF 

   => LibXC Density Thresholds  <==

    XC_HYB_GGA_XC_WB97X_D:  1.00E-14 

   => Molecular Quadrature <=

    Radial Scheme          =       TREUTLER
    Pruning Scheme         =           NONE
    Nuclear Scheme         =       TREUTLER

    BS radius alpha        =              1
    Pruning alpha          =              1
    Radial Points          =             75
    Spherical Points       =            302
    Total Points           =         626966
    Total Blocks           =           4496
    Max Points             =            256
    Max Functions          =            305
    Weights Tolerance      =       1.00E-15

   => Loading Basis Set <=

    Name: (6-311+G* AUX)
    Role: JKFIT
    Keyword: DF_BASIS_SCF
    atoms 1, 4       entry N          line   262 file /home/bdw2292/miniconda3/envs/newamoebamdpoltype/share/psi4/basis/heavy-aug-cc-pvtz-jkfit.gbs 
    atoms 2-3, 8-16  entry C          line   200 file /home/bdw2292/miniconda3/envs/newamoebamdpoltype/share/psi4/basis/heavy-aug-cc-pvtz-jkfit.gbs 
    atoms 5          entry O          line   324 file /home/bdw2292/miniconda3/envs/newamoebamdpoltype/share/psi4/basis/heavy-aug-cc-pvtz-jkfit.gbs 
    atoms 6-7, 17-30 entry H          line   116 file /home/bdw2292/miniconda3/envs/newamoebamdpoltype/share/psi4/basis/heavy-aug-cc-pvtz-jkfit.gbs 

  ==> Integral Setup <==

  DFHelper Memory: AOs need 4.722 GiB; user supplied 4.722 GiB. Using in-core AOs.

  ==> MemDFJK: Density-Fitted J/K Matrices <==

    J tasked:                   Yes
    K tasked:                   Yes
    wK tasked:                  Yes
    Omega:                2.000E-01
    OpenMP threads:               2
    Memory [MiB]:              4835
    Algorithm:                 Core
    Schwarz Cutoff:           1E-12
    Mask sparsity (%):      14.9113
    Fitting Condition:        1E-10

   => Auxiliary Basis Set <=

  Basis Set: (6-311+G* AUX)
    Blend: HEAVY-AUG-CC-PVTZ-JKFIT
    Number of shells: 580
    Number of basis functions: 1936
    Number of Cartesian functions: 2394
    Spherical Harmonics?: true
    Max angular momentum: 4

  Cached 25.0% of DFT collocation blocks in 0.951 [GiB].

  Minimum eigenvalue in the overlap matrix is 1.6325885156E-06.
  Reciprocal condition number of the overlap matrix is 1.1378680617E-07.
    Using symmetric orthogonalization.

  ==> Pre-Iterations <==

  SCF Guess: Superposition of Atomic Densities via on-the-fly atomic UHF (no occupation information).

   -------------------------
    Irrep   Nso     Nmo    
   -------------------------
     A        356     356 
   -------------------------
    Total     356     356
   -------------------------

  ==> Iterations <==

                           Total Energy        Delta E     RMS |[F,P]|

   @DF-RKS iter SAD:  -612.72399222147135   -6.12724e+02   0.00000e+00 
   @DF-RKS iter   1:  -612.77371925742102   -4.97270e-02   3.28136e-03 DIIS
   @DF-RKS iter   2:  -612.99024728936320   -2.16528e-01   2.94144e-03 DIIS
   @DF-RKS iter   3:  -613.43454774069107   -4.44300e-01   6.84711e-04 DIIS
   @DF-RKS iter   4:  -613.45508751674436   -2.05398e-02   1.86943e-04 DIIS
   @DF-RKS iter   5:  -613.45675824042200   -1.67072e-03   6.90446e-05 DIIS
   @DF-RKS iter   6:  -613.45699895726125   -2.40717e-04   1.74022e-05 DIIS
   @DF-RKS iter   7:  -613.45701682543722   -1.78682e-05   3.46702e-06 DIIS
   @DF-RKS iter   8:  -613.45701796991591   -1.14448e-06   1.62493e-06 DIIS
   @DF-RKS iter   9:  -613.45701823435058   -2.64435e-07   4.71499e-07 DIIS
  Energy and wave function converged.


  ==> Post-Iterations <==

   Electrons on quadrature grid:
      Ntotal   =  103.9999340570 ; deviation = -6.594e-05 

    Orbital Energies [Eh]
    ---------------------

    Doubly Occupied:                                                      

       1A    -19.210532     2A    -14.477097     3A    -14.427977  
       4A    -10.394747     5A    -10.334039     6A    -10.331174  
       7A    -10.323536     8A    -10.299998     9A    -10.294901  
      10A    -10.293667    11A    -10.290983    12A    -10.290083  
      13A    -10.288865    14A    -10.281185    15A     -1.137210  
      16A     -1.049165    17A     -1.021811    18A     -0.959501  
      19A     -0.865013    20A     -0.854767    21A     -0.834211  
      22A     -0.809653    23A     -0.798105    24A     -0.732412  
      25A     -0.710165    26A     -0.689144    27A     -0.649405  
      28A     -0.609988    29A     -0.598114    30A     -0.582464  
      31A     -0.575997    32A     -0.556121    33A     -0.553249  
      34A     -0.537755    35A     -0.534259    36A     -0.519550  
      37A     -0.512642    38A     -0.502081    39A     -0.497031  
      40A     -0.477362    41A     -0.469603    42A     -0.465993  
      43A     -0.452538    44A     -0.446158    45A     -0.442812  
      46A     -0.441118    47A     -0.434357    48A     -0.361335  
      49A     -0.343266    50A     -0.330153    51A     -0.309062  
      52A     -0.295120  

    Virtual:                                                              

      53A      0.045007    54A      0.051718    55A      0.054464  
      56A      0.066041    57A      0.073190    58A      0.078211  
      59A      0.082563    60A      0.087407    61A      0.088972  
      62A      0.096250    63A      0.100213    64A      0.104491  
      65A      0.107538    66A      0.114125    67A      0.122114  
      68A      0.125542    69A      0.126922    70A      0.131143  
      71A      0.136054    72A      0.146232    73A      0.148855  
      74A      0.151372    75A      0.164873    76A      0.165499  
      77A      0.172895    78A      0.177044    79A      0.184844  
      80A      0.186970    81A      0.192256    82A      0.196518  
      83A      0.201187    84A      0.204858    85A      0.214159  
      86A      0.217164    87A      0.218225    88A      0.220995  
      89A      0.227417    90A      0.229455    91A      0.238921  
      92A      0.241051    93A      0.251833    94A      0.254099  
      95A      0.260661    96A      0.261489    97A      0.264189  
      98A      0.265805    99A      0.269752   100A      0.273640  
     101A      0.277429   102A      0.281619   103A      0.283823  
     104A      0.289300   105A      0.290499   106A      0.296914  
     107A      0.300387   108A      0.301455   109A      0.306697  
     110A      0.309887   111A      0.316727   112A      0.318072  
     113A      0.325977   114A      0.330184   115A      0.334463  
     116A      0.338227   117A      0.344456   118A      0.346686  
     119A      0.352412   120A      0.355310   121A      0.359239  
     122A      0.366947   123A      0.372453   124A      0.376919  
     125A      0.385706   126A      0.393937   127A      0.398396  
     128A      0.408278   129A      0.416479   130A      0.421225  
     131A      0.429167   132A      0.432165   133A      0.445559  
     134A      0.450271   135A      0.464945   136A      0.468375  
     137A      0.481637   138A      0.504007   139A      0.514870  
     140A      0.521244   141A      0.524019   142A      0.549072  
     143A      0.560302   144A      0.573203   145A      0.582577  
     146A      0.595340   147A      0.599033   148A      0.607374  
     149A      0.619487   150A      0.622092   151A      0.625267  
     152A      0.636517   153A      0.638093   154A      0.640592  
     155A      0.653721   156A      0.657871   157A      0.668322  
     158A      0.676332   159A      0.678533   160A      0.692126  
     161A      0.704224   162A      0.726482   163A      0.734097  
     164A      0.737164   165A      0.749845   166A      0.751564  
     167A      0.759635   168A      0.762209   169A      0.766429  
     170A      0.774492   171A      0.783820   172A      0.785864  
     173A      0.788911   174A      0.793835   175A      0.806019  
     176A      0.809417   177A      0.816772   178A      0.823148  
     179A      0.832229   180A      0.835706   181A      0.841108  
     182A      0.853652   183A      0.865367   184A      0.876457  
     185A      0.898458   186A      0.917671   187A      0.924024  
     188A      0.929443   189A      0.940189   190A      0.947114  
     191A      0.956763   192A      0.974373   193A      0.983387  
     194A      0.984050   195A      0.999649   196A      1.003708  
     197A      1.026989   198A      1.034857   199A      1.065506  
     200A      1.092307   201A      1.108057   202A      1.112101  
     203A      1.131472   204A      1.135184   205A      1.152360  
     206A      1.208810   207A      1.218387   208A      1.248795  
     209A      1.259526   210A      1.270810   211A      1.286359  
     212A      1.305501   213A      1.323506   214A      1.326311  
     215A      1.342490   216A      1.362121   217A      1.369244  
     218A      1.387633   219A      1.403227   220A      1.419924  
     221A      1.439553   222A      1.507202   223A      1.524390  
     224A      1.557877   225A      1.586490   226A      1.602615  
     227A      1.606097   228A      1.633452   229A      1.644707  
     230A      1.657393   231A      1.664810   232A      1.675430  
     233A      1.694264   234A      1.696279   235A      1.704612  
     236A      1.714155   237A      1.726178   238A      1.741427  
     239A      1.766113   240A      1.773520   241A      1.788975  
     242A      1.818482   243A      1.821780   244A      1.832470  
     245A      1.861174   246A      1.866305   247A      1.879727  
     248A      1.889314   249A      1.909716   250A      1.915563  
     251A      1.934047   252A      1.941844   253A      1.946299  
     254A      2.009653   255A      2.020851   256A      2.029145  
     257A      2.045575   258A      2.086028   259A      2.115265  
     260A      2.128396   261A      2.163186   262A      2.224852  
     263A      2.272114   264A      2.330113   265A      2.370970  
     266A      2.374853   267A      2.384884   268A      2.407769  
     269A      2.425886   270A      2.432196   271A      2.491387  
     272A      2.494158   273A      2.498185   274A      2.515142  
     275A      2.553357   276A      2.581664   277A      2.590214  
     278A      2.615780   279A      2.644908   280A      2.647721  
     281A      2.651401   282A      2.669128   283A      2.694995  
     284A      2.704169   285A      2.721412   286A      2.748516  
     287A      2.759807   288A      2.772351   289A      2.789550  
     290A      2.828939   291A      2.854655   292A      2.861377  
     293A      2.881927   294A      2.888147   295A      2.949695  
     296A      2.951856   297A      2.986541   298A      3.006049  
     299A      3.029125   300A      3.043012   301A      3.067979  
     302A      3.084586   303A      3.179068   304A      3.202573  
     305A      3.247971   306A      3.280227   307A      3.285365  
     308A      3.291583   309A      3.339969   310A      3.370354  
     311A      3.381361   312A      3.385097   313A      3.410279  
     314A      3.418185   315A      3.424977   316A      3.449436  
     317A      3.452006   318A      3.460748   319A      3.486735  
     320A      3.516817   321A      3.541827   322A      3.553657  
     323A      3.607975   324A      3.633959   325A      3.695574  
     326A      3.744560   327A      3.764707   328A      3.888233  
     329A      3.954456   330A      4.089076   331A      4.127030  
     332A      4.141451   333A      4.155418   334A      4.287842  
     335A      4.778827   336A      4.818089   337A      4.890142  
     338A      4.910639   339A      5.101671   340A      5.223427  
     341A      5.395058   342A      5.893048   343A     23.493169  
     344A     23.657427   345A     23.687059   346A     23.753998  
     347A     23.827614   348A     23.968839   349A     23.979762  
     350A     24.009562   351A     24.168358   352A     24.180728  
     353A     24.283838   354A     35.630743   355A     35.687136  
     356A     50.169215  

    Final Occupation by Irrep:
              A 
    DOCC [    52 ]

  @DF-RKS Final Energy:  -613.45701823435058

   => Energetics <=

    Nuclear Repulsion Energy =            881.7967661064147933
    One-Electron Energy =               -2580.4456907795802181
    Two-Electron Energy =                1145.7405389124878639
    DFT Exchange-Correlation Energy =     -60.5292009934978239
    Empirical Dispersion Energy =          -0.0194314801752671
    VV10 Nonlocal Energy =                  0.0000000000000000
    Total Energy =                       -613.4570182343505849

Computation Completed


Properties will be evaluated at   0.000000,   0.000000,   0.000000 [a0]

Properties computed using the SCF density matrix

  Nuclear Dipole Moment: [e a0]
     X:    12.6860      Y:     1.0177      Z:    -5.7074

  Electronic Dipole Moment: [e a0]
     X:   -12.8264      Y:    -0.4159      Z:     4.3505

  Dipole Moment: [e a0]
     X:    -0.1404      Y:     0.6018      Z:    -1.3569     Total:     1.4910

  Dipole Moment: [D]
     X:    -0.3568      Y:     1.5297      Z:    -3.4488     Total:     3.7897


*** tstop() called on node74.bme.utexas.edu at Wed Jun  8 16:30:41 2022
Module time:
	user time   =     265.63 seconds =       4.43 minutes
	system time =      12.34 seconds =       0.21 minutes
	total time  =        142 seconds =       2.37 minutes
Total time:
	user time   =     265.63 seconds =       4.43 minutes
	system time =      12.34 seconds =       0.21 minutes
	total time  =        142 seconds =       2.37 minutes


Properties will be evaluated at   0.000000,   0.000000,   0.000000 [a0]
OEProp: No title given, name of density matrix used for the following properties is 'SCF density'


  Wiberg Bond Indices using Orthogonal Lowdin Orbitals:

  Irrep: 1 Size: 30 x 30

                 1                   2                   3                   4                   5

    1     0.00000000000000     1.33736948449321     0.11032651509931     0.01336210451214     0.24011813162313
    2     1.33736948449321     0.00000000000000     1.02050287459023     0.10213822286205     2.15483872970661
    3     0.11032651509931     1.02050287459023     0.00000000000000     1.20481527954633     0.13975758692957
    4     0.01336210451214     0.10213822286205     1.20481527954633     0.00000000000000     0.04144417398300
    5     0.24011813162313     2.15483872970661     0.13975758692957     0.04144417398300     0.00000000000000
    6     0.01369537709553     0.04099286869312     0.82298663383623     0.04451224307124     0.00842782585746
    7     0.01202346377466     0.04913689444306     0.80576229627024     0.04585137674754     0.01489856488898
    8     1.09903229714621     0.10337733193762     0.01819609767416     0.00244023847798     0.05782309394462
    9     0.01077278857106     0.00597515137080     0.00065498681526     0.00019294512587     0.00376683122640
   10     0.01579623462202     0.00485067595832     0.00079844019468     0.00010437870634     0.00876766400938
   11     0.01588003893151     0.00370839599358     0.00065150647808     0.00012343385415     0.00303872190564
   12     0.11598294011010     0.04282951054056     0.00550509933419     0.00085294371808     0.05763477489397
   13     0.11977141248251     0.02799404865424     0.00353655858839     0.00059772752557     0.01211145532714
   14     1.15234953625015     0.10480301762932     0.06355724217378     0.00641904775243     0.02637278467598
   15     0.00285279502091     0.02077868650271     0.13226334490111     1.24706809553073     0.00474789924196
   16     0.00393866232156     0.03161486768446     0.11216050453029     1.22713896830115     0.06475431954271
   17     0.00085840227487     0.00023300267390     0.00003559068289     0.00000873529062     0.00021568458168
   18     0.00087601338532     0.00037234001466     0.00006945126874     0.00001005173474     0.00008379900618
   19     0.01506364216130     0.00885741752554     0.00078123802047     0.00004602368584     0.01200164218170
   20     0.01662600072342     0.00225981158985     0.00021858406566     0.00002833676518     0.00022009711018
   21     0.04441121254034     0.00848820939938     0.00310537689503     0.00029397730660     0.00129821109634
   22     0.04862017103803     0.01472413107907     0.01235064957201     0.00086985866750     0.00272756694045
   23     0.04728961650641     0.01512597672718     0.01188959423430     0.00060870418907     0.00331874458673
   24     0.00015435404301     0.00165070116575     0.01827895211515     0.04956627909360     0.00035669929218
   25     0.00016690073134     0.00198596383417     0.01967299447759     0.05451874296940     0.00061689144236
   26     0.00016288941645     0.00478956875656     0.02015663184526     0.05097312292801     0.00091589750588
   27     0.00037226643425     0.00931209261258     0.01200011712536     0.04651237542566     0.02972812403453
   28     0.00023125167400     0.00005535281467     0.00002071898416     0.00000563310582     0.00005670265335
   29     0.00033152662775     0.00129666452342     0.01220225500625     0.05070443171586     0.00045208761322
   30     0.00011004058971     0.00113272805380     0.01209226510743     0.05115734923506     0.00080364676327

                 6                   7                   8                   9                  10

    1     0.01369537709553     0.01202346377466     1.09903229714621     0.01077278857106     0.01579623462202
    2     0.04099286869312     0.04913689444306     0.10337733193762     0.00597515137080     0.00485067595832
    3     0.82298663383623     0.80576229627024     0.01819609767416     0.00065498681526     0.00079844019468
    4     0.04451224307124     0.04585137674754     0.00244023847798     0.00019294512587     0.00010437870634
    5     0.00842782585746     0.01489856488898     0.05782309394462     0.00376683122640     0.00876766400938
    6     0.00000000000000     0.00589236835713     0.00111989724258     0.00003132501758     0.00005439985839
    7     0.00589236835713     0.00000000000000     0.00109818752803     0.00009862333630     0.00006739664159
    8     0.00111989724258     0.00109818752803     0.00000000000000     0.13759053197008     0.13704397625462
    9     0.00003132501758     0.00009862333630     0.13759053197008     0.00000000000000     1.51540415826808
   10     0.00005439985839     0.00006739664159     0.13704397625462     1.51540415826808     0.00000000000000
   11     0.00009952690067     0.00004887787232     0.13547397558820     1.52285637689483     0.13765617393525
   12     0.00027125405003     0.00047313572840     1.40635521150290     0.13782962348931     1.52067780807509
   13     0.00033522959515     0.00041434297342     1.41896140338946     0.13816896274157     0.14370455370172
   14     0.02031400118919     0.00645909983818     0.10384376140973     0.00410202086113     0.00326655963612
   15     0.01837025624149     0.01535990536534     0.00072397906697     0.00004757950909     0.00003955457629
   16     0.01036340355695     0.01814561574746     0.00094044104457     0.00007280827251     0.00009990764859
   17     0.00000205558238     0.00000163375014     0.01084566088887     0.05889269334150     0.83367915629220
   18     0.00000526373353     0.00001471183398     0.01071982850398     0.05883438662096     0.01136944521259
   19     0.00002721365777     0.00012062477456     0.05449423724227     0.01046260606281     0.05523312097357
   20     0.00004641420617     0.00001368212367     0.05590740244229     0.01064436403241     0.00237510469080
   21     0.00070875124494     0.00005515223770     0.02086527470721     0.00051553420590     0.00063983047890
   22     0.00239530828773     0.00050005894198     0.00733790594399     0.00008173574224     0.00025224178511
   23     0.00352913032646     0.00063490135212     0.00772250093226     0.00038835750940     0.00010247852002
   24     0.00279650932568     0.00080877087250     0.00003221717148     0.00000323830245     0.00000261724195
   25     0.00147549493168     0.00097779752991     0.00009521118017     0.00000326568273     0.00000901487897
   26     0.00013675368691     0.00099623979246     0.00004001272393     0.00000442206610     0.00000854944413
   27     0.00060715280431     0.00113984997088     0.00020409839140     0.00001184512911     0.00001900397329
   28     0.00000089001123     0.00000275813929     0.00293834586331     0.83584513240909     0.05895896506410
   29     0.00096457116113     0.00013618634070     0.00006150488583     0.00000816132385     0.00000403261967
   30     0.00019987666183     0.00020875122460     0.00001337746299     0.00000125730897     0.00000356646886

                11                  12                  13                  14                  15

    1     0.01588003893151     0.11598294011010     0.11977141248251     1.15234953625015     0.00285279502091
    2     0.00370839599358     0.04282951054056     0.02799404865424     0.10480301762932     0.02077868650271
    3     0.00065150647808     0.00550509933419     0.00353655858839     0.06355724217378     0.13226334490111
    4     0.00012343385415     0.00085294371808     0.00059772752557     0.00641904775243     1.24706809553073
    5     0.00303872190564     0.05763477489397     0.01211145532714     0.02637278467598     0.00474789924196
    6     0.00009952690067     0.00027125405003     0.00033522959515     0.02031400118919     0.01837025624149
    7     0.00004887787232     0.00047313572840     0.00041434297342     0.00645909983818     0.01535990536534
    8     0.13547397558820     1.40635521150290     1.41896140338946     0.10384376140973     0.00072397906697
    9     1.52285637689483     0.13782962348931     0.13816896274157     0.00410202086113     0.00004757950909
   10     0.13765617393525     1.52067780807509     0.14370455370172     0.00326655963612     0.00003955457629
   11     0.00000000000000     0.14351959192959     1.51729059477081     0.00641476719879     0.00003791960751
   12     0.14351959192959     0.00000000000000     0.12810606398718     0.02234709804443     0.00023795863382
   13     1.51729059477081     0.12810606398718     0.00000000000000     0.05069152290942     0.00017586044973
   14     0.00641476719879     0.02234709804443     0.05069152290942     0.00000000000000     0.00179553646977
   15     0.00003791960751     0.00023795863382     0.00017586044973     0.00179553646977     0.00000000000000
   16     0.00008311445182     0.00061531997531     0.00020677257636     0.00215485742334     0.13145899497495
   17     0.01135415844339     0.06029386617611     0.00245460189343     0.00034898795244     0.00000205179410
   18     0.83410385191368     0.00246220378975     0.06048493586463     0.00020978191168     0.00000494117224
   19     0.00230629025632     0.80523146575264     0.00906560786498     0.00161179617777     0.00001993646863
   20     0.05537685078670     0.00940327458660     0.81190763466171     0.01220560261602     0.00001391060548
   21     0.00166119443242     0.00283101853943     0.01518802605694     0.87492926884963     0.00007826374008
   22     0.00010372927084     0.00091537924961     0.00256467803058     0.88360540462901     0.00019630047709
   23     0.00028450409555     0.00093658614776     0.00168186278461     0.88460998214638     0.00021498386307
   24     0.00000240669981     0.00001702862215     0.00000764632695     0.00019747734233     0.89655476206559
   25     0.00000606850077     0.00006609173432     0.00003222899412     0.00017618229375     0.88275074528758
   26     0.00000485303373     0.00003399033555     0.00001994661524     0.00018291154662     0.02022311790419
   27     0.00001645963336     0.00015862279228     0.00003612344377     0.00016928965604     0.01161573994583
   28     0.05923802495481     0.01117732535163     0.01132063517518     0.00008311541679     0.00000152656189
   29     0.00000229454104     0.00002254127700     0.00001952011815     0.00005832826017     0.89531132737598
   30     0.00000346635979     0.00001389449831     0.00000878206207     0.00013859206205     0.01688824152895

                16                  17                  18                  19                  20

    1     0.00393866232156     0.00085840227487     0.00087601338532     0.01506364216130     0.01662600072342
    2     0.03161486768446     0.00023300267390     0.00037234001466     0.00885741752554     0.00225981158985
    3     0.11216050453029     0.00003559068289     0.00006945126874     0.00078123802047     0.00021858406566
    4     1.22713896830115     0.00000873529062     0.00001005173474     0.00004602368584     0.00002833676518
    5     0.06475431954271     0.00021568458168     0.00008379900618     0.01200164218170     0.00022009711018
    6     0.01036340355695     0.00000205558238     0.00000526373353     0.00002721365777     0.00004641420617
    7     0.01814561574746     0.00000163375014     0.00001471183398     0.00012062477456     0.00001368212367
    8     0.00094044104457     0.01084566088887     0.01071982850398     0.05449423724227     0.05590740244229
    9     0.00007280827251     0.05889269334150     0.05883438662096     0.01046260606281     0.01064436403241
   10     0.00009990764859     0.83367915629220     0.01136944521259     0.05523312097357     0.00237510469080
   11     0.00008311445182     0.01135415844339     0.83410385191368     0.00230629025632     0.05537685078670
   12     0.00061531997531     0.06029386617611     0.00246220378975     0.80523146575264     0.00940327458660
   13     0.00020677257636     0.00245460189343     0.06048493586463     0.00906560786498     0.81190763466171
   14     0.00215485742334     0.00034898795244     0.00020978191168     0.00161179617777     0.01220560261602
   15     0.13145899497495     0.00000205179410     0.00000494117224     0.00001993646863     0.00001391060548
   16     0.00000000000000     0.00000218217768     0.00000842473216     0.00008135172981     0.00001256234969
   17     0.00000218217768     0.00000000000000     0.00027320455538     0.00523903431871     0.00023345395056
   18     0.00000842473216     0.00027320455538     0.00000000000000     0.00022078242542     0.00527349187803
   19     0.00008135172981     0.00523903431871     0.00022078242542     0.00000000000000     0.00037583408652
   20     0.00001256234969     0.00023345395056     0.00527349187803     0.00037583408652     0.00000000000000
   21     0.00020002286470     0.00004619004025     0.00002659749363     0.00003889504831     0.00152389771007
   22     0.00020864846270     0.00001104000481     0.00002273548085     0.00007063416897     0.00034286764774
   23     0.00019971757534     0.00000604779880     0.00001134787617     0.00000982226872     0.00016697372042
   24     0.01210917308829     0.00000017744051     0.00000005665227     0.00000359158369     0.00000067601521
   25     0.01919716820237     0.00000041994516     0.00000081233478     0.00000118662712     0.00000051642105
   26     0.88064122499873     0.00000022546902     0.00000032403631     0.00000711292538     0.00000270285952
   27     0.86688264972553     0.00000120953024     0.00000058022813     0.00002877369040     0.00000543163391
   28     0.00000295210247     0.00518267129830     0.00519172722920     0.00023109647579     0.00022139655256
   29     0.01684308049265     0.00000055098392     0.00000056947752     0.00000205041992     0.00000205935606
   30     0.89497682936794     0.00000008606052     0.00000015615222     0.00000379310869     0.00000232834251

                21                  22                  23                  24                  25

    1     0.04441121254034     0.04862017103803     0.04728961650641     0.00015435404301     0.00016690073134
    2     0.00848820939938     0.01472413107907     0.01512597672718     0.00165070116575     0.00198596383417
    3     0.00310537689503     0.01235064957201     0.01188959423430     0.01827895211515     0.01967299447759
    4     0.00029397730660     0.00086985866750     0.00060870418907     0.04956627909360     0.05451874296940
    5     0.00129821109634     0.00272756694045     0.00331874458673     0.00035669929218     0.00061689144236
    6     0.00070875124494     0.00239530828773     0.00352913032646     0.00279650932568     0.00147549493168
    7     0.00005515223770     0.00050005894198     0.00063490135212     0.00080877087250     0.00097779752991
    8     0.02086527470721     0.00733790594399     0.00772250093226     0.00003221717148     0.00009521118017
    9     0.00051553420590     0.00008173574224     0.00038835750940     0.00000323830245     0.00000326568273
   10     0.00063983047890     0.00025224178511     0.00010247852002     0.00000261724195     0.00000901487897
   11     0.00166119443242     0.00010372927084     0.00028450409555     0.00000240669981     0.00000606850077
   12     0.00283101853943     0.00091537924961     0.00093658614776     0.00001702862215     0.00006609173432
   13     0.01518802605694     0.00256467803058     0.00168186278461     0.00000764632695     0.00003222899412
   14     0.87492926884963     0.88360540462901     0.88460998214638     0.00019747734233     0.00017618229375
   15     0.00007826374008     0.00019630047709     0.00021498386307     0.89655476206559     0.88275074528758
   16     0.00020002286470     0.00020864846270     0.00019971757534     0.01210917308829     0.01919716820237
   17     0.00004619004025     0.00001104000481     0.00000604779880     0.00000017744051     0.00000041994516
   18     0.00002659749363     0.00002273548085     0.00001134787617     0.00000005665227     0.00000081233478
   19     0.00003889504831     0.00007063416897     0.00000982226872     0.00000359158369     0.00000118662712
   20     0.00152389771007     0.00034286764774     0.00016697372042     0.00000067601521     0.00000051642105
   21     0.00000000000000     0.00921507797010     0.00962025485150     0.00002037068075     0.00000999328818
   22     0.00921507797010     0.00000000000000     0.00741487248162     0.00001784997648     0.00002691171842
   23     0.00962025485150     0.00741487248162     0.00000000000000     0.00002981762787     0.00000639141858
   24     0.00002037068075     0.00001784997648     0.00002981762787     0.00000000000000     0.00751447483583
   25     0.00000999328818     0.00002691171842     0.00000639141858     0.00751447483583     0.00000000000000
   26     0.00000343040559     0.00002828376705     0.00002306345596     0.00023579939552     0.00136314592958
   27     0.00002488727120     0.00004699138549     0.00003658819004     0.00033782112429     0.00021455143064
   28     0.00001391583947     0.00002390746320     0.00000402080471     0.00000003716933     0.00000038046427
   29     0.00000518140926     0.00000251624892     0.00001792401764     0.00987158379321     0.00742489941151
   30     0.00001863078622     0.00003290176581     0.00002017184679     0.00080717272719     0.00101824003310

                26                  27                  28                  29                  30

    1     0.00016288941645     0.00037226643425     0.00023125167400     0.00033152662775     0.00011004058971
    2     0.00478956875656     0.00931209261258     0.00005535281467     0.00129666452342     0.00113272805380
    3     0.02015663184526     0.01200011712536     0.00002071898416     0.01220225500625     0.01209226510743
    4     0.05097312292801     0.04651237542566     0.00000563310582     0.05070443171586     0.05115734923506
    5     0.00091589750588     0.02972812403453     0.00005670265335     0.00045208761322     0.00080364676327
    6     0.00013675368691     0.00060715280431     0.00000089001123     0.00096457116113     0.00019987666183
    7     0.00099623979246     0.00113984997088     0.00000275813929     0.00013618634070     0.00020875122460
    8     0.00004001272393     0.00020409839140     0.00293834586331     0.00006150488583     0.00001337746299
    9     0.00000442206610     0.00001184512911     0.83584513240909     0.00000816132385     0.00000125730897
   10     0.00000854944413     0.00001900397329     0.05895896506410     0.00000403261967     0.00000356646886
   11     0.00000485303373     0.00001645963336     0.05923802495481     0.00000229454104     0.00000346635979
   12     0.00003399033555     0.00015862279228     0.01117732535163     0.00002254127700     0.00001389449831
   13     0.00001994661524     0.00003612344377     0.01132063517518     0.00001952011815     0.00000878206207
   14     0.00018291154662     0.00016928965604     0.00008311541679     0.00005832826017     0.00013859206205
   15     0.02022311790419     0.01161573994583     0.00000152656189     0.89531132737598     0.01688824152895
   16     0.88064122499873     0.86688264972553     0.00000295210247     0.01684308049265     0.89497682936794
   17     0.00000022546902     0.00000120953024     0.00518267129830     0.00000055098392     0.00000008606052
   18     0.00000032403631     0.00000058022813     0.00519172722920     0.00000056947752     0.00000015615222
   19     0.00000711292538     0.00002877369040     0.00023109647579     0.00000205041992     0.00000379310869
   20     0.00000270285952     0.00000543163391     0.00022139655256     0.00000205935606     0.00000232834251
   21     0.00000343040559     0.00002488727120     0.00001391583947     0.00000518140926     0.00001863078622
   22     0.00002828376705     0.00004699138549     0.00002390746320     0.00000251624892     0.00003290176581
   23     0.00002306345596     0.00003658819004     0.00000402080471     0.00001792401764     0.00002017184679
   24     0.00023579939552     0.00033782112429     0.00000003716933     0.00987158379321     0.00080717272719
   25     0.00136314592958     0.00021455143064     0.00000038046427     0.00742489941151     0.00101824003310
   26     0.00000000000000     0.00829142550886     0.00000022340450     0.00121777873436     0.00731744064947
   27     0.00829142550886     0.00000000000000     0.00000026894215     0.00079020968563     0.01075233275478
   28     0.00000022340450     0.00000026894215     0.00000000000000     0.00000005011136     0.00000008615096
   29     0.00121777873436     0.00079020968563     0.00000005011136     0.00000000000000     0.00206860827344
   30     0.00731744064947     0.01075233275478     0.00000008615096     0.00206860827344     0.00000000000000



  Atomic Valences: 

 #  #
 Irrep: 1
      1:    4.438546070200213
      2:    5.121194721830431
      3:    4.564349386362161
      4:    4.242364801827557
      5:    2.891298352564596
      6:    1.000361996184490
      7:    0.981341268397118
      8:    4.795298002517714
      9:    4.453261713207390
     10:    4.450989009730644
     11:    4.451347169234972
     12:    4.476801622866101
     13:    4.476858739565017
     14:    4.233417574322440
     15:    4.299834214883067
     16:    4.295114545922086
     17:    0.990222775192389
     18:    0.990651816518715
     19:    0.981636821683611
     20:    0.985411263529983
     21:    0.995836647390065
     22:    0.994710358197404
     23:    0.995904937855476
     24:    1.001378261791007
     25:    0.999332686529425
     26:    0.997781089140850
     27:    0.999316882473935
     28:    0.990809112187595
     29:    0.999822495805423
     30:    0.999794613407342


    Psi4 stopped on: Wednesday, 08 June 2022 04:30PM
    Psi4 wall time for execution: 0:02:22.34

*** Psi4 exiting successfully. Buy a developer a beer!
