11
 energy: -17.227770799134 gnorm: 0.000431489651 xtb: 6.5.0 (97a52f5)
N           -1.20428999492430       -0.87810639312484       -0.15023377658680
C           -0.62294376671012        0.31570344784861        0.15754454358096
C            0.60338506299191        0.18407064663432        1.05574700272245
N            1.78856065949344        0.03718190855465        0.21612760848020
O           -0.99946742070498        1.35584819703138       -0.32105146314940
H            0.45975136612979       -0.64414181825178        1.76907208249599
H            0.71175222819362        1.11740473695672        1.61632215691408
H           -2.06359497320465       -0.84280190613715       -0.67730438863862
H           -1.07263841805012       -1.68418109814267        0.43638299524840
H            2.55115229104470       -0.35430757466688        0.76015435093859
H            1.60373395574071       -0.62497013670236       -0.53238111200586
