11
 energy: -17.232858614625 gnorm: 0.000365219579 xtb: 6.5.0 (97a52f5)
N           -1.56295347714855       -0.22381436989629        0.33483394340364
C           -0.38406124884094       -0.58986797380169       -0.22423008833985
C            0.78087476085175       -0.61314528347129        0.75960005721064
N            1.41053269036634        0.70854550471691        0.76908691276932
O           -0.28534471343244       -0.95417844726905       -1.37307829398471
H            1.46440152645249       -1.42074455121884        0.46320549328499
H            0.41168771981008       -0.82050245791147        1.76889922247655
H           -2.35325697320261       -0.11504886403330       -0.28301144256905
H           -1.56506031405091        0.31871818395979        1.18151148224385
H            2.36069380580912        0.63904121026913        1.11872940102559
H            1.47788822338565        1.05269903865608       -0.18516769752097
