      -----------------------------------------------------------      
     |                   =====================                   |     
     |                           x T B                           |     
     |                   =====================                   |     
     |                         S. Grimme                         |     
     |          Mulliken Center for Theoretical Chemistry        |     
     |                    University of Bonn                     |     
      -----------------------------------------------------------      

   * xtb version 6.5.0 (97a52f5) compiled by 'conda@d2599ee0d4f4' on 2022-05-15

   xtb is free software: you can redistribute it and/or modify it under
   the terms of the GNU Lesser General Public License as published by
   the Free Software Foundation, either version 3 of the License, or
   (at your option) any later version.
   
   xtb is distributed in the hope that it will be useful,
   but WITHOUT ANY WARRANTY; without even the implied warranty of
   MERCHANTABILITY or FITNESS FOR A PARTICULAR PURPOSE.  See the
   GNU Lesser General Public License for more details.
   
   Cite this work as:
   * C. Bannwarth, E. Caldeweyher, S. Ehlert, A. Hansen, P. Pracht,
     J. Seibert, S. Spicher, S. Grimme, WIREs Comput. Mol. Sci., 2020, 11,
     e01493. DOI: 10.1002/wcms.1493
   
   for GFN2-xTB:
   * C. Bannwarth, S. Ehlert and S. Grimme., J. Chem. Theory Comput., 2019,
     15, 1652-1671. DOI: 10.1021/acs.jctc.8b01176
   for GFN1-xTB:
   * S. Grimme, C. Bannwarth, P. Shushkov, J. Chem. Theory Comput., 2017,
     13, 1989-2009. DOI: 10.1021/acs.jctc.7b00118
   for GFN0-xTB:
   * P. Pracht, E. Caldeweyher, S. Ehlert, S. Grimme, ChemRxiv, 2019, preprint.
     DOI: 10.26434/chemrxiv.8326202.v1
   for GFN-FF:
   * S. Spicher and S. Grimme, Angew. Chem. Int. Ed., 2020, 59, 15665-15673.
     DOI: 10.1002/anie.202004239
   
   for ALPB and GBSA implicit solvation:
   * S. Ehlert, M. Stahn, S. Spicher, S. Grimme, J. Chem. Theory Comput.,
     2021, 17, 4250-4261. DOI: 10.1021/acs.jctc.1c00471
   
   for DFT-D4:
   * E. Caldeweyher, C. Bannwarth and S. Grimme, J. Chem. Phys., 2017,
     147, 034112. DOI: 10.1063/1.4993215
   * E. Caldeweyher, S. Ehlert, A. Hansen, H. Neugebauer, S. Spicher,
     C. Bannwarth and S. Grimme, J. Chem. Phys., 2019, 150, 154122.
     DOI: 10.1063/1.5090222
   * E. Caldeweyher, J.-M. Mewes, S. Ehlert and S. Grimme, Phys. Chem. Chem. Phys.
     2020, 22, 8499-8512. DOI: 10.1039/D0CP00502A
   
   for sTDA-xTB:
   * S. Grimme and C. Bannwarth, J. Chem. Phys., 2016, 145, 054103.
     DOI: 10.1063/1.4959605
   
   in the mass-spec context:
   * V. Asgeirsson, C. Bauer and S. Grimme, Chem. Sci., 2017, 8, 4879.
     DOI: 10.1039/c7sc00601b
   * J. Koopman and S. Grimme, ACS Omega 2019, 4, 12, 15120-15133.
     DOI: 10.1021/acsomega.9b02011
   
   for metadynamics refer to:
   * S. Grimme, J. Chem. Theory Comput., 2019, 155, 2847-2862
     DOI: 10.1021/acs.jctc.9b00143
   
   for SPH calculations refer to:
   * S. Spicher and S. Grimme, J. Chem. Theory Comput., 2021, 17, 1701-1714
     DOI: 10.1021/acs.jctc.0c01306
   
   with help from (in alphabetical order)
   P. Atkinson, C. Bannwarth, F. Bohle, G. Brandenburg, E. Caldeweyher
   M. Checinski, S. Dohm, S. Ehlert, S. Ehrlich, I. Gerasimov, C. Hölzer
   A. Katbashev, J. Koopman, C. Lavigne, S. Lehtola, F. März, M. Müller,
   F. Musil, H. Neugebauer, J. Pisarek, C. Plett, P. Pracht, F. Pultar,
   J. Seibert, P. Shushkov, S. Spicher, M. Stahn, M. Steiner, T. Strunk,
   J. Stückrath, T. Rose, and J. Unsleber
   
 * started run on 2023/11/18 at 08:08:41.604     

           -------------------------------------------------
          |                Calculation Setup                |
           -------------------------------------------------

          program call               : /home/liuchw/anaconda3/envs/xtbenv/bin/xtb --gfn 2 --chrg 0 --uhf 0 25_27_Index_0-opt-2-3-000_preQMOPTprefit_xyzformat.xyz --opt --input xtb-opt-2-3-000_constr.txt
          hostname                   : node165.bme.utexas.edu
          coordinate file            : 25_27_Index_0-opt-2-3-000_preQMOPTprefit_xyzformat.xyz
          omp threads                :                    64

   ID    Z sym.   atoms
    1    7 N      1, 4
    2    6 C      2, 3
    3    8 O      5
    4    1 H      6-11
constraining angle 1 2 3 4 to  359.9173291°, actual value:   -0.0826709°
constraining angle 8 1 2 3 to  175.0052098°, actual value:  175.0052098°
constraining angle 8 1 2 5 to  350.0408026°, actual value:   -9.9591974°
constraining angle 9 1 2 5 to  197.9821791°, actual value: -162.0178209°
constraining angle 9 1 2 3 to   22.9465863°, actual value:   22.9465863°
constraining angle 6 3 4 11 to   78.2929186°, actual value:   78.2929186°
constraining angle 7 3 4 11 to  198.7264808°, actual value: -161.2735192°
constraining angle 6 3 4 10 to  321.7447604°, actual value:  -38.2552396°
constraining angle 7 3 4 10 to   82.1783226°, actual value:   82.1783226°

           -------------------------------------------------
          |                 G F N 2 - x T B                 |
           -------------------------------------------------

        Reference                      10.1021/acs.jctc.8b01176
      * Hamiltonian:
        H0-scaling (s, p, d)           1.850000    2.230000    2.230000
        zeta-weighting                 0.500000
      * Dispersion:
        s8                             2.700000
        a1                             0.520000
        a2                             5.000000
        s9                             5.000000
      * Repulsion:
        kExp                           1.500000    1.000000
        rExp                           1.000000
      * Coulomb:
        alpha                          2.000000
        third order                    shell-resolved
        anisotropic                    true
        a3                             3.000000
        a5                             4.000000
        cn-shift                       1.200000
        cn-exp                         4.000000
        max-rad                        5.000000

q/qsh data taken from xtbrestart
CAMM data taken from xtbrestart

          ...................................................
          :                      SETUP                      :
          :.................................................:
          :  # basis functions                  26          :
          :  # atomic orbitals                  26          :
          :  # shells                           16          :
          :  # electrons                        30          :
          :  max. iterations                   250          :
          :  Hamiltonian                  GFN2-xTB          :
          :  restarted?                       true          :
          :  GBSA solvation                  false          :
          :  PC potential                    false          :
          :  electronic temp.          300.0000000     K    :
          :  accuracy                    1.0000000          :
          :  -> integral cutoff          0.2500000E+02      :
          :  -> integral neglect         0.1000000E-07      :
          :  -> SCF convergence          0.1000000E-05 Eh   :
          :  -> wf. convergence          0.1000000E-03 e    :
          :  Broyden damping             0.4000000          :
          ...................................................

 iter      E             dE          RMSdq      gap      omega  full diag
   1    -17.4022286 -0.174022E+02  0.136E+00    4.40       0.0  T
   2    -17.4024967 -0.268044E-03  0.795E-01    4.45       1.0  T
   3    -17.4024982 -0.153474E-05  0.921E-02    4.41       1.0  T
   4    -17.4025492 -0.509266E-04  0.290E-02    4.43       1.0  T
   5    -17.4025498 -0.636623E-06  0.158E-02    4.42       1.9  T
   6    -17.4025504 -0.593192E-06  0.378E-03    4.42       8.0  T
   7    -17.4025504 -0.155546E-07  0.154E-03    4.42      19.6  T
   8    -17.4025504 -0.270917E-08  0.407E-04    4.42      74.2  T
   9    -17.4025504 -0.140115E-09  0.127E-04    4.42     237.2  T

   *** convergence criteria satisfied after 9 iterations ***

         #    Occupation            Energy/Eh            Energy/eV
      -------------------------------------------------------------
         1        2.0000           -0.6939853             -18.8843
       ...           ...                  ...                  ...
         9        2.0000           -0.5221999             -14.2098
        10        2.0000           -0.5030353             -13.6883
        11        2.0000           -0.4826485             -13.1335
        12        2.0000           -0.4779315             -13.0052
        13        2.0000           -0.4234152             -11.5217
        14        2.0000           -0.3963327             -10.7848
        15        2.0000           -0.3844714             -10.4620 (HOMO)
        16                         -0.2218872              -6.0379 (LUMO)
        17                         -0.0210193              -0.5720
        18                          0.0265639               0.7228
        19                          0.0910673               2.4781
        20                          0.1255426               3.4162
       ...                                ...                  ...
        26                          0.5456996              14.8492
      -------------------------------------------------------------
                  HL-Gap            0.1625842 Eh            4.4241 eV
             Fermi-level           -0.3031793 Eh           -8.2499 eV

 SCC (total)                   0 d,  0 h,  0 min,  1.557 sec
 SCC setup                      ...        0 min,  0.029 sec (  1.836%)
 Dispersion                     ...        0 min,  0.063 sec (  4.077%)
 classical contributions        ...        0 min,  0.052 sec (  3.327%)
 integral evaluation            ...        0 min,  0.091 sec (  5.845%)
 iterations                     ...        0 min,  1.018 sec ( 65.390%)
 molecular gradient             ...        0 min,  0.304 sec ( 19.498%)
 printout                       ...        0 min,  0.000 sec (  0.008%)

         :::::::::::::::::::::::::::::::::::::::::::::::::::::
         ::                     SUMMARY                     ::
         :::::::::::::::::::::::::::::::::::::::::::::::::::::
         :: total energy             -17.226181650139 Eh    ::
         :: gradient norm              0.057504007955 Eh/a0 ::
         :: HOMO-LUMO gap              4.424141253865 eV    ::
         ::.................................................::
         :: SCC energy               -17.402550398898 Eh    ::
         :: -> isotropic ES            0.052268528735 Eh    ::
         :: -> anisotropic ES          0.005465885044 Eh    ::
         :: -> anisotropic XC          0.008717920198 Eh    ::
         :: -> dispersion             -0.005123500407 Eh    ::
         :: repulsion energy           0.176365148535 Eh    ::
         :: add. restraining           0.000000000000 Eh    ::
         :: total charge              -0.000000000000 e     ::
         :::::::::::::::::::::::::::::::::::::::::::::::::::::

      ----------------------------------------------------------- 
     |                   =====================                   |
     |                        A N C O P T                        |
     |                   =====================                   |
     |               Approximate Normal Coordinate               |
     |                Rational Function Optimizer                |
      ----------------------------------------------------------- 

          ...................................................
          :                      SETUP                      :
          :.................................................:
          :   optimization level            normal          :
          :   max. optcycles                   200          :
          :   ANC micro-cycles                  20          :
          :   degrees of freedom                27          :
          :.................................................:
          :   RF solver                   davidson          :
          :   write xtbopt.log                true          :
          :   linear?                        false          :
          :   energy convergence         0.5000000E-05 Eh   :
          :   grad. convergence          0.1000000E-02 Eh/α :
          :   maximium RF displ.         1.0000000          :
          :   Hlow (freq-cutoff)         0.1000000E-01      :
          :   Hmax (freq-cutoff)         5.0000000          :
          :   S6 in model hess.         20.0000000          :
          ...................................................

generating ANC from model Hessian ...
Using Lindh-Hessian (1995)
 Shifting diagonal of input Hessian by    2.8139780178496150E-003
 Lowest  eigenvalues of input Hessian
    0.000000    0.000000    0.000000    0.000000    0.000000    0.000000
    0.010000    0.026524    0.050824    0.066082    0.074039    0.100094
    0.115109    0.134302    0.233183    0.268970    0.389601    0.426132
 Highest eigenvalues
    5.978401    8.328446    9.147472   11.429178   14.450911   27.157696


........................................................................
.............................. CYCLE    1 ..............................
........................................................................
   1    -17.4025504 -0.174026E+02  0.197E-05    4.42       0.0  T
   2    -17.4025504 -0.376588E-12  0.990E-06    4.42    3046.3  T
   3    -17.4025504 -0.284217E-13  0.394E-06    4.42    7656.2  T
     SCC iter.                  ...        0 min,  0.322 sec
     gradient                   ...        0 min,  0.324 sec
 * total energy  :   -17.2261817 Eh     change       -0.1113776E-10 Eh
   gradient norm :     0.0575038 Eh/α   predicted     0.0000000E+00 (-100.00%)
   displ. norm   :     0.1997089 α      lambda       -0.5167152E-02
   maximum displ.:     0.1189741 α      in ANC's #3, #8, #5, ...

........................................................................
.............................. CYCLE    2 ..............................
........................................................................
   1    -17.4169129 -0.174169E+02  0.284E-01    4.70       0.0  T
   2    -17.4169707 -0.577268E-04  0.167E-01    4.66       1.0  T
   3    -17.4169661  0.459316E-05  0.576E-02    4.68       1.0  T
   4    -17.4169797 -0.136364E-04  0.825E-03    4.66       3.7  T
   5    -17.4169799 -0.168997E-06  0.403E-03    4.67       7.5  T
   6    -17.4169799 -0.187969E-07  0.109E-03    4.67      27.7  T
   7    -17.4169799 -0.901210E-09  0.276E-04    4.67     109.1  T
   8    -17.4169799 -0.902105E-10  0.122E-04    4.67     247.4  T
     SCC iter.                  ...        0 min,  0.597 sec
     gradient                   ...        0 min,  0.179 sec
 * total energy  :   -17.2292331 Eh     change       -0.3051414E-02 Eh
   gradient norm :     0.0477343 Eh/α   predicted    -0.2686615E-02 ( -11.96%)
   displ. norm   :     0.1110217 α      lambda       -0.1008528E-02
   maximum displ.:     0.0578079 α      in ANC's #2, #3, #1, ...

........................................................................
.............................. CYCLE    3 ..............................
........................................................................
   1    -17.4214849 -0.174215E+02  0.987E-02    4.77       0.0  T
   2    -17.4214944 -0.951066E-05  0.580E-02    4.75       1.0  T
   3    -17.4214944  0.322790E-08  0.204E-02    4.76       1.5  T
   4    -17.4214954 -0.103845E-05  0.358E-03    4.76       8.4  T
   5    -17.4214955 -0.348271E-07  0.171E-03    4.76      17.6  T
   6    -17.4214955 -0.467994E-08  0.470E-04    4.76      64.1  T
   7    -17.4214955 -0.157321E-09  0.148E-04    4.76     204.1  T
     SCC iter.                  ...        0 min,  0.501 sec
     gradient                   ...        0 min,  0.178 sec
 * total energy  :   -17.2285558 Eh     change        0.6772399E-03 Eh
   gradient norm :     0.2197730 Eh/α   predicted    -0.5104803E-03 (-175.38%)
   displ. norm   :     0.0353197 α      lambda       -0.2025596E-02
   maximum displ.:     0.0231481 α      in ANC's #2, #1, #22, ...

........................................................................
.............................. CYCLE    4 ..............................
........................................................................
   1    -17.4211212 -0.174211E+02  0.306E-02    4.76       0.0  T
   2    -17.4211218 -0.554399E-06  0.178E-02    4.76       1.7  T
   3    -17.4211218 -0.104398E-07  0.444E-03    4.77       6.8  T
   4    -17.4211218 -0.354205E-07  0.103E-03    4.77      29.4  T
   5    -17.4211218 -0.284939E-08  0.425E-04    4.77      70.9  T
   6    -17.4211218 -0.294605E-09  0.161E-04    4.77     187.1  T
     SCC iter.                  ...        0 min,  0.418 sec
     gradient                   ...        0 min,  0.175 sec
 * total energy  :   -17.2294763 Eh     change       -0.9205097E-03 Eh
   gradient norm :     0.0335519 Eh/α   predicted    -0.1014060E-02 (  10.16%)
   displ. norm   :     0.0562183 α      lambda       -0.2415288E-03
   maximum displ.:     0.0487006 α      in ANC's #1, #5, #3, ...

........................................................................
.............................. CYCLE    5 ..............................
........................................................................
   1    -17.4191465 -0.174191E+02  0.409E-02    4.71       0.0  T
   2    -17.4191480 -0.154476E-05  0.246E-02    4.72       1.2  T
   3    -17.4191479  0.550794E-07  0.934E-03    4.72       3.2  T
   4    -17.4191482 -0.281591E-06  0.130E-03    4.72      23.2  T
   5    -17.4191482 -0.449417E-08  0.640E-04    4.72      47.1  T
   6    -17.4191482 -0.504592E-09  0.192E-04    4.72     156.9  T
     SCC iter.                  ...        0 min,  0.417 sec
     gradient                   ...        0 min,  0.177 sec
 * total energy  :   -17.2294380 Eh     change        0.3829144E-04 Eh
   gradient norm :     0.0501062 Eh/α   predicted    -0.1211473E-03 (-416.38%)
   displ. norm   :     0.0189625 α      lambda       -0.2093832E-03
   maximum displ.:     0.0163659 α      in ANC's #1, #3, #2, ...

........................................................................
.............................. CYCLE    6 ..............................
........................................................................
   1    -17.4197052 -0.174197E+02  0.103E-02    4.73       0.0  T
   2    -17.4197053 -0.722861E-07  0.600E-03    4.73       5.0  T
   3    -17.4197053  0.431839E-09  0.177E-03    4.73      17.1  T
   4    -17.4197053 -0.758613E-08  0.343E-04    4.73      87.9  T
   5    -17.4197053 -0.301288E-09  0.175E-04    4.73     172.7  T
     SCC iter.                  ...        0 min,  0.329 sec
     gradient                   ...        0 min,  0.206 sec
 * total energy  :   -17.2295351 Eh     change       -0.9702412E-04 Eh
   gradient norm :     0.0092419 Eh/α   predicted    -0.1047282E-03 (   7.94%)
   displ. norm   :     0.0183679 α      lambda       -0.1928575E-04
   maximum displ.:     0.0150170 α      in ANC's #1, #3, #2, ...

........................................................................
.............................. CYCLE    7 ..............................
........................................................................
   1    -17.4201314 -0.174201E+02  0.119E-02    4.74       0.0  T
   2    -17.4201315 -0.162397E-06  0.691E-03    4.74       4.4  T
   3    -17.4201315 -0.222332E-08  0.265E-03    4.74      11.4  T
   4    -17.4201315 -0.125555E-07  0.444E-04    4.74      68.0  T
   5    -17.4201315 -0.725507E-09  0.197E-04    4.74     153.0  T
     SCC iter.                  ...        0 min,  0.355 sec
     gradient                   ...        0 min,  0.201 sec
 * total energy  :   -17.2295348 Eh     change        0.2979240E-06 Eh
   gradient norm :     0.0104855 Eh/α   predicted    -0.9646739E-05 (*******%)
   displ. norm   :     0.0053938 α      lambda       -0.1173336E-04
   maximum displ.:     0.0044254 α      in ANC's #1, #5, #8, ...

........................................................................
.............................. CYCLE    8 ..............................
........................................................................
   1    -17.4200150 -0.174200E+02  0.485E-03    4.74       0.0  T
   2    -17.4200150 -0.211627E-07  0.282E-03    4.74      10.7  T
   3    -17.4200150  0.489152E-09  0.102E-03    4.74      29.6  T
   4    -17.4200150 -0.283302E-08  0.180E-04    4.74     167.2  T
   5    -17.4200150 -0.101238E-09  0.696E-05    4.74     433.5  T
     SCC iter.                  ...        0 min,  0.309 sec
     gradient                   ...        0 min,  0.187 sec
 * total energy  :   -17.2295406 Eh     change       -0.5811518E-05 Eh
   gradient norm :     0.0010739 Eh/α   predicted    -0.5866641E-05 (   0.95%)
   displ. norm   :     0.0049310 α      lambda       -0.4847575E-06
   maximum displ.:     0.0043337 α      in ANC's #1, #8, #5, ...

........................................................................
.............................. CYCLE    9 ..............................
........................................................................
   1    -17.4199009 -0.174199E+02  0.348E-03    4.73       0.0  T
   2    -17.4199009 -0.950164E-08  0.210E-03    4.74      14.4  T
   3    -17.4199009  0.691415E-09  0.759E-04    4.74      39.7  T
   4    -17.4199009 -0.237440E-08  0.102E-04    4.74     295.0  T
     SCC iter.                  ...        0 min,  0.304 sec
     gradient                   ...        0 min,  0.196 sec
 * total energy  :   -17.2295406 Eh     change       -0.5870342E-07 Eh
   gradient norm :     0.0011809 Eh/α   predicted    -0.2428565E-06 ( 313.70%)
   displ. norm   :     0.0039528 α      lambda       -0.3192881E-06
   maximum displ.:     0.0034029 α      in ANC's #1, #2, #3, ...

........................................................................
.............................. CYCLE   10 ..............................
........................................................................
   1    -17.4199642 -0.174200E+02  0.172E-03    4.74       0.0  T
   2    -17.4199642 -0.175604E-08  0.102E-03    4.74      29.6  T
   3    -17.4199642  0.671463E-10  0.277E-04    4.74     108.8  T
   4    -17.4199642 -0.275488E-09  0.526E-05    4.74     573.6  T
     SCC iter.                  ...        0 min,  0.321 sec
     gradient                   ...        0 min,  0.189 sec
 * total energy  :   -17.2295409 Eh     change       -0.2503886E-06 Eh
   gradient norm :     0.0002768 Eh/α   predicted    -0.1608794E-06 ( -35.75%)
   displ. norm   :     0.0009052 α      lambda       -0.2916780E-07
   maximum displ.:     0.0006295 α      in ANC's #3, #1, #7, ...

   *** GEOMETRY OPTIMIZATION CONVERGED AFTER 10 ITERATIONS ***

------------------------------------------------------------------------
 total energy gain   :        -0.0033592 Eh       -2.1080 kcal/mol
 total RMSD          :         0.0890135 a0        0.0471 Å
 total power (kW/mol):        -0.8819681 (step)   -1.1511 (real)
------------------------------------------------------------------------

 ANCopt (total)                0 d,  0 h,  0 min,  7.662 sec
 optimizer setup                ...        0 min,  0.000 sec (  0.003%)
 model hessian                  ...        0 min,  0.009 sec (  0.122%)
 ANC generation                 ...        0 min,  0.012 sec (  0.155%)
 coordinate transformation      ...        0 min,  0.000 sec (  0.003%)
 single point calculation       ...        0 min,  7.448 sec ( 97.204%)
 optimization log               ...        0 min,  0.012 sec (  0.163%)
 hessian update                 ...        0 min,  0.178 sec (  2.317%)
 rational function              ...        0 min,  0.001 sec (  0.019%)

================
 final structure:
================
11
 xtb: 6.5.0 (97a52f5)
N           -1.35640777106154        0.14538037060867        0.12089475998359
C           -0.47989357277802       -0.87708744938173       -0.03019951011875
C            0.91802528634263       -0.69504591635755        0.55378965453853
N            1.16783690914779        0.57584325508422        1.21731784547511
O           -0.80835940664008       -1.93191122973965       -0.52627198689559
H            1.63465170943108       -0.94640651105520       -0.24076306398873
H            0.96504499156978       -1.47534249666761        1.32309166632667
H           -2.24687586216257        0.03517680321210       -0.34000480651848
H           -1.05016813953944        1.08902310055776        0.27717586108515
H            2.16732243001690        0.70925447580202        1.32827645247857
H            0.84422641567347        1.35281760793698        0.64707214763394

 Bond Distances (Angstroems)
 ---------------------------
N1-C2=1.3552         N1-H8=1.0087         N1-H9=1.0043         C2-N1=1.3552         C2-C3=1.5259         C2-O5=1.2110         
C3-C2=1.5259         C3-N4=1.4553         C3-H6=1.0991         C3-H7=1.0968         N4-C3=1.4553         N4-H10=1.0144        
N4-H11=1.0167        O5-C2=1.2110         H6-C3=1.0991         H7-C3=1.0968         H8-N1=1.0087         H9-N1=1.0043         
H10-N4=1.0144        H11-N4=1.0167        
 C  H  Rav=1.0979 sigma=0.0012  Rmin=1.0968  Rmax=1.0991     2
 C  C  Rav=1.5259 sigma=0.0000  Rmin=1.5259  Rmax=1.5259     1
 N  H  Rav=1.0110 sigma=0.0048  Rmin=1.0043  Rmax=1.0167     4
 N  C  Rav=1.4052 sigma=0.0500  Rmin=1.3552  Rmax=1.4553     2
 O  C  Rav=1.2110 sigma=0.0000  Rmin=1.2110  Rmax=1.2110     1

 selected bond angles (degree)
 --------------------
H8-N1-C2=115.95                H9-N1-C2=121.94                H9-N1-H8=116.29                C3-C2-N1=117.38                
O5-C2-N1=121.83                O5-C2-C3=120.61                N4-C3-C2=115.85                H6-C3-C2=107.06                
H6-C3-N4=114.67                H7-C3-C2=102.88                H7-C3-N4=107.11                H7-C3-H6=108.45                
H10-N4-C3=109.50               H11-N4-C3=110.92               H11-N4-H10=105.93              

 selected dihedral angles (degree)
 ---------------------------------
C3-C2-N1-H8=174.99            C3-C2-N1-H9= 22.88            O5-C2-N1-H8=350.08            O5-C2-N1-H9=197.97            
N4-C3-C2-N1=359.83            N4-C3-C2-O5=184.68            H6-C3-C2-N1=230.50            H6-C3-C2-O5= 55.35            
H7-C3-C2-N1=116.32            H7-C3-C2-O5=301.16            H10-N4-C3-C2=196.20           H10-N4-C3-H6=321.74           
H10-N4-C3-H7= 82.12           H11-N4-C3-C2=312.76           H11-N4-C3-H6= 78.30           H11-N4-C3-H7=198.67           
           -------------------------------------------------
          |                Final Singlepoint                |
           -------------------------------------------------

          ...................................................
          :                      SETUP                      :
          :.................................................:
          :  # basis functions                  26          :
          :  # atomic orbitals                  26          :
          :  # shells                           16          :
          :  # electrons                        30          :
          :  max. iterations                   250          :
          :  Hamiltonian                  GFN2-xTB          :
          :  restarted?                      false          :
          :  GBSA solvation                  false          :
          :  PC potential                    false          :
          :  electronic temp.          300.0000000     K    :
          :  accuracy                    1.0000000          :
          :  -> integral cutoff          0.2500000E+02      :
          :  -> integral neglect         0.1000000E-07      :
          :  -> SCF convergence          0.1000000E-05 Eh   :
          :  -> wf. convergence          0.1000000E-03 e    :
          :  Broyden damping             0.4000000          :
          ...................................................

 iter      E             dE          RMSdq      gap      omega  full diag
   1    -17.4199642 -0.174200E+02  0.258E-05    4.74       0.0  T
   2    -17.4199642 -0.675016E-12  0.140E-05    4.74    2154.2  T
   3    -17.4199642 -0.426326E-13  0.645E-06    4.74    4672.4  T

   *** convergence criteria satisfied after 3 iterations ***

         #    Occupation            Energy/Eh            Energy/eV
      -------------------------------------------------------------
         1        2.0000           -0.6999129             -19.0456
       ...           ...                  ...                  ...
         9        2.0000           -0.5225301             -14.2188
        10        2.0000           -0.5056777             -13.7602
        11        2.0000           -0.4848268             -13.1928
        12        2.0000           -0.4754909             -12.9388
        13        2.0000           -0.4236562             -11.5283
        14        2.0000           -0.3963805             -10.7861
        15        2.0000           -0.3842569             -10.4562 (HOMO)
        16                         -0.2101730              -5.7191 (LUMO)
        17                         -0.0085653              -0.2331
        18                          0.0395220               1.0754
        19                          0.1122853               3.0554
        20                          0.1288901               3.5073
       ...                                ...                  ...
        26                          0.6292657              17.1232
      -------------------------------------------------------------
                  HL-Gap            0.1740839 Eh            4.7371 eV
             Fermi-level           -0.2972149 Eh           -8.0876 eV

 SCC (total)                   0 d,  0 h,  0 min,  0.718 sec
 SCC setup                      ...        0 min,  0.010 sec (  1.450%)
 Dispersion                     ...        0 min,  0.039 sec (  5.496%)
 classical contributions        ...        0 min,  0.030 sec (  4.153%)
 integral evaluation            ...        0 min,  0.093 sec ( 12.884%)
 iterations                     ...        0 min,  0.279 sec ( 38.813%)
 molecular gradient             ...        0 min,  0.267 sec ( 37.141%)
 printout                       ...        0 min,  0.000 sec (  0.022%)

         :::::::::::::::::::::::::::::::::::::::::::::::::::::
         ::                     SUMMARY                     ::
         :::::::::::::::::::::::::::::::::::::::::::::::::::::
         :: total energy             -17.229540889287 Eh    ::
         :: gradient norm              0.000276726623 Eh/a0 ::
         :: HOMO-LUMO gap              4.737063187342 eV    ::
         ::.................................................::
         :: SCC energy               -17.419964182982 Eh    ::
         :: -> isotropic ES            0.051248524249 Eh    ::
         :: -> anisotropic ES          0.005223054881 Eh    ::
         :: -> anisotropic XC          0.008265934487 Eh    ::
         :: -> dispersion             -0.005156042626 Eh    ::
         :: repulsion energy           0.190404189646 Eh    ::
         :: add. restraining           0.000015805143 Eh    ::
         :: total charge               0.000000000000 e     ::
         :::::::::::::::::::::::::::::::::::::::::::::::::::::

           -------------------------------------------------
          |                Property Printout                |
           -------------------------------------------------

    * Orbital Energies and Occupations

         #    Occupation            Energy/Eh            Energy/eV
      -------------------------------------------------------------
         1        2.0000           -0.6999129             -19.0456
       ...           ...                  ...                  ...
         3        2.0000           -0.6452373             -17.5578
         4        2.0000           -0.6100409             -16.6001
         5        2.0000           -0.5864529             -15.9582
         6        2.0000           -0.5725332             -15.5794
         7        2.0000           -0.5491194             -14.9423
         8        2.0000           -0.5382430             -14.6463
         9        2.0000           -0.5225301             -14.2188
        10        2.0000           -0.5056777             -13.7602
        11        2.0000           -0.4848268             -13.1928
        12        2.0000           -0.4754909             -12.9388
        13        2.0000           -0.4236562             -11.5283
        14        2.0000           -0.3963805             -10.7861
        15        2.0000           -0.3842569             -10.4562 (HOMO)
        16                         -0.2101730              -5.7191 (LUMO)
        17                         -0.0085653              -0.2331
        18                          0.0395220               1.0754
        19                          0.1122853               3.0554
        20                          0.1288901               3.5073
        21                          0.1404267               3.8212
        22                          0.1971012               5.3634
        23                          0.2254518               6.1349
        24                          0.2409955               6.5578
        25                          0.3814728              10.3804
        26                          0.6292657              17.1232
      -------------------------------------------------------------
                  HL-Gap            0.1740839 Eh            4.7371 eV
             Fermi-level           -0.2972149 Eh           -8.0876 eV

     #   Z          covCN         q      C6AA      α(0)
     1   7 N        2.636    -0.267    26.925     7.706
     2   6 C        2.741     0.279    22.278     7.728
     3   6 C        3.732    -0.013    20.907     6.526
     4   7 N        2.628    -0.339    28.741     7.962
     5   8 O        0.859    -0.431    22.308     6.333
     6   1 H        0.923     0.040     2.448     2.447
     7   1 H        0.924     0.074     2.038     2.233
     8   1 H        0.860     0.193     1.141     1.673
     9   1 H        0.860     0.184     1.189     1.708
    10   1 H        0.860     0.146     1.428     1.872
    11   1 H        0.860     0.134     1.517     1.930

 Mol. C6AA /au·bohr⁶  :       1028.290447
 Mol. C8AA /au·bohr⁸  :      21539.984985
 Mol. α(0) /au        :         48.117159


Wiberg/Mayer (AO) data.
largest (>0.10) Wiberg bond orders for each atom

 ---------------------------------------------------------------------------
     #   Z sym  total        # sym  WBO       # sym  WBO       # sym  WBO
 ---------------------------------------------------------------------------
     1   7 N    3.356 --     2 C    1.244     8 H    0.942     9 H    0.938
                             5 O    0.192
     2   6 C    3.949 --     5 O    1.706     1 N    1.244     3 C    0.963
     3   6 C    3.984 --     4 N    1.027     2 C    0.963     6 H    0.955
                             7 H    0.949
     4   7 N    2.997 --     3 C    1.027    10 H    0.965    11 H    0.959
     5   8 O    2.008 --     2 C    1.706     1 N    0.192
     6   1 H    0.998 --     3 C    0.955
     7   1 H    0.994 --     3 C    0.949
     8   1 H    0.963 --     1 N    0.942
     9   1 H    0.966 --     1 N    0.938
    10   1 H    0.979 --     4 N    0.965
    11   1 H    0.982 --     4 N    0.959
 ---------------------------------------------------------------------------

Topologies differ in total number of bonds
Writing topology from bond orders to xtbtopo.mol

molecular dipole:
                 x           y           z       tot (Debye)
 q only:        0.202       1.337       0.227
   full:        0.438       1.670      -0.114       4.399
molecular quadrupole (traceless):
                xx          xy          yy          xz          yz          zz
 q only:        5.070      -3.961      -4.239       0.225      -2.658      -0.831
  q+dip:        7.857      -4.584      -5.191       0.173      -4.299      -2.666
   full:        7.577      -4.426      -5.002       0.225      -4.338      -2.575

           -------------------------------------------------
          |                Geometry Summary                 |
           -------------------------------------------------

      molecular mass/u    :       74.0819276
   center of mass at/Å    :       -0.1077140      -0.5253556       0.2649937
  moments of inertia/u·Å² :        0.5200578E+02   0.1267802E+03   0.1744911E+03
rotational constants/cm⁻¹ :        0.3241492E+00   0.1329674E+00   0.9661026E-01

 * 9 selected distances

     #   Z          #   Z                                           value/Å
     1   7 N        2   6 C                                       1.3551928
     3   6 C        4   7 N                                       1.4552784 (max)
     2   6 C        5   8 O                                       1.2110455
     3   6 C        6   1 H                                       1.0991132
     3   6 C        7   1 H                                       1.0967677
     1   7 N        8   1 H                                       1.0087154
     1   7 N        9   1 H                                       1.0043248 (min)
     4   7 N       10   1 H                                       1.0144367
     4   7 N       11   1 H                                       1.0166579

 * 4 distinct bonds (by element types)

   Z      Z             #   av. dist./Å        max./Å        min./Å
   1 H    6 C           2     1.0979405     1.0991132     1.0967677
   1 H    7 N           4     1.0110337     1.0166579     1.0043248
   6 C    7 N           2     1.4052356     1.4552784     1.3551928
   6 C    8 O           1     1.2110455     1.2110455     1.2110455


optimized geometry written to: xtbopt.xyz


           -------------------------------------------------
          | TOTAL ENERGY              -17.229540889287 Eh   |
          | GRADIENT NORM               0.000276726623 Eh/α |
          | HOMO-LUMO GAP               4.737063187342 eV   |
           -------------------------------------------------
########################################################################
[WARNING] Runtime exception occurred
-1- restart_readRestart: Number of electron missmatch in restart file.
########################################################################

------------------------------------------------------------------------
 * finished run on 2023/11/18 at 08:08:51.973     
------------------------------------------------------------------------
 total:
 * wall-time:     0 d,  0 h,  0 min, 10.370 sec
 *  cpu-time:     0 d,  0 h,  4 min, 14.152 sec
 * ratio c/w:    24.509 speedup
 SCF:
 * wall-time:     0 d,  0 h,  0 min,  1.557 sec
 *  cpu-time:     0 d,  0 h,  0 min, 30.337 sec
 * ratio c/w:    19.482 speedup
 ANC optimizer:
 * wall-time:     0 d,  0 h,  0 min,  8.414 sec
 *  cpu-time:     0 d,  0 h,  3 min, 38.586 sec
 * ratio c/w:    25.979 speedup

