      -----------------------------------------------------------      
     |                   =====================                   |     
     |                           x T B                           |     
     |                   =====================                   |     
     |                         S. Grimme                         |     
     |          Mulliken Center for Theoretical Chemistry        |     
     |                    University of Bonn                     |     
      -----------------------------------------------------------      

   * xtb version 6.5.0 (97a52f5) compiled by 'conda@d2599ee0d4f4' on 2022-05-15

   xtb is free software: you can redistribute it and/or modify it under
   the terms of the GNU Lesser General Public License as published by
   the Free Software Foundation, either version 3 of the License, or
   (at your option) any later version.
   
   xtb is distributed in the hope that it will be useful,
   but WITHOUT ANY WARRANTY; without even the implied warranty of
   MERCHANTABILITY or FITNESS FOR A PARTICULAR PURPOSE.  See the
   GNU Lesser General Public License for more details.
   
   Cite this work as:
   * C. Bannwarth, E. Caldeweyher, S. Ehlert, A. Hansen, P. Pracht,
     J. Seibert, S. Spicher, S. Grimme, WIREs Comput. Mol. Sci., 2020, 11,
     e01493. DOI: 10.1002/wcms.1493
   
   for GFN2-xTB:
   * C. Bannwarth, S. Ehlert and S. Grimme., J. Chem. Theory Comput., 2019,
     15, 1652-1671. DOI: 10.1021/acs.jctc.8b01176
   for GFN1-xTB:
   * S. Grimme, C. Bannwarth, P. Shushkov, J. Chem. Theory Comput., 2017,
     13, 1989-2009. DOI: 10.1021/acs.jctc.7b00118
   for GFN0-xTB:
   * P. Pracht, E. Caldeweyher, S. Ehlert, S. Grimme, ChemRxiv, 2019, preprint.
     DOI: 10.26434/chemrxiv.8326202.v1
   for GFN-FF:
   * S. Spicher and S. Grimme, Angew. Chem. Int. Ed., 2020, 59, 15665-15673.
     DOI: 10.1002/anie.202004239
   
   for ALPB and GBSA implicit solvation:
   * S. Ehlert, M. Stahn, S. Spicher, S. Grimme, J. Chem. Theory Comput.,
     2021, 17, 4250-4261. DOI: 10.1021/acs.jctc.1c00471
   
   for DFT-D4:
   * E. Caldeweyher, C. Bannwarth and S. Grimme, J. Chem. Phys., 2017,
     147, 034112. DOI: 10.1063/1.4993215
   * E. Caldeweyher, S. Ehlert, A. Hansen, H. Neugebauer, S. Spicher,
     C. Bannwarth and S. Grimme, J. Chem. Phys., 2019, 150, 154122.
     DOI: 10.1063/1.5090222
   * E. Caldeweyher, J.-M. Mewes, S. Ehlert and S. Grimme, Phys. Chem. Chem. Phys.
     2020, 22, 8499-8512. DOI: 10.1039/D0CP00502A
   
   for sTDA-xTB:
   * S. Grimme and C. Bannwarth, J. Chem. Phys., 2016, 145, 054103.
     DOI: 10.1063/1.4959605
   
   in the mass-spec context:
   * V. Asgeirsson, C. Bauer and S. Grimme, Chem. Sci., 2017, 8, 4879.
     DOI: 10.1039/c7sc00601b
   * J. Koopman and S. Grimme, ACS Omega 2019, 4, 12, 15120-15133.
     DOI: 10.1021/acsomega.9b02011
   
   for metadynamics refer to:
   * S. Grimme, J. Chem. Theory Comput., 2019, 155, 2847-2862
     DOI: 10.1021/acs.jctc.9b00143
   
   for SPH calculations refer to:
   * S. Spicher and S. Grimme, J. Chem. Theory Comput., 2021, 17, 1701-1714
     DOI: 10.1021/acs.jctc.0c01306
   
   with help from (in alphabetical order)
   P. Atkinson, C. Bannwarth, F. Bohle, G. Brandenburg, E. Caldeweyher
   M. Checinski, S. Dohm, S. Ehlert, S. Ehrlich, I. Gerasimov, C. Hölzer
   A. Katbashev, J. Koopman, C. Lavigne, S. Lehtola, F. März, M. Müller,
   F. Musil, H. Neugebauer, J. Pisarek, C. Plett, P. Pracht, F. Pultar,
   J. Seibert, P. Shushkov, S. Spicher, M. Stahn, M. Steiner, T. Strunk,
   J. Stückrath, T. Rose, and J. Unsleber
   
 * started run on 2023/11/18 at 08:08:58.259     

           -------------------------------------------------
          |                Calculation Setup                |
           -------------------------------------------------

          program call               : /home/liuchw/anaconda3/envs/xtbenv/bin/xtb --gfn 2 --chrg 0 --uhf 0 25_27_Index_0-opt-2-3-030_preQMOPTprefit_xyzformat.xyz --opt --input xtb-opt-2-3-030_constr.txt
          hostname                   : node165.bme.utexas.edu
          coordinate file            : 25_27_Index_0-opt-2-3-030_preQMOPTprefit_xyzformat.xyz
          omp threads                :                    64

   ID    Z sym.   atoms
    1    7 N      1, 4
    2    6 C      2, 3
    3    8 O      5
    4    1 H      6-11
constraining angle 1 2 3 4 to   30.0923882°, actual value:   30.0923882°
constraining angle 8 1 2 3 to  175.0185611°, actual value:  175.0185611°
constraining angle 8 1 2 5 to  350.0291640°, actual value:   -9.9708360°
constraining angle 9 1 2 5 to  197.9979669°, actual value: -162.0020331°
constraining angle 9 1 2 3 to   22.9873640°, actual value:   22.9873640°
constraining angle 6 3 4 11 to   78.3262521°, actual value:   78.3262521°
constraining angle 7 3 4 11 to  198.7684981°, actual value: -161.2315019°
constraining angle 6 3 4 10 to  321.7345360°, actual value:  -38.2654640°
constraining angle 7 3 4 10 to   82.1767820°, actual value:   82.1767820°

           -------------------------------------------------
          |                 G F N 2 - x T B                 |
           -------------------------------------------------

        Reference                      10.1021/acs.jctc.8b01176
      * Hamiltonian:
        H0-scaling (s, p, d)           1.850000    2.230000    2.230000
        zeta-weighting                 0.500000
      * Dispersion:
        s8                             2.700000
        a1                             0.520000
        a2                             5.000000
        s9                             5.000000
      * Repulsion:
        kExp                           1.500000    1.000000
        rExp                           1.000000
      * Coulomb:
        alpha                          2.000000
        third order                    shell-resolved
        anisotropic                    true
        a3                             3.000000
        a5                             4.000000
        cn-shift                       1.200000
        cn-exp                         4.000000
        max-rad                        5.000000

q/qsh data taken from xtbrestart
CAMM data taken from xtbrestart

          ...................................................
          :                      SETUP                      :
          :.................................................:
          :  # basis functions                  26          :
          :  # atomic orbitals                  26          :
          :  # shells                           16          :
          :  # electrons                        30          :
          :  max. iterations                   250          :
          :  Hamiltonian                  GFN2-xTB          :
          :  restarted?                       true          :
          :  GBSA solvation                  false          :
          :  PC potential                    false          :
          :  electronic temp.          300.0000000     K    :
          :  accuracy                    1.0000000          :
          :  -> integral cutoff          0.2500000E+02      :
          :  -> integral neglect         0.1000000E-07      :
          :  -> SCF convergence          0.1000000E-05 Eh   :
          :  -> wf. convergence          0.1000000E-03 e    :
          :  Broyden damping             0.4000000          :
          ...................................................

 iter      E             dE          RMSdq      gap      omega  full diag
   1    -17.4010074 -0.174010E+02  0.128E+00    4.28       0.0  T
   2    -17.4011484 -0.141005E-03  0.752E-01    4.29       1.0  T
   3    -17.4011435  0.487054E-05  0.886E-02    4.23       1.0  T
   4    -17.4012017 -0.582448E-04  0.325E-02    4.25       1.0  T
   5    -17.4012026 -0.908445E-06  0.118E-02    4.25       2.5  T
   6    -17.4012029 -0.285636E-06  0.428E-03    4.25       7.0  T
   7    -17.4012029 -0.190843E-07  0.128E-03    4.25      23.6  T
   8    -17.4012029 -0.120427E-08  0.344E-04    4.25      87.8  T
   9    -17.4012030 -0.109939E-09  0.711E-05    4.25     424.2  T

   *** convergence criteria satisfied after 9 iterations ***

         #    Occupation            Energy/Eh            Energy/eV
      -------------------------------------------------------------
         1        2.0000           -0.6952517             -18.9188
       ...           ...                  ...                  ...
         9        2.0000           -0.5184411             -14.1075
        10        2.0000           -0.5047649             -13.7354
        11        2.0000           -0.4837910             -13.1646
        12        2.0000           -0.4771024             -12.9826
        13        2.0000           -0.4263016             -11.6003
        14        2.0000           -0.3976760             -10.8213
        15        2.0000           -0.3814965             -10.3810 (HOMO)
        16                         -0.2252740              -6.1300 (LUMO)
        17                         -0.0190528              -0.5185
        18                          0.0264776               0.7205
        19                          0.0900040               2.4491
        20                          0.1223791               3.3301
       ...                                ...                  ...
        26                          0.5473998              14.8955
      -------------------------------------------------------------
                  HL-Gap            0.1562225 Eh            4.2510 eV
             Fermi-level           -0.3033852 Eh           -8.2555 eV

 SCC (total)                   0 d,  0 h,  0 min,  1.176 sec
 SCC setup                      ...        0 min,  0.015 sec (  1.242%)
 Dispersion                     ...        0 min,  0.053 sec (  4.505%)
 classical contributions        ...        0 min,  0.041 sec (  3.506%)
 integral evaluation            ...        0 min,  0.089 sec (  7.602%)
 iterations                     ...        0 min,  0.780 sec ( 66.336%)
 molecular gradient             ...        0 min,  0.197 sec ( 16.768%)
 printout                       ...        0 min,  0.000 sec (  0.013%)

         :::::::::::::::::::::::::::::::::::::::::::::::::::::
         ::                     SUMMARY                     ::
         :::::::::::::::::::::::::::::::::::::::::::::::::::::
         :: total energy             -17.224655031619 Eh    ::
         :: gradient norm              0.060427586475 Eh/a0 ::
         :: HOMO-LUMO gap              4.251029648405 eV    ::
         ::.................................................::
         :: SCC energy               -17.401202950041 Eh    ::
         :: -> isotropic ES            0.051340906524 Eh    ::
         :: -> anisotropic ES          0.006281538797 Eh    ::
         :: -> anisotropic XC          0.008680339602 Eh    ::
         :: -> dispersion             -0.005146446725 Eh    ::
         :: repulsion energy           0.176544262571 Eh    ::
         :: add. restraining           0.000000000000 Eh    ::
         :: total charge              -0.000000000000 e     ::
         :::::::::::::::::::::::::::::::::::::::::::::::::::::

      ----------------------------------------------------------- 
     |                   =====================                   |
     |                        A N C O P T                        |
     |                   =====================                   |
     |               Approximate Normal Coordinate               |
     |                Rational Function Optimizer                |
      ----------------------------------------------------------- 

          ...................................................
          :                      SETUP                      :
          :.................................................:
          :   optimization level            normal          :
          :   max. optcycles                   200          :
          :   ANC micro-cycles                  20          :
          :   degrees of freedom                27          :
          :.................................................:
          :   RF solver                   davidson          :
          :   write xtbopt.log                true          :
          :   linear?                        false          :
          :   energy convergence         0.5000000E-05 Eh   :
          :   grad. convergence          0.1000000E-02 Eh/α :
          :   maximium RF displ.         1.0000000          :
          :   Hlow (freq-cutoff)         0.1000000E-01      :
          :   Hmax (freq-cutoff)         5.0000000          :
          :   S6 in model hess.         20.0000000          :
          ...................................................

generating ANC from model Hessian ...
Using Lindh-Hessian (1995)
 Shifting diagonal of input Hessian by    8.1437438981742626E-004
 Lowest  eigenvalues of input Hessian
    0.000000    0.000000    0.000000    0.000000    0.000000    0.000000
    0.010000    0.024598    0.050414    0.062866    0.071027    0.097309
    0.114529    0.131551    0.227369    0.247926    0.394226    0.432919
 Highest eigenvalues
    5.874235    8.531465    9.106243   11.727893   14.130301   26.336836


........................................................................
.............................. CYCLE    1 ..............................
........................................................................
   1    -17.4012030 -0.174012E+02  0.195E-05    4.25       0.0  T
   2    -17.4012030 -0.358824E-12  0.107E-05    4.25    2808.0  T
   3    -17.4012030 -0.497380E-13  0.255E-06    4.25   11810.6  T
     SCC iter.                  ...        0 min,  0.257 sec
     gradient                   ...        0 min,  0.205 sec
 * total energy  :   -17.2246550 Eh     change       -0.4302336E-11 Eh
   gradient norm :     0.0604275 Eh/α   predicted     0.0000000E+00 (-100.00%)
   displ. norm   :     0.1925486 α      lambda       -0.5238006E-02
   maximum displ.:     0.1129653 α      in ANC's #3, #5, #8, ...

........................................................................
.............................. CYCLE    2 ..............................
........................................................................
   1    -17.4153513 -0.174154E+02  0.285E-01    4.51       0.0  T
   2    -17.4154137 -0.623548E-04  0.166E-01    4.47       1.0  T
   3    -17.4154102  0.345648E-05  0.579E-02    4.48       1.0  T
   4    -17.4154223 -0.120556E-04  0.881E-03    4.46       3.4  T
   5    -17.4154225 -0.229726E-06  0.424E-03    4.47       7.1  T
   6    -17.4154225 -0.247548E-07  0.118E-03    4.47      25.5  T
   7    -17.4154226 -0.916604E-09  0.330E-04    4.47      91.3  T
   8    -17.4154226 -0.153463E-09  0.129E-04    4.47     234.3  T
     SCC iter.                  ...        0 min,  0.623 sec
     gradient                   ...        0 min,  0.190 sec
 * total energy  :   -17.2276459 Eh     change       -0.2990856E-02 Eh
   gradient norm :     0.0634710 Eh/α   predicted    -0.2716106E-02 (  -9.19%)
   displ. norm   :     0.0905056 α      lambda       -0.1289930E-02
   maximum displ.:     0.0480289 α      in ANC's #3, #1, #8, ...

........................................................................
.............................. CYCLE    3 ..............................
........................................................................
   1    -17.4203142 -0.174203E+02  0.105E-01    4.57       0.0  T
   2    -17.4203278 -0.135738E-04  0.614E-02    4.55       1.0  T
   3    -17.4203281 -0.279502E-06  0.232E-02    4.56       1.3  T
   4    -17.4203291 -0.986079E-06  0.424E-03    4.55       7.1  T
   5    -17.4203291 -0.566583E-07  0.196E-03    4.55      15.4  T
   6    -17.4203292 -0.729158E-08  0.576E-04    4.55      52.3  T
   7    -17.4203292 -0.182261E-09  0.184E-04    4.55     164.0  T
     SCC iter.                  ...        0 min,  0.502 sec
     gradient                   ...        0 min,  0.204 sec
 * total energy  :   -17.2264538 Eh     change        0.1192079E-02 Eh
   gradient norm :     0.2638778 Eh/α   predicted    -0.6502446E-03 (-154.55%)
   displ. norm   :     0.0287501 α      lambda       -0.2936314E-02
   maximum displ.:     0.0130842 α      in ANC's #5, #22, #1, ...

........................................................................
.............................. CYCLE    4 ..............................
........................................................................
   1    -17.4188441 -0.174188E+02  0.430E-02    4.53       0.0  T
   2    -17.4188449 -0.829101E-06  0.255E-02    4.53       1.2  T
   3    -17.4188448  0.122902E-06  0.703E-03    4.53       4.3  T
   4    -17.4188451 -0.298021E-06  0.161E-03    4.54      18.8  T
   5    -17.4188451 -0.253644E-08  0.609E-04    4.53      49.5  T
   6    -17.4188451 -0.355513E-09  0.233E-04    4.53     129.2  T
     SCC iter.                  ...        0 min,  0.493 sec
     gradient                   ...        0 min,  0.194 sec
 * total energy  :   -17.2278725 Eh     change       -0.1418672E-02 Eh
   gradient norm :     0.0304706 Eh/α   predicted    -0.1469370E-02 (   3.57%)
   displ. norm   :     0.0334624 α      lambda       -0.2021056E-03
   maximum displ.:     0.0267126 α      in ANC's #1, #5, #3, ...

........................................................................
.............................. CYCLE    5 ..............................
........................................................................
   1    -17.4174519 -0.174175E+02  0.252E-02    4.50       0.0  T
   2    -17.4174525 -0.553507E-06  0.150E-02    4.51       2.0  T
   3    -17.4174525  0.241393E-07  0.588E-03    4.51       5.1  T
   4    -17.4174526 -0.123638E-06  0.807E-04    4.51      37.4  T
   5    -17.4174526 -0.110484E-08  0.428E-04    4.51      70.4  T
     SCC iter.                  ...        0 min,  0.419 sec
     gradient                   ...        0 min,  0.200 sec
 * total energy  :   -17.2278109 Eh     change        0.6156742E-04 Eh
   gradient norm :     0.0528307 Eh/α   predicted    -0.1011637E-03 (-264.31%)
   displ. norm   :     0.0130849 α      lambda       -0.2130835E-03
   maximum displ.:     0.0106439 α      in ANC's #1, #5, #27, ...

........................................................................
.............................. CYCLE    6 ..............................
........................................................................
   1    -17.4180308 -0.174180E+02  0.898E-03    4.52       0.0  T
   2    -17.4180309 -0.993229E-07  0.520E-03    4.52       5.8  T
   3    -17.4180309 -0.198589E-08  0.208E-03    4.52      14.5  T
   4    -17.4180309 -0.712527E-08  0.362E-04    4.52      83.3  T
   5    -17.4180309 -0.485251E-09  0.184E-04    4.52     163.7  T
     SCC iter.                  ...        0 min,  0.356 sec
     gradient                   ...        0 min,  0.222 sec
 * total energy  :   -17.2279156 Eh     change       -0.1046414E-03 Eh
   gradient norm :     0.0053519 Eh/α   predicted    -0.1065611E-03 (   1.83%)
   displ. norm   :     0.0042948 α      lambda       -0.6636237E-05
   maximum displ.:     0.0032308 α      in ANC's #1, #4, #8, ...

........................................................................
.............................. CYCLE    7 ..............................
........................................................................
   1    -17.4181366 -0.174181E+02  0.443E-03    4.52       0.0  T
   2    -17.4181367 -0.308184E-07  0.245E-03    4.52      12.3  T
   3    -17.4181367 -0.110558E-08  0.983E-04    4.52      30.7  T
   4    -17.4181367 -0.613458E-09  0.177E-04    4.52     170.8  T
     SCC iter.                  ...        0 min,  0.442 sec
     gradient                   ...        0 min,  0.289 sec
 * total energy  :   -17.2279158 Eh     change       -0.2007930E-06 Eh
   gradient norm :     0.0062358 Eh/α   predicted    -0.3318168E-05 (1552.53%)
   displ. norm   :     0.0020162 α      lambda       -0.3779324E-05
   maximum displ.:     0.0011622 α      in ANC's #1, #3, #5, ...

........................................................................
.............................. CYCLE    8 ..............................
........................................................................
   1    -17.4181044 -0.174181E+02  0.233E-03    4.52       0.0  T
   2    -17.4181044 -0.379430E-08  0.130E-03    4.52      23.2  T
   3    -17.4181044 -0.235438E-10  0.388E-04    4.52      77.7  T
   4    -17.4181044 -0.290825E-09  0.646E-05    4.52     466.4  T
     SCC iter.                  ...        0 min,  0.442 sec
     gradient                   ...        0 min,  0.300 sec
 * total energy  :   -17.2279177 Eh     change       -0.1978625E-05 Eh
   gradient norm :     0.0007251 Eh/α   predicted    -0.1890249E-05 (  -4.47%)
   displ. norm   :     0.0023465 α      lambda       -0.2535502E-06
   maximum displ.:     0.0016272 α      in ANC's #1, #3, #9, ...

   *** GEOMETRY OPTIMIZATION CONVERGED AFTER 8 ITERATIONS ***

------------------------------------------------------------------------
 total energy gain   :        -0.0032627 Eh       -2.0474 kcal/mol
 total RMSD          :         0.0708021 a0        0.0375 Å
 total power (kW/mol):        -1.0707777 (step)   -1.2468 (real)
------------------------------------------------------------------------

 ANCopt (total)                0 d,  0 h,  0 min,  6.870 sec
 optimizer setup                ...        0 min,  0.000 sec (  0.005%)
 model hessian                  ...        0 min,  0.003 sec (  0.037%)
 ANC generation                 ...        0 min,  0.000 sec (  0.005%)
 coordinate transformation      ...        0 min,  0.000 sec (  0.002%)
 single point calculation       ...        0 min,  6.672 sec ( 97.106%)
 optimization log               ...        0 min,  0.014 sec (  0.208%)
 hessian update                 ...        0 min,  0.179 sec (  2.607%)
 rational function              ...        0 min,  0.001 sec (  0.015%)

================
 final structure:
================
11
 xtb: 6.5.0 (97a52f5)
N           -1.29177183559519        0.21088988851428       -0.02166578440265
C           -0.51724266427686       -0.90003674537612        0.08500263933091
C            0.93581172470666       -0.69054403453736        0.50320854174237
N            1.17382428784841        0.45779972420597        1.36527510600213
O           -0.97882895389873       -2.00906739228753       -0.05501067392308
H            1.51964099693567       -0.66973349740203       -0.43340331855575
H            1.20577084783570       -1.59180639013357        1.06028347136568
H           -2.22584363467658        0.06793932622346       -0.37361541617816
H           -0.89504102080175        1.12210674355328       -0.17266959984513
H            2.15756522467661        0.70625820181754        1.33188133318746
H            0.67151702724605        1.27789716542209        1.04109468127621

 Bond Distances (Angstroems)
 ---------------------------
N1-C2=1.3585         N1-H8=1.0084         N1-H9=1.0052         C2-N1=1.3585         C2-C3=1.5265         C2-O5=1.2094         
C3-C2=1.5265         C3-N4=1.4555         C3-H6=1.1039         C3-H7=1.0934         N4-C3=1.4555         N4-H10=1.0152        
N4-H11=1.0149        O5-C2=1.2094         H6-C3=1.1039         H7-C3=1.0934         H8-N1=1.0084         H9-N1=1.0052         
H10-N4=1.0152        H11-N4=1.0149        
 C  H  Rav=1.0986 sigma=0.0052  Rmin=1.0934  Rmax=1.1039     2
 C  C  Rav=1.5265 sigma=0.0000  Rmin=1.5265  Rmax=1.5265     1
 N  H  Rav=1.0109 sigma=0.0043  Rmin=1.0052  Rmax=1.0152     4
 N  C  Rav=1.4070 sigma=0.0485  Rmin=1.3585  Rmax=1.4555     2
 O  C  Rav=1.2094 sigma=0.0000  Rmin=1.2094  Rmax=1.2094     1

 selected bond angles (degree)
 --------------------
H8-N1-C2=116.08                H9-N1-C2=121.87                H9-N1-H8=116.21                C3-C2-N1=116.87                
O5-C2-N1=121.55                O5-C2-C3=121.39                N4-C3-C2=115.23                H6-C3-C2=105.88                
H6-C3-N4=113.65                H7-C3-C2=105.16                H7-C3-N4=107.95                H7-C3-H6=108.50                
H10-N4-C3=109.39               H11-N4-C3=111.56               H11-N4-H10=105.74              

 selected dihedral angles (degree)
 ---------------------------------
C3-C2-N1-H8=174.99            C3-C2-N1-H9= 22.94            O5-C2-N1-H8=350.08            O5-C2-N1-H9=198.02            
N4-C3-C2-N1= 30.10            N4-C3-C2-O5=215.01            H6-C3-C2-N1=263.59            H6-C3-C2-O5= 88.49            
H7-C3-C2-N1=148.83            H7-C3-C2-O5=333.74            H10-N4-C3-C2=199.27           H10-N4-C3-H6=321.72           
H10-N4-C3-H7= 82.12           H11-N4-C3-C2=315.91           H11-N4-C3-H6= 78.36           H11-N4-C3-H7=198.75           
           -------------------------------------------------
          |                Final Singlepoint                |
           -------------------------------------------------

          ...................................................
          :                      SETUP                      :
          :.................................................:
          :  # basis functions                  26          :
          :  # atomic orbitals                  26          :
          :  # shells                           16          :
          :  # electrons                        30          :
          :  max. iterations                   250          :
          :  Hamiltonian                  GFN2-xTB          :
          :  restarted?                      false          :
          :  GBSA solvation                  false          :
          :  PC potential                    false          :
          :  electronic temp.          300.0000000     K    :
          :  accuracy                    1.0000000          :
          :  -> integral cutoff          0.2500000E+02      :
          :  -> integral neglect         0.1000000E-07      :
          :  -> SCF convergence          0.1000000E-05 Eh   :
          :  -> wf. convergence          0.1000000E-03 e    :
          :  Broyden damping             0.4000000          :
          ...................................................

 iter      E             dE          RMSdq      gap      omega  full diag
   1    -17.4181044 -0.174181E+02  0.287E-05    4.52       0.0  T
   2    -17.4181044 -0.153833E-11  0.157E-05    4.52    1920.2  T
   3    -17.4181044 -0.259348E-12  0.846E-06    4.52    3563.3  T

   *** convergence criteria satisfied after 3 iterations ***

         #    Occupation            Energy/Eh            Energy/eV
      -------------------------------------------------------------
         1        2.0000           -0.7019056             -19.0998
       ...           ...                  ...                  ...
         9        2.0000           -0.5198555             -14.1460
        10        2.0000           -0.5080216             -13.8240
        11        2.0000           -0.4862279             -13.2309
        12        2.0000           -0.4748673             -12.9218
        13        2.0000           -0.4269106             -11.6168
        14        2.0000           -0.3987037             -10.8493
        15        2.0000           -0.3808330             -10.3630 (HOMO)
        16                         -0.2148159              -5.8454 (LUMO)
        17                         -0.0090577              -0.2465
        18                          0.0421593               1.1472
        19                          0.1080999               2.9415
        20                          0.1311361               3.5684
       ...                                ...                  ...
        26                          0.6316531              17.1882
      -------------------------------------------------------------
                  HL-Gap            0.1660171 Eh            4.5176 eV
             Fermi-level           -0.2978244 Eh           -8.1042 eV

 SCC (total)                   0 d,  0 h,  0 min,  0.974 sec
 SCC setup                      ...        0 min,  0.024 sec (  2.454%)
 Dispersion                     ...        0 min,  0.053 sec (  5.400%)
 classical contributions        ...        0 min,  0.028 sec (  2.884%)
 integral evaluation            ...        0 min,  0.078 sec (  7.981%)
 iterations                     ...        0 min,  0.454 sec ( 46.543%)
 molecular gradient             ...        0 min,  0.338 sec ( 34.682%)
 printout                       ...        0 min,  0.000 sec (  0.016%)

         :::::::::::::::::::::::::::::::::::::::::::::::::::::
         ::                     SUMMARY                     ::
         :::::::::::::::::::::::::::::::::::::::::::::::::::::
         :: total energy             -17.227917733252 Eh    ::
         :: gradient norm              0.000725161014 Eh/a0 ::
         :: HOMO-LUMO gap              4.517554004160 eV    ::
         ::.................................................::
         :: SCC energy               -17.418104409274 Eh    ::
         :: -> isotropic ES            0.050112210494 Eh    ::
         :: -> anisotropic ES          0.006200556174 Eh    ::
         :: -> anisotropic XC          0.008275325021 Eh    ::
         :: -> dispersion             -0.005176516845 Eh    ::
         :: repulsion energy           0.190174573399 Eh    ::
         :: add. restraining           0.000008740094 Eh    ::
         :: total charge               0.000000000000 e     ::
         :::::::::::::::::::::::::::::::::::::::::::::::::::::

           -------------------------------------------------
          |                Property Printout                |
           -------------------------------------------------

    * Orbital Energies and Occupations

         #    Occupation            Energy/Eh            Energy/eV
      -------------------------------------------------------------
         1        2.0000           -0.7019056             -19.0998
       ...           ...                  ...                  ...
         3        2.0000           -0.6456237             -17.5683
         4        2.0000           -0.6097960             -16.5934
         5        2.0000           -0.5901599             -16.0591
         6        2.0000           -0.5729592             -15.5910
         7        2.0000           -0.5505413             -14.9810
         8        2.0000           -0.5412223             -14.7274
         9        2.0000           -0.5198555             -14.1460
        10        2.0000           -0.5080216             -13.8240
        11        2.0000           -0.4862279             -13.2309
        12        2.0000           -0.4748673             -12.9218
        13        2.0000           -0.4269106             -11.6168
        14        2.0000           -0.3987037             -10.8493
        15        2.0000           -0.3808330             -10.3630 (HOMO)
        16                         -0.2148159              -5.8454 (LUMO)
        17                         -0.0090577              -0.2465
        18                          0.0421593               1.1472
        19                          0.1080999               2.9415
        20                          0.1311361               3.5684
        21                          0.1342516               3.6532
        22                          0.1980923               5.3904
        23                          0.2245444               6.1102
        24                          0.2439543               6.6383
        25                          0.3687599              10.0345
        26                          0.6316531              17.1882
      -------------------------------------------------------------
                  HL-Gap            0.1660171 Eh            4.5176 eV
             Fermi-level           -0.2978244 Eh           -8.1042 eV

     #   Z          covCN         q      C6AA      α(0)
     1   7 N        2.636    -0.269    26.961     7.712
     2   6 C        2.741     0.281    22.241     7.722
     3   6 C        3.732    -0.012    20.880     6.522
     4   7 N        2.628    -0.336    28.663     7.951
     5   8 O        0.859    -0.421    22.094     6.302
     6   1 H        0.923     0.031     2.579     2.512
     7   1 H        0.924     0.074     2.038     2.233
     8   1 H        0.860     0.194     1.137     1.670
     9   1 H        0.860     0.176     1.236     1.741
    10   1 H        0.860     0.144     1.440     1.880
    11   1 H        0.860     0.137     1.493     1.914

 Mol. C6AA /au·bohr⁶  :       1029.750523
 Mol. C8AA /au·bohr⁸  :      21551.310747
 Mol. α(0) /au        :         48.158473


Wiberg/Mayer (AO) data.
largest (>0.10) Wiberg bond orders for each atom

 ---------------------------------------------------------------------------
     #   Z sym  total        # sym  WBO       # sym  WBO       # sym  WBO
 ---------------------------------------------------------------------------
     1   7 N    3.349 --     2 C    1.234     9 H    0.943     8 H    0.941
                             5 O    0.191
     2   6 C    3.947 --     5 O    1.720     1 N    1.234     3 C    0.960
     3   6 C    3.985 --     4 N    1.026     7 H    0.963     2 C    0.960
                             6 H    0.950
     4   7 N    2.999 --     3 C    1.026    10 H    0.966    11 H    0.959
     5   8 O    2.019 --     2 C    1.720     1 N    0.191
     6   1 H    0.999 --     3 C    0.950
     7   1 H    0.994 --     3 C    0.963
     8   1 H    0.962 --     1 N    0.941
     9   1 H    0.969 --     1 N    0.943
    10   1 H    0.979 --     4 N    0.966
    11   1 H    0.981 --     4 N    0.959
 ---------------------------------------------------------------------------

Topologies differ in total number of bonds
Writing topology from bond orders to xtbtopo.mol

molecular dipole:
                 x           y           z       tot (Debye)
 q only:        0.297       1.396      -0.217
   full:        0.482       1.807      -0.682       5.061
molecular quadrupole (traceless):
                xx          xy          yy          xz          yz          zz
 q only:        4.411      -4.493      -4.171       1.001      -0.593      -0.240
  q+dip:        6.874      -5.020      -4.765       0.812      -1.453      -2.109
   full:        6.670      -4.969      -4.795       0.770      -1.146      -1.874

           -------------------------------------------------
          |                Geometry Summary                 |
           -------------------------------------------------

      molecular mass/u    :       74.0819276
   center of mass at/Å    :       -0.1327244      -0.5529268       0.3709043
  moments of inertia/u·Å² :        0.5365174E+02   0.1267212E+03   0.1716597E+03
rotational constants/cm⁻¹ :        0.3142048E+00   0.1330293E+00   0.9820377E-01

 * 9 selected distances

     #   Z          #   Z                                           value/Å
     1   7 N        2   6 C                                       1.3584668
     3   6 C        4   7 N                                       1.4555077 (max)
     2   6 C        5   8 O                                       1.2093862
     3   6 C        6   1 H                                       1.1038712
     3   6 C        7   1 H                                       1.0933821
     1   7 N        8   1 H                                       1.0083619
     1   7 N        9   1 H                                       1.0052432 (min)
     4   7 N       10   1 H                                       1.0151814
     4   7 N       11   1 H                                       1.0148722

 * 4 distinct bonds (by element types)

   Z      Z             #   av. dist./Å        max./Å        min./Å
   1 H    6 C           2     1.0986267     1.1038712     1.0933821
   1 H    7 N           4     1.0109147     1.0151814     1.0052432
   6 C    7 N           2     1.4069872     1.4555077     1.3584668
   6 C    8 O           1     1.2093862     1.2093862     1.2093862


optimized geometry written to: xtbopt.xyz


           -------------------------------------------------
          | TOTAL ENERGY              -17.227917733252 Eh   |
          | GRADIENT NORM               0.000725161014 Eh/α |
          | HOMO-LUMO GAP               4.517554004160 eV   |
           -------------------------------------------------
########################################################################
[WARNING] Runtime exception occurred
-1- restart_readRestart: Number of electron missmatch in restart file.
########################################################################

------------------------------------------------------------------------
 * finished run on 2023/11/18 at 08:09:07.641     
------------------------------------------------------------------------
 total:
 * wall-time:     0 d,  0 h,  0 min,  9.382 sec
 *  cpu-time:     0 d,  0 h,  3 min, 43.692 sec
 * ratio c/w:    23.843 speedup
 SCF:
 * wall-time:     0 d,  0 h,  0 min,  1.176 sec
 *  cpu-time:     0 d,  0 h,  0 min, 30.200 sec
 * ratio c/w:    25.672 speedup
 ANC optimizer:
 * wall-time:     0 d,  0 h,  0 min,  7.918 sec
 *  cpu-time:     0 d,  0 h,  3 min,  7.467 sec
 * ratio c/w:    23.675 speedup

