      -----------------------------------------------------------      
     |                   =====================                   |     
     |                           x T B                           |     
     |                   =====================                   |     
     |                         S. Grimme                         |     
     |          Mulliken Center for Theoretical Chemistry        |     
     |                    University of Bonn                     |     
      -----------------------------------------------------------      

   * xtb version 6.5.0 (97a52f5) compiled by 'conda@d2599ee0d4f4' on 2022-05-15

   xtb is free software: you can redistribute it and/or modify it under
   the terms of the GNU Lesser General Public License as published by
   the Free Software Foundation, either version 3 of the License, or
   (at your option) any later version.
   
   xtb is distributed in the hope that it will be useful,
   but WITHOUT ANY WARRANTY; without even the implied warranty of
   MERCHANTABILITY or FITNESS FOR A PARTICULAR PURPOSE.  See the
   GNU Lesser General Public License for more details.
   
   Cite this work as:
   * C. Bannwarth, E. Caldeweyher, S. Ehlert, A. Hansen, P. Pracht,
     J. Seibert, S. Spicher, S. Grimme, WIREs Comput. Mol. Sci., 2020, 11,
     e01493. DOI: 10.1002/wcms.1493
   
   for GFN2-xTB:
   * C. Bannwarth, S. Ehlert and S. Grimme., J. Chem. Theory Comput., 2019,
     15, 1652-1671. DOI: 10.1021/acs.jctc.8b01176
   for GFN1-xTB:
   * S. Grimme, C. Bannwarth, P. Shushkov, J. Chem. Theory Comput., 2017,
     13, 1989-2009. DOI: 10.1021/acs.jctc.7b00118
   for GFN0-xTB:
   * P. Pracht, E. Caldeweyher, S. Ehlert, S. Grimme, ChemRxiv, 2019, preprint.
     DOI: 10.26434/chemrxiv.8326202.v1
   for GFN-FF:
   * S. Spicher and S. Grimme, Angew. Chem. Int. Ed., 2020, 59, 15665-15673.
     DOI: 10.1002/anie.202004239
   
   for ALPB and GBSA implicit solvation:
   * S. Ehlert, M. Stahn, S. Spicher, S. Grimme, J. Chem. Theory Comput.,
     2021, 17, 4250-4261. DOI: 10.1021/acs.jctc.1c00471
   
   for DFT-D4:
   * E. Caldeweyher, C. Bannwarth and S. Grimme, J. Chem. Phys., 2017,
     147, 034112. DOI: 10.1063/1.4993215
   * E. Caldeweyher, S. Ehlert, A. Hansen, H. Neugebauer, S. Spicher,
     C. Bannwarth and S. Grimme, J. Chem. Phys., 2019, 150, 154122.
     DOI: 10.1063/1.5090222
   * E. Caldeweyher, J.-M. Mewes, S. Ehlert and S. Grimme, Phys. Chem. Chem. Phys.
     2020, 22, 8499-8512. DOI: 10.1039/D0CP00502A
   
   for sTDA-xTB:
   * S. Grimme and C. Bannwarth, J. Chem. Phys., 2016, 145, 054103.
     DOI: 10.1063/1.4959605
   
   in the mass-spec context:
   * V. Asgeirsson, C. Bauer and S. Grimme, Chem. Sci., 2017, 8, 4879.
     DOI: 10.1039/c7sc00601b
   * J. Koopman and S. Grimme, ACS Omega 2019, 4, 12, 15120-15133.
     DOI: 10.1021/acsomega.9b02011
   
   for metadynamics refer to:
   * S. Grimme, J. Chem. Theory Comput., 2019, 155, 2847-2862
     DOI: 10.1021/acs.jctc.9b00143
   
   for SPH calculations refer to:
   * S. Spicher and S. Grimme, J. Chem. Theory Comput., 2021, 17, 1701-1714
     DOI: 10.1021/acs.jctc.0c01306
   
   with help from (in alphabetical order)
   P. Atkinson, C. Bannwarth, F. Bohle, G. Brandenburg, E. Caldeweyher
   M. Checinski, S. Dohm, S. Ehlert, S. Ehrlich, I. Gerasimov, C. Hölzer
   A. Katbashev, J. Koopman, C. Lavigne, S. Lehtola, F. März, M. Müller,
   F. Musil, H. Neugebauer, J. Pisarek, C. Plett, P. Pracht, F. Pultar,
   J. Seibert, P. Shushkov, S. Spicher, M. Stahn, M. Steiner, T. Strunk,
   J. Stückrath, T. Rose, and J. Unsleber
   
 * started run on 2023/11/18 at 08:07:15.557     

           -------------------------------------------------
          |                Calculation Setup                |
           -------------------------------------------------

          program call               : /home/liuchw/anaconda3/envs/xtbenv/bin/xtb --gfn 2 --chrg 0 --uhf 0 25_27_Index_0-opt-2-3-210_preQMOPTprefit_xyzformat.xyz --opt --input xtb-opt-2-3-210_constr.txt
          hostname                   : node165.bme.utexas.edu
          coordinate file            : 25_27_Index_0-opt-2-3-210_preQMOPTprefit_xyzformat.xyz
          omp threads                :                    64

   ID    Z sym.   atoms
    1    7 N      1, 4
    2    6 C      2, 3
    3    8 O      5
    4    1 H      6-11
constraining angle 1 2 3 4 to  210.0184538°, actual value: -149.9815462°
constraining angle 8 1 2 3 to  175.0335466°, actual value:  175.0335466°
constraining angle 8 1 2 5 to  350.0044497°, actual value:   -9.9955503°
constraining angle 9 1 2 5 to  197.9618291°, actual value: -162.0381709°
constraining angle 9 1 2 3 to   22.9909260°, actual value:   22.9909260°
constraining angle 6 3 4 11 to   78.3115311°, actual value:   78.3115311°
constraining angle 7 3 4 11 to  198.7909753°, actual value: -161.2090247°
constraining angle 6 3 4 10 to  321.7281895°, actual value:  -38.2718105°
constraining angle 7 3 4 10 to   82.2076336°, actual value:   82.2076336°

           -------------------------------------------------
          |                 G F N 2 - x T B                 |
           -------------------------------------------------

        Reference                      10.1021/acs.jctc.8b01176
      * Hamiltonian:
        H0-scaling (s, p, d)           1.850000    2.230000    2.230000
        zeta-weighting                 0.500000
      * Dispersion:
        s8                             2.700000
        a1                             0.520000
        a2                             5.000000
        s9                             5.000000
      * Repulsion:
        kExp                           1.500000    1.000000
        rExp                           1.000000
      * Coulomb:
        alpha                          2.000000
        third order                    shell-resolved
        anisotropic                    true
        a3                             3.000000
        a5                             4.000000
        cn-shift                       1.200000
        cn-exp                         4.000000
        max-rad                        5.000000


          ...................................................
          :                      SETUP                      :
          :.................................................:
          :  # basis functions                  26          :
          :  # atomic orbitals                  26          :
          :  # shells                           16          :
          :  # electrons                        30          :
          :  max. iterations                   250          :
          :  Hamiltonian                  GFN2-xTB          :
          :  restarted?                      false          :
          :  GBSA solvation                  false          :
          :  PC potential                    false          :
          :  electronic temp.          300.0000000     K    :
          :  accuracy                    1.0000000          :
          :  -> integral cutoff          0.2500000E+02      :
          :  -> integral neglect         0.1000000E-07      :
          :  -> SCF convergence          0.1000000E-05 Eh   :
          :  -> wf. convergence          0.1000000E-03 e    :
          :  Broyden damping             0.4000000          :
          ...................................................

 iter      E             dE          RMSdq      gap      omega  full diag
   1    -17.3357655 -0.173358E+02  0.458E+00    4.28       0.0  T
   2    -17.4029660 -0.672005E-01  0.235E+00    4.20       1.0  T
   3    -17.4057735 -0.280746E-02  0.132E+00    4.17       1.0  T
   4    -17.4058536 -0.801450E-04  0.207E-01    3.90       1.0  T
   5    -17.4061638 -0.310145E-03  0.969E-02    3.95       1.0  T
   6    -17.4061851 -0.213101E-04  0.434E-02    3.93       1.0  T
   7    -17.4061860 -0.860613E-06  0.973E-03    3.92       3.1  T
   8    -17.4061864 -0.475462E-06  0.381E-03    3.93       7.9  T
   9    -17.4061865 -0.449094E-07  0.119E-03    3.93      25.4  T
  10    -17.4061865 -0.533661E-08  0.431E-04    3.93      69.9  T
  11    -17.4061865 -0.642316E-09  0.622E-05    3.93     484.8  T

   *** convergence criteria satisfied after 11 iterations ***

         #    Occupation            Energy/Eh            Energy/eV
      -------------------------------------------------------------
         1        2.0000           -0.6974231             -18.9778
       ...           ...                  ...                  ...
         9        2.0000           -0.5085698             -13.8389
        10        2.0000           -0.5003484             -13.6152
        11        2.0000           -0.4868579             -13.2481
        12        2.0000           -0.4670754             -12.7098
        13        2.0000           -0.4277552             -11.6398
        14        2.0000           -0.4026572             -10.9569
        15        2.0000           -0.3713379             -10.1046 (HOMO)
        16                         -0.2270663              -6.1788 (LUMO)
        17                         -0.0038094              -0.1037
        18                          0.0472062               1.2845
        19                          0.0896541               2.4396
        20                          0.1170943               3.1863
       ...                                ...                  ...
        26                          0.5505594              14.9815
      -------------------------------------------------------------
                  HL-Gap            0.1442716 Eh            3.9258 eV
             Fermi-level           -0.2992021 Eh           -8.1417 eV

 SCC (total)                   0 d,  0 h,  0 min,  2.656 sec
 SCC setup                      ...        0 min,  0.021 sec (  0.776%)
 Dispersion                     ...        0 min,  0.100 sec (  3.768%)
 classical contributions        ...        0 min,  0.239 sec (  9.015%)
 integral evaluation            ...        0 min,  0.142 sec (  5.359%)
 iterations                     ...        0 min,  1.735 sec ( 65.323%)
 molecular gradient             ...        0 min,  0.418 sec ( 15.744%)
 printout                       ...        0 min,  0.000 sec (  0.004%)

         :::::::::::::::::::::::::::::::::::::::::::::::::::::
         ::                     SUMMARY                     ::
         :::::::::::::::::::::::::::::::::::::::::::::::::::::
         :: total energy             -17.230403055178 Eh    ::
         :: gradient norm              0.059034463013 Eh/a0 ::
         :: HOMO-LUMO gap              3.925830151167 eV    ::
         ::.................................................::
         :: SCC energy               -17.406186485682 Eh    ::
         :: -> isotropic ES            0.050496871271 Eh    ::
         :: -> anisotropic ES          0.004059823989 Eh    ::
         :: -> anisotropic XC          0.008967725531 Eh    ::
         :: -> dispersion             -0.005103190408 Eh    ::
         :: repulsion energy           0.175781305209 Eh    ::
         :: add. restraining           0.000000000000 Eh    ::
         :: total charge              -0.000000000000 e     ::
         :::::::::::::::::::::::::::::::::::::::::::::::::::::

      ----------------------------------------------------------- 
     |                   =====================                   |
     |                        A N C O P T                        |
     |                   =====================                   |
     |               Approximate Normal Coordinate               |
     |                Rational Function Optimizer                |
      ----------------------------------------------------------- 

          ...................................................
          :                      SETUP                      :
          :.................................................:
          :   optimization level            normal          :
          :   max. optcycles                   200          :
          :   ANC micro-cycles                  20          :
          :   degrees of freedom                27          :
          :.................................................:
          :   RF solver                   davidson          :
          :   write xtbopt.log                true          :
          :   linear?                        false          :
          :   energy convergence         0.5000000E-05 Eh   :
          :   grad. convergence          0.1000000E-02 Eh/α :
          :   maximium RF displ.         1.0000000          :
          :   Hlow (freq-cutoff)         0.1000000E-01      :
          :   Hmax (freq-cutoff)         5.0000000          :
          :   S6 in model hess.         20.0000000          :
          ...................................................

generating ANC from model Hessian ...
Using Lindh-Hessian (1995)
 Shifting diagonal of input Hessian by    0.0000000000000000     
 Lowest  eigenvalues of input Hessian
    0.000000    0.000000    0.000000    0.000000    0.000000    0.000000
    0.012130    0.029776    0.038458    0.057538    0.069308    0.095453
    0.126906    0.137108    0.225621    0.253627    0.369968    0.418862
 Highest eigenvalues
    5.310787    8.383830    8.828162   11.130647   13.967585   23.090443


........................................................................
.............................. CYCLE    1 ..............................
........................................................................
   1    -17.4061865 -0.174062E+02  0.232E-05    3.93       0.0  T
   2    -17.4061865 -0.263256E-11  0.738E-06    3.93    4086.8  T
   3    -17.4061865 -0.103029E-12  0.443E-06    3.93    6803.4  T
     SCC iter.                  ...        0 min,  0.438 sec
     gradient                   ...        0 min,  0.499 sec
 * total energy  :   -17.2304031 Eh     change       -0.7805312E-11 Eh
   gradient norm :     0.0590337 Eh/α   predicted     0.0000000E+00 (-100.00%)
   displ. norm   :     0.1526873 α      lambda       -0.4358416E-02
   maximum displ.:     0.0868535 α      in ANC's #5, #4, #6, ...

........................................................................
.............................. CYCLE    2 ..............................
........................................................................
   1    -17.4207680 -0.174208E+02  0.216E-01    4.22       0.0  T
   2    -17.4208293 -0.613186E-04  0.130E-01    4.17       1.0  T
   3    -17.4208307 -0.142185E-05  0.556E-02    4.17       1.0  T
   4    -17.4208385 -0.777770E-05  0.924E-03    4.16       3.3  T
   5    -17.4208387 -0.190196E-06  0.466E-03    4.16       6.5  T
   6    -17.4208387 -0.268870E-07  0.151E-03    4.16      20.0  T
   7    -17.4208387 -0.149155E-08  0.468E-04    4.16      64.4  T
   8    -17.4208387 -0.321883E-09  0.170E-04    4.16     177.1  T
     SCC iter.                  ...        0 min,  1.192 sec
     gradient                   ...        0 min,  0.402 sec
 * total energy  :   -17.2329249 Eh     change       -0.2521858E-02 Eh
   gradient norm :     0.0234929 Eh/α   predicted    -0.2230011E-02 ( -11.57%)
   displ. norm   :     0.0470793 α      lambda       -0.3156750E-03
   maximum displ.:     0.0232127 α      in ANC's #1, #3, #4, ...

........................................................................
.............................. CYCLE    3 ..............................
........................................................................
   1    -17.4238166 -0.174238E+02  0.571E-02    4.23       0.0  T
   2    -17.4238210 -0.442635E-05  0.329E-02    4.22       1.0  T
   3    -17.4238211 -0.102783E-06  0.134E-02    4.22       2.2  T
   4    -17.4238215 -0.326061E-06  0.249E-03    4.22      12.1  T
   5    -17.4238215 -0.191614E-07  0.100E-03    4.22      30.1  T
   6    -17.4238215 -0.212330E-08  0.274E-04    4.22     110.1  T
   7    -17.4238215 -0.378080E-10  0.105E-04    4.22     285.8  T
     SCC iter.                  ...        0 min,  1.080 sec
     gradient                   ...        0 min,  0.434 sec
 * total energy  :   -17.2329269 Eh     change       -0.1981383E-05 Eh
   gradient norm :     0.0745956 Eh/α   predicted    -0.1581858E-03 (7883.61%)
   displ. norm   :     0.0361025 α      lambda       -0.3663278E-03
   maximum displ.:     0.0245266 α      in ANC's #1, #4, #3, ...

........................................................................
.............................. CYCLE    4 ..............................
........................................................................
   1    -17.4250520 -0.174251E+02  0.334E-02    4.25       0.0  T
   2    -17.4250530 -0.988784E-06  0.189E-02    4.25       1.6  T
   3    -17.4250530 -0.125668E-07  0.633E-03    4.25       4.8  T
   4    -17.4250531 -0.634511E-07  0.111E-03    4.25      27.2  T
   5    -17.4250531 -0.487490E-08  0.529E-04    4.25      57.0  T
   6    -17.4250531 -0.416875E-09  0.119E-04    4.25     253.0  T
     SCC iter.                  ...        0 min,  0.955 sec
     gradient                   ...        0 min,  0.444 sec
 * total energy  :   -17.2330066 Eh     change       -0.7970021E-04 Eh
   gradient norm :     0.0373458 Eh/α   predicted    -0.1834016E-03 ( 130.11%)
   displ. norm   :     0.0249500 α      lambda       -0.1539004E-03
   maximum displ.:     0.0155726 α      in ANC's #3, #4, #7, ...

........................................................................
.............................. CYCLE    5 ..............................
........................................................................
   1    -17.4229784 -0.174230E+02  0.355E-02    4.20       0.0  T
   2    -17.4229802 -0.180944E-05  0.208E-02    4.21       1.5  T
   3    -17.4229802 -0.571512E-07  0.917E-03    4.21       3.3  T
   4    -17.4229804 -0.176705E-06  0.138E-03    4.21      21.8  T
   5    -17.4229804 -0.525005E-08  0.619E-04    4.21      48.7  T
   6    -17.4229804 -0.667633E-09  0.196E-04    4.21     154.1  T
     SCC iter.                  ...        0 min,  0.973 sec
     gradient                   ...        0 min,  0.390 sec
 * total energy  :   -17.2330475 Eh     change       -0.4088735E-04 Eh
   gradient norm :     0.0238894 Eh/α   predicted    -0.7699564E-04 (  88.31%)
   displ. norm   :     0.0131132 α      lambda       -0.6251024E-04
   maximum displ.:     0.0109756 α      in ANC's #1, #4, #3, ...

........................................................................
.............................. CYCLE    6 ..............................
........................................................................
   1    -17.4227795 -0.174228E+02  0.955E-03    4.20       0.0  T
   2    -17.4227795 -0.301136E-07  0.571E-03    4.20       5.3  T
   3    -17.4227795  0.903069E-08  0.150E-03    4.20      20.2  T
   4    -17.4227795 -0.155490E-07  0.225E-04    4.20     134.2  T
   5    -17.4227795 -0.557598E-10  0.109E-04    4.20     276.8  T
     SCC iter.                  ...        0 min,  0.866 sec
     gradient                   ...        0 min,  0.396 sec
 * total energy  :   -17.2330582 Eh     change       -0.1075783E-04 Eh
   gradient norm :     0.0149920 Eh/α   predicted    -0.3125934E-04 ( 190.57%)
   displ. norm   :     0.0105956 α      lambda       -0.2490652E-04
   maximum displ.:     0.0064965 α      in ANC's #4, #3, #1, ...

........................................................................
.............................. CYCLE    7 ..............................
........................................................................
   1    -17.4234288 -0.174234E+02  0.127E-02    4.22       0.0  T
   2    -17.4234290 -0.228305E-06  0.754E-03    4.21       4.0  T
   3    -17.4234290 -0.617747E-08  0.320E-03    4.21       9.4  T
   4    -17.4234291 -0.202496E-07  0.519E-04    4.21      58.0  T
   5    -17.4234291 -0.877513E-09  0.228E-04    4.21     132.0  T
     SCC iter.                  ...        0 min,  0.854 sec
     gradient                   ...        0 min,  0.393 sec
 * total energy  :   -17.2330690 Eh     change       -0.1072567E-04 Eh
   gradient norm :     0.0032053 Eh/α   predicted    -0.1245492E-04 (  16.12%)
   displ. norm   :     0.0024014 α      lambda       -0.2221731E-05
   maximum displ.:     0.0015760 α      in ANC's #3, #1, #5, ...

........................................................................
.............................. CYCLE    8 ..............................
........................................................................
   1    -17.4233057 -0.174233E+02  0.319E-03    4.21       0.0  T
   2    -17.4233057 -0.114796E-07  0.181E-03    4.21      16.6  T
   3    -17.4233057 -0.672706E-10  0.748E-04    4.21      40.3  T
   4    -17.4233057 -0.117163E-08  0.103E-04    4.21     292.0  T
     SCC iter.                  ...        0 min,  0.633 sec
     gradient                   ...        0 min,  0.342 sec
 * total energy  :   -17.2330694 Eh     change       -0.4747132E-06 Eh
   gradient norm :     0.0026469 Eh/α   predicted    -0.1110558E-05 ( 133.94%)
   displ. norm   :     0.0013445 α      lambda       -0.7166077E-06
   maximum displ.:     0.0009850 α      in ANC's #1, #3, #4, ...

........................................................................
.............................. CYCLE    9 ..............................
........................................................................
   1    -17.4232372 -0.174232E+02  0.118E-03    4.21       0.0  T
   2    -17.4232372 -0.221802E-08  0.704E-04    4.21      42.8  T
   3    -17.4232372 -0.935110E-10  0.306E-04    4.21      98.5  T
     SCC iter.                  ...        0 min,  0.305 sec
     gradient                   ...        0 min,  0.214 sec
 * total energy  :   -17.2330698 Eh     change       -0.3276412E-06 Eh
   gradient norm :     0.0003414 Eh/α   predicted    -0.3601563E-06 (   9.92%)
   displ. norm   :     0.0007529 α      lambda       -0.4964747E-07
   maximum displ.:     0.0004020 α      in ANC's #4, #7, #1, ...

   *** GEOMETRY OPTIMIZATION CONVERGED AFTER 9 ITERATIONS ***

------------------------------------------------------------------------
 total energy gain   :        -0.0026667 Eh       -1.6734 kcal/mol
 total RMSD          :         0.0573712 a0        0.0304 Å
 total power (kW/mol):        -0.7779391 (step)   -0.5006 (real)
------------------------------------------------------------------------

 ANCopt (total)                0 d,  0 h,  0 min, 13.987 sec
 optimizer setup                ...        0 min,  0.002 sec (  0.017%)
 model hessian                  ...        0 min,  0.017 sec (  0.123%)
 ANC generation                 ...        0 min,  0.001 sec (  0.010%)
 coordinate transformation      ...        0 min,  0.000 sec (  0.001%)
 single point calculation       ...        0 min, 13.570 sec ( 97.021%)
 optimization log               ...        0 min,  0.001 sec (  0.005%)
 hessian update                 ...        0 min,  0.393 sec (  2.807%)
 rational function              ...        0 min,  0.001 sec (  0.009%)

================
 final structure:
================
11
 xtb: 6.5.0 (97a52f5)
N           -1.65041884444696       -0.55392270129787        0.29431476451042
C           -0.41200435751348       -0.24804122317347       -0.17049731862584
C            0.69949558557375       -0.33877428603810        0.86898243611170
N            1.74342088605896        0.61639343760750        0.54380390681760
O           -0.19327548396858       -0.01524226399461       -1.33637038238180
H            1.03618014947872       -1.39118758928085        0.85054485982281
H            0.32061434181069       -0.12440644178736        1.87290610396129
H           -2.41979722480987       -0.42979594566348       -0.34611621621430
H           -1.86384345391916       -0.48067775484389        1.27372773979795
H            2.62972065760959        0.32838053749033        0.94580210164242
H            1.86530774412632        0.61897523098181       -0.46671899544221

 Bond Distances (Angstroems)
 ---------------------------
N1-C2=1.3577         N1-H8=1.0087         N1-H9=1.0051         C2-N1=1.3577         C2-C3=1.5245         C2-O5=1.2088         
C3-C2=1.5245         C3-N4=1.4518         C3-H6=1.1051         C3-H7=1.0942         N4-C3=1.4518         N4-H10=1.0149        
N4-H11=1.0179        O5-C2=1.2088         H6-C3=1.1051         H7-C3=1.0942         H8-N1=1.0087         H9-N1=1.0051         
H10-N4=1.0149        H11-N4=1.0179        
 C  H  Rav=1.0997 sigma=0.0054  Rmin=1.0942  Rmax=1.1051     2
 C  C  Rav=1.5245 sigma=0.0000  Rmin=1.5245  Rmax=1.5245     1
 N  H  Rav=1.0116 sigma=0.0050  Rmin=1.0051  Rmax=1.0179     4
 N  C  Rav=1.4048 sigma=0.0471  Rmin=1.3577  Rmax=1.4518     2
 O  C  Rav=1.2088 sigma=0.0000  Rmin=1.2088  Rmax=1.2088     1

 selected bond angles (degree)
 --------------------
H8-N1-C2=116.79                H9-N1-C2=120.72                H9-N1-H8=116.60                C3-C2-N1=114.72                
O5-C2-N1=122.59                O5-C2-C3=122.49                N4-C3-C2=109.41                H6-C3-C2=105.51                
H6-C3-N4=113.81                H7-C3-C2=111.19                H7-C3-N4=109.00                H7-C3-H6=107.90                
H10-N4-C3=110.64               H11-N4-C3=108.07               H11-N4-H10=106.82              

 selected dihedral angles (degree)
 ---------------------------------
C3-C2-N1-H8=175.04            C3-C2-N1-H9= 22.97            O5-C2-N1-H8=350.01            O5-C2-N1-H9=197.95            
N4-C3-C2-N1=210.02            N4-C3-C2-O5= 35.04            H6-C3-C2-N1= 87.20            H6-C3-C2-O5=272.22            
H7-C3-C2-N1=330.47            H7-C3-C2-O5=155.49            H10-N4-C3-C2=203.97           H10-N4-C3-H6=321.71           
H10-N4-C3-H7= 82.19           H11-N4-C3-C2=320.60           H11-N4-C3-H6= 78.34           H11-N4-C3-H7=198.82           
           -------------------------------------------------
          |                Final Singlepoint                |
           -------------------------------------------------

          ...................................................
          :                      SETUP                      :
          :.................................................:
          :  # basis functions                  26          :
          :  # atomic orbitals                  26          :
          :  # shells                           16          :
          :  # electrons                        30          :
          :  max. iterations                   250          :
          :  Hamiltonian                  GFN2-xTB          :
          :  restarted?                      false          :
          :  GBSA solvation                  false          :
          :  PC potential                    false          :
          :  electronic temp.          300.0000000     K    :
          :  accuracy                    1.0000000          :
          :  -> integral cutoff          0.2500000E+02      :
          :  -> integral neglect         0.1000000E-07      :
          :  -> SCF convergence          0.1000000E-05 Eh   :
          :  -> wf. convergence          0.1000000E-03 e    :
          :  Broyden damping             0.4000000          :
          ...................................................

 iter      E             dE          RMSdq      gap      omega  full diag
   1    -17.4232372 -0.174232E+02  0.546E-05    4.21       0.0  T
   2    -17.4232372 -0.813927E-11  0.302E-05    4.21     999.9  T
   3    -17.4232372 -0.136779E-11  0.175E-05    4.21    1725.1  T

   *** convergence criteria satisfied after 3 iterations ***

         #    Occupation            Energy/Eh            Energy/eV
      -------------------------------------------------------------
         1        2.0000           -0.7044515             -19.1691
       ...           ...                  ...                  ...
         9        2.0000           -0.5105369             -13.8924
        10        2.0000           -0.5035944             -13.7035
        11        2.0000           -0.4870542             -13.2534
        12        2.0000           -0.4668545             -12.7038
        13        2.0000           -0.4285841             -11.6624
        14        2.0000           -0.4024609             -10.9515
        15        2.0000           -0.3705057             -10.0820 (HOMO)
        16                         -0.2157862              -5.8718 (LUMO)
        17                          0.0090249               0.2456
        18                          0.0663177               1.8046
        19                          0.0958548               2.6083
        20                          0.1274324               3.4676
       ...                                ...                  ...
        26                          0.6388806              17.3848
      -------------------------------------------------------------
                  HL-Gap            0.1547195 Eh            4.2101 eV
             Fermi-level           -0.2931460 Eh           -7.9769 eV

 SCC (total)                   0 d,  0 h,  0 min,  0.844 sec
 SCC setup                      ...        0 min,  0.016 sec (  1.918%)
 Dispersion                     ...        0 min,  0.046 sec (  5.411%)
 classical contributions        ...        0 min,  0.023 sec (  2.700%)
 integral evaluation            ...        0 min,  0.080 sec (  9.434%)
 iterations                     ...        0 min,  0.373 sec ( 44.181%)
 molecular gradient             ...        0 min,  0.307 sec ( 36.303%)
 printout                       ...        0 min,  0.000 sec (  0.019%)

         :::::::::::::::::::::::::::::::::::::::::::::::::::::
         ::                     SUMMARY                     ::
         :::::::::::::::::::::::::::::::::::::::::::::::::::::
         :: total energy             -17.233069767671 Eh    ::
         :: gradient norm              0.000341992044 Eh/a0 ::
         :: HOMO-LUMO gap              4.210131309040 eV    ::
         ::.................................................::
         :: SCC energy               -17.423237220979 Eh    ::
         :: -> isotropic ES            0.049631653098 Eh    ::
         :: -> anisotropic ES          0.003721508166 Eh    ::
         :: -> anisotropic XC          0.008600371731 Eh    ::
         :: -> dispersion             -0.005133607286 Eh    ::
         :: repulsion energy           0.190163598798 Eh    ::
         :: add. restraining           0.000001854622 Eh    ::
         :: total charge               0.000000000000 e     ::
         :::::::::::::::::::::::::::::::::::::::::::::::::::::

           -------------------------------------------------
          |                Property Printout                |
           -------------------------------------------------

    * Orbital Energies and Occupations

         #    Occupation            Energy/Eh            Energy/eV
      -------------------------------------------------------------
         1        2.0000           -0.7044515             -19.1691
       ...           ...                  ...                  ...
         3        2.0000           -0.6451697             -17.5560
         4        2.0000           -0.6042207             -16.4417
         5        2.0000           -0.5842825             -15.8991
         6        2.0000           -0.5626986             -15.3118
         7        2.0000           -0.5512249             -14.9996
         8        2.0000           -0.5490012             -14.9391
         9        2.0000           -0.5105369             -13.8924
        10        2.0000           -0.5035944             -13.7035
        11        2.0000           -0.4870542             -13.2534
        12        2.0000           -0.4668545             -12.7038
        13        2.0000           -0.4285841             -11.6624
        14        2.0000           -0.4024609             -10.9515
        15        2.0000           -0.3705057             -10.0820 (HOMO)
        16                         -0.2157862              -5.8718 (LUMO)
        17                          0.0090249               0.2456
        18                          0.0663177               1.8046
        19                          0.0958548               2.6083
        20                          0.1274324               3.4676
        21                          0.1453070               3.9540
        22                          0.2019798               5.4961
        23                          0.2219450               6.0394
        24                          0.2422404               6.5917
        25                          0.3536859               9.6243
        26                          0.6388806              17.3848
      -------------------------------------------------------------
                  HL-Gap            0.1547195 Eh            4.2101 eV
             Fermi-level           -0.2931460 Eh           -7.9769 eV

     #   Z          covCN         q      C6AA      α(0)
     1   7 N        2.637    -0.278    27.186     7.744
     2   6 C        2.744     0.284    22.189     7.713
     3   6 C        3.733    -0.005    20.763     6.504
     4   7 N        2.631    -0.338    28.715     7.958
     5   8 O        0.859    -0.415    21.991     6.287
     6   1 H        0.922     0.032     2.552     2.498
     7   1 H        0.924     0.040     2.444     2.445
     8   1 H        0.860     0.196     1.129     1.664
     9   1 H        0.860     0.181     1.210     1.723
    10   1 H        0.860     0.140     1.470     1.899
    11   1 H        0.860     0.164     1.310     1.793

 Mol. C6AA /au·bohr⁶  :       1032.565137
 Mol. C8AA /au·bohr⁸  :      21592.035806
 Mol. α(0) /au        :         48.228425


Wiberg/Mayer (AO) data.
largest (>0.10) Wiberg bond orders for each atom

 ---------------------------------------------------------------------------
     #   Z sym  total        # sym  WBO       # sym  WBO       # sym  WBO
 ---------------------------------------------------------------------------
     1   7 N    3.345 --     2 C    1.235     9 H    0.947     8 H    0.941
                             5 O    0.191
     2   6 C    3.946 --     5 O    1.722     1 N    1.235     3 C    0.958
     3   6 C    3.992 --     4 N    1.032     7 H    0.968     2 C    0.958
                             6 H    0.946
     4   7 N    2.997 --     3 C    1.032    10 H    0.967    11 H    0.953
     5   8 O    2.029 --     2 C    1.722     1 N    0.191
     6   1 H    0.999 --     3 C    0.946
     7   1 H    0.998 --     3 C    0.968
     8   1 H    0.962 --     1 N    0.941
     9   1 H    0.967 --     1 N    0.947
    10   1 H    0.980 --     4 N    0.967
    11   1 H    0.973 --     4 N    0.953
 ---------------------------------------------------------------------------

Topologies differ in total number of bonds
Writing topology from bond orders to xtbtopo.mol

molecular dipole:
                 x           y           z       tot (Debye)
 q only:       -0.493      -0.360       1.054
   full:       -0.506      -0.644       1.192       3.675
molecular quadrupole (traceless):
                xx          xy          yy          xz          yz          zz
 q only:        6.051       0.206      -2.379      -1.516      -1.051      -3.671
  q+dip:        8.365      -2.294      -4.248      -1.896      -1.560      -4.116
   full:        8.407      -2.055      -3.918      -1.952      -1.618      -4.488

           -------------------------------------------------
          |                Geometry Summary                 |
           -------------------------------------------------

      molecular mass/u    :       74.0819276
   center of mass at/Å    :        0.0437890      -0.1067386       0.0392864
  moments of inertia/u·Å² :        0.5107158E+02   0.1276900E+03   0.1698700E+03
rotational constants/cm⁻¹ :        0.3300785E+00   0.1320200E+00   0.9923843E-01

 * 9 selected distances

     #   Z          #   Z                                           value/Å
     1   7 N        2   6 C                                       1.3576762
     3   6 C        4   7 N                                       1.4518495 (max)
     2   6 C        5   8 O                                       1.2088416
     3   6 C        6   1 H                                       1.1051110
     3   6 C        7   1 H                                       1.0942429
     1   7 N        8   1 H                                       1.0087133
     1   7 N        9   1 H                                       1.0050696 (min)
     4   7 N       10   1 H                                       1.0149293
     4   7 N       11   1 H                                       1.0178506

 * 4 distinct bonds (by element types)

   Z      Z             #   av. dist./Å        max./Å        min./Å
   1 H    6 C           2     1.0996770     1.1051110     1.0942429
   1 H    7 N           4     1.0116407     1.0178506     1.0050696
   6 C    7 N           2     1.4047628     1.4518495     1.3576762
   6 C    8 O           1     1.2088416     1.2088416     1.2088416


optimized geometry written to: xtbopt.xyz


           -------------------------------------------------
          | TOTAL ENERGY              -17.233069767671 Eh   |
          | GRADIENT NORM               0.000341992044 Eh/α |
          | HOMO-LUMO GAP               4.210131309040 eV   |
           -------------------------------------------------

------------------------------------------------------------------------
 * finished run on 2023/11/18 at 08:07:33.346     
------------------------------------------------------------------------
 total:
 * wall-time:     0 d,  0 h,  0 min, 17.790 sec
 *  cpu-time:     0 d,  0 h,  4 min, 27.333 sec
 * ratio c/w:    15.028 speedup
 SCF:
 * wall-time:     0 d,  0 h,  0 min,  2.657 sec
 *  cpu-time:     0 d,  0 h,  0 min, 37.409 sec
 * ratio c/w:    14.082 speedup
 ANC optimizer:
 * wall-time:     0 d,  0 h,  0 min, 14.873 sec
 *  cpu-time:     0 d,  0 h,  3 min, 44.783 sec
 * ratio c/w:    15.114 speedup

