11
 energy: -17.232577057952 gnorm: 0.000836166653 xtb: 6.5.0 (97a52f5)
N           -1.63958433984321       -0.38951946111509        0.32859743592677
C           -0.39222826746289       -0.41853738692470       -0.20121536442818
C            0.73981281684932       -0.49237732293965        0.81761803856851
N            1.59310333683040        0.67955785862775        0.65457449614108
O           -0.19087422150692       -0.47609006936911       -1.39267144991184
H            1.26435026476252       -1.44527380659767        0.64484197602392
H            0.34718062468466       -0.49511902512898        1.83903518459066
H           -2.40593613116917       -0.26236574703214       -0.31554899149946
H           -1.78530977012058       -0.07593246702255        1.27247999354013
H            2.52085289678158        0.49478164812352        1.02247323221326
H            1.70403378019430        0.86257576937864       -0.33980556116484
