
    -----------------------------------------------------------------------
          Psi4: An Open-Source Ab Initio Electronic Structure Package
                               Psi4 1.3.2 release

                         Git: Rev {HEAD} ecbda83 


    R. M. Parrish, L. A. Burns, D. G. A. Smith, A. C. Simmonett,
    A. E. DePrince III, E. G. Hohenstein, U. Bozkaya, A. Yu. Sokolov,
    R. Di Remigio, R. M. Richard, J. F. Gonthier, A. M. James,
    H. R. McAlexander, A. Kumar, M. Saitow, X. Wang, B. P. Pritchard,
    P. Verma, H. F. Schaefer III, K. Patkowski, R. A. King, E. F. Valeev,
    F. A. Evangelista, J. M. Turney, T. D. Crawford, and C. D. Sherrill,
    J. Chem. Theory Comput. 13(7) pp 3185--3197 (2017).
    (doi: 10.1021/acs.jctc.7b00174)


                         Additional Contributions by
    P. Kraus, H. Kruse, M. H. Lechner, M. C. Schieber, R. A. Shaw,
    A. Alenaizan, R. Galvelis, Z. L. Glick, S. Lehtola, and J. P. Misiewicz

    -----------------------------------------------------------------------


    Psi4 started on: Thursday, 04 November 2021 09:43PM

    Process ID: 70201
    Host:       node44.bme.utexas.edu
    PSIDATADIR: /home/bdw2292/miniconda3/envs/amoebamdpoltype/share/psi4
    Memory:     500.0 MiB
    Threads:    1
    
  ==> Input File <==

--------------------------------------------------------------------------
molecule { 
1 1
H -0.629170742012 -0.668177243782 -0.464172182973
N 0.000041163373 -0.000018505242 0.000024656053
H -0.486161057204 0.431583579298 0.796874202910
H 0.277328732592 0.730562064628 -0.668704587620
H 0.837431128296 -0.493711281831 0.335659987848
}
memory 8.333333333333334GB
set_num_threads(1)
psi4_io.set_default_path("/scratch/bdw2292/Psi4-74_Index_0-farH_in17")
set maxiter 500
set freeze_core True
set PROPERTIES_ORIGIN ["COM"]
set cubeprop_tasks ['esp']
E, wfn = properties('mp2/aug-cc-pVTZ',properties=['dipole'],return_wfn=True)
cubeprop(wfn)
fchk(wfn, "74_Index_0-esp.fchk")
oeprop(wfn,"GRID_ESP","WIBERG_LOWDIN_INDICES","MULLIKEN_CHARGES")
clean()
--------------------------------------------------------------------------

  Memory set to   7.761 GiB by Python driver.
  Threads set to 1 by Python driver.
    SCF Algorithm Type (re)set to DF.

*** tstart() called on node44.bme.utexas.edu
*** at Thu Nov  4 21:43:12 2021

   => Loading Basis Set <=

    Name: AUG-CC-PVTZ
    Role: ORBITAL
    Keyword: BASIS
    atoms 1, 3-5 entry H          line    36 file /home/bdw2292/miniconda3/envs/amoebamdpoltype/share/psi4/basis/aug-cc-pvtz.gbs 
    atoms 2      entry N          line   281 file /home/bdw2292/miniconda3/envs/amoebamdpoltype/share/psi4/basis/aug-cc-pvtz.gbs 


         ---------------------------------------------------------
                                   SCF
               by Justin Turney, Rob Parrish, Andy Simmonett
                          and Daniel G. A. Smith
                              RHF Reference
                        1 Threads,   7947 MiB Core
         ---------------------------------------------------------

  ==> Geometry <==

    Molecular point group: c1
    Full point group: C1

    Geometry (in Angstrom), charge = 1, multiplicity = 1:

       Center              X                  Y                   Z               Mass       
    ------------   -----------------  -----------------  -----------------  -----------------
         H           -0.629170742012    -0.668177243782    -0.464172182973     1.007825032230
         N            0.000041163373    -0.000018505242     0.000024656053    14.003074004430
         H           -0.486161057204     0.431583579298     0.796874202910     1.007825032230
         H            0.277328732592     0.730562064628    -0.668704587620     1.007825032230
         H            0.837431128296    -0.493711281831     0.335659987848     1.007825032230

  Running in c1 symmetry.

  Rotational constants: A =      5.93126  B =      5.92974  C =      5.92960 [cm^-1]
  Rotational constants: A = 177814.61202  B = 177769.10096  C = 177765.02905 [MHz]
  Nuclear repulsion =   16.297485620396291

  Charge       = 1
  Multiplicity = 1
  Electrons    = 10
  Nalpha       = 5
  Nbeta        = 5

  ==> Algorithm <==

  SCF Algorithm Type is DF.
  DIIS enabled.
  MOM disabled.
  Fractional occupation disabled.
  Guess Type is SAD.
  Energy threshold   = 1.00e-10
  Density threshold  = 1.00e-10
  Integral threshold = 0.00e+00

  ==> Primary Basis <==

  Basis Set: AUG-CC-PVTZ
    Blend: AUG-CC-PVTZ
    Number of shells: 50
    Number of basis function: 138
    Number of Cartesian functions: 155
    Spherical Harmonics?: true
    Max angular momentum: 3

   => Loading Basis Set <=

    Name: (AUG-CC-PVTZ AUX)
    Role: JKFIT
    Keyword: DF_BASIS_SCF
    atoms 1, 3-5 entry H          line    70 file /home/bdw2292/miniconda3/envs/amoebamdpoltype/share/psi4/basis/aug-cc-pvtz-jkfit.gbs 
    atoms 2      entry N          line   224 file /home/bdw2292/miniconda3/envs/amoebamdpoltype/share/psi4/basis/aug-cc-pvtz-jkfit.gbs 

  ==> Pre-Iterations <==

   -------------------------------------------------------
    Irrep   Nso     Nmo     Nalpha   Nbeta   Ndocc  Nsocc
   -------------------------------------------------------
     A        138     138       0       0       0       0
   -------------------------------------------------------
    Total     138     138       5       5       5       0
   -------------------------------------------------------

  ==> Integral Setup <==

  DFHelper Memory: AOs need 0.045 GiB; user supplied 5.821 GiB. Using in-core AOs.

  ==> MemDFJK: Density-Fitted J/K Matrices <==

    J tasked:                   Yes
    K tasked:                   Yes
    wK tasked:                   No
    OpenMP threads:               1
    Memory [MiB]:              5960
    Algorithm:                 Core
    Schwarz Cutoff:           1E-12
    Mask sparsity (%):       0.0000
    Fitting Condition:        1E-10

   => Auxiliary Basis Set <=

  Basis Set: (AUG-CC-PVTZ AUX)
    Blend: AUG-CC-PVTZ-JKFIT
    Number of shells: 86
    Number of basis function: 288
    Number of Cartesian functions: 351
    Spherical Harmonics?: true
    Max angular momentum: 4

  Minimum eigenvalue in the overlap matrix is 1.0220467943E-04.
  Using Symmetric Orthogonalization.

  SCF Guess: Superposition of Atomic Densities via on-the-fly atomic UHF.

  ==> Iterations <==

                           Total Energy        Delta E     RMS |[F,P]|

   @DF-RHF iter SAD:   -56.45691397600355   -5.64569e+01   0.00000e+00 
   @DF-RHF iter   1:   -56.51094348618430   -5.40295e-02   2.20915e-03 DIIS
   @DF-RHF iter   2:   -56.55733555009262   -4.63921e-02   8.36550e-04 DIIS
   @DF-RHF iter   3:   -56.56295602100621   -5.62047e-03   2.22240e-04 DIIS
   @DF-RHF iter   4:   -56.56368642259389   -7.30402e-04   3.58776e-05 DIIS
   @DF-RHF iter   5:   -56.56370135989344   -1.49373e-05   2.38526e-06 DIIS
   @DF-RHF iter   6:   -56.56370146793895   -1.08046e-07   2.34239e-07 DIIS
   @DF-RHF iter   7:   -56.56370146856648   -6.27530e-10   1.54459e-08 DIIS
   @DF-RHF iter   8:   -56.56370146856877   -2.28795e-12   1.38598e-09 DIIS
   @DF-RHF iter   9:   -56.56370146856883   -6.39488e-14   9.42230e-11 DIIS
  Energy and wave function converged.


  ==> Post-Iterations <==

    Orbital Energies [Eh]
    ---------------------

    Doubly Occupied:                                                      

       1A    -15.940543     2A     -1.542515     3A     -0.996165  
       4A     -0.996073     5A     -0.996017  

    Virtual:                                                              

       6A     -0.147388     7A     -0.091309     8A     -0.091304  
       9A     -0.091303    10A     -0.028448    11A     -0.018213  
      12A     -0.018202    13A     -0.018188    14A      0.009710  
      15A      0.009716    16A      0.009721    17A      0.020866  
      18A      0.020871    19A      0.146171    20A      0.165867  
      21A      0.165868    22A      0.165878    23A      0.182122  
      24A      0.182134    25A      0.182152    26A      0.200423  
      27A      0.222941    28A      0.222956    29A      0.222981  
      30A      0.326226    31A      0.326296    32A      0.326307  
      33A      0.330920    34A      0.330931    35A      0.485625  
      36A      0.485639    37A      0.485755    38A      0.590627  
      39A      0.662027    40A      0.662030    41A      0.662062  
      42A      0.670591    43A      0.670621    44A      0.670633  
      45A      0.727428    46A      0.743945    47A      0.743980  
      48A      0.744031    49A      0.819069    50A      0.819081  
      51A      0.823131    52A      0.823143    53A      0.823188  
      54A      0.959459    55A      0.959552    56A      0.959568  
      57A      0.993922    58A      0.993965    59A      1.090392  
      60A      1.090398    61A      1.090431    62A      1.140993  
      63A      1.149825    64A      1.149847    65A      1.443525  
      66A      1.443575    67A      1.443718    68A      1.520879  
      69A      1.520993    70A      1.521017    71A      1.602975  
      72A      1.602999    73A      1.603115    74A      1.743789  
      75A      1.743868    76A      1.743951    77A      1.838413  
      78A      2.042853    79A      2.043198    80A      2.043238  
      81A      2.105412    82A      2.105429    83A      2.140673  
      84A      2.140697    85A      2.140744    86A      2.148282  
      87A      3.229321    88A      3.504713    89A      3.504878  
      90A      3.504896    91A      3.588653    92A      3.588698  
      93A      3.818692    94A      3.818768    95A      3.819097  
      96A      3.877106    97A      3.877258    98A      3.877360  
      99A      4.031260   100A      4.031269   101A      4.031282  
     102A      4.111489   103A      4.111561   104A      4.111917  
     105A      4.162801   106A      4.162847   107A      4.225196  
     108A      4.315826   109A      4.315909   110A      4.315977  
     111A      4.510580   112A      4.510640   113A      4.511029  
     114A      4.592806   115A      4.592917   116A      4.593066  
     117A      4.662897   118A      4.662938   119A      4.662973  
     120A      5.036267   121A      5.317906   122A      5.317982  
     123A      5.420343   124A      5.420511   125A      5.420561  
     126A      5.730095   127A      5.730349   128A      6.106869  
     129A      6.107931   130A      6.108075   131A      6.351147  
     132A      6.762142   133A      6.762574   134A      6.762723  
     135A      7.388566   136A      7.388841   137A      7.388925  
     138A     18.220512  

    Final Occupation by Irrep:
              A 
    DOCC [     5 ]

  @DF-RHF Final Energy:   -56.56370146856883

   => Energetics <=

    Nuclear Repulsion Energy =             16.2974856203962908
    One-Electron Energy =                -104.7797471396872879
    Two-Electron Energy =                  31.9185600507221743
    Total Energy =                        -56.5637014685688229

Computation Completed

*** tstop() called on node44.bme.utexas.edu at Thu Nov  4 21:43:15 2021
Module time:
	user time   =       1.99 seconds =       0.03 minutes
	system time =       0.12 seconds =       0.00 minutes
	total time  =          3 seconds =       0.05 minutes
Total time:
	user time   =       1.99 seconds =       0.03 minutes
	system time =       0.12 seconds =       0.00 minutes
	total time  =          3 seconds =       0.05 minutes
   => Loading Basis Set <=

    Name: (AUG-CC-PVTZ AUX)
    Role: RIFIT
    Keyword: DF_BASIS_MP2
    atoms 1, 3-5 entry H          line    30 file /home/bdw2292/miniconda3/envs/amoebamdpoltype/share/psi4/basis/aug-cc-pvtz-ri.gbs 
    atoms 2      entry N          line   206 file /home/bdw2292/miniconda3/envs/amoebamdpoltype/share/psi4/basis/aug-cc-pvtz-ri.gbs 


*** tstart() called on node44.bme.utexas.edu
*** at Thu Nov  4 21:43:15 2021


  //>>>>>>>>>>>>>>>>>>>>>>>>>>>>>>>>>>>//
  //               DFMP2               //
  //<<<<<<<<<<<<<<<<<<<<<<<<<<<<<<<<<<<//

	 --------------------------------------------------------
	                          DF-MP2                         
	      2nd-Order Density-Fitted Moller-Plesset Theory     
	              RMP2 Wavefunction,   1 Threads             
	                                                         
	        Rob Parrish, Justin Turney, Andy Simmonett,      
	           Ed Hohenstein, and C. David Sherrill          
	 --------------------------------------------------------

   => Auxiliary Basis Set <=

  Basis Set: (AUG-CC-PVTZ AUX)
    Blend: AUG-CC-PVTZ-RI
    Number of shells: 84
    Number of basis function: 290
    Number of Cartesian functions: 356
    Spherical Harmonics?: true
    Max angular momentum: 4

	 --------------------------------------------------------
	                 NBF =   138, NAUX =   290
	 --------------------------------------------------------
	   CLASS    FOCC     OCC    AOCC    AVIR     VIR    FVIR
	   PAIRS       1       5       4     133     133       0
	 --------------------------------------------------------

  DFHelper Memory: AOs need 0.045 GiB; user supplied 5.821 GiB. Using in-core AOs.


         ------------------------------------------------------------
                                     CPHF                           
                                  Rob Parrish                       
         ------------------------------------------------------------

  ==> Geometry <==

    Molecular point group: c1
    Full point group: C1

    Geometry (in Angstrom), charge = 1, multiplicity = 1:

       Center              X                  Y                   Z               Mass       
    ------------   -----------------  -----------------  -----------------  -----------------
         H           -0.629170742012    -0.668177243782    -0.464172182973     1.007825032230
         N            0.000041163373    -0.000018505242     0.000024656053    14.003074004430
         H           -0.486161057204     0.431583579298     0.796874202910     1.007825032230
         H            0.277328732592     0.730562064628    -0.668704587620     1.007825032230
         H            0.837431128296    -0.493711281831     0.335659987848     1.007825032230

  Nuclear repulsion =   16.297485620396291
  Reference energy  =  -56.563701468568830

  ==> Basis Set <==

  Basis Set: AUG-CC-PVTZ
    Blend: AUG-CC-PVTZ
    Number of shells: 50
    Number of basis function: 138
    Number of Cartesian functions: 155
    Spherical Harmonics?: true
    Max angular momentum: 3

  ==> CGRSolver (by Rob Parrish) <==

   Number of roots    =         1
   Preconditioning    =    JACOBI
   Convergence cutoff =     1E-06
   Maximum iterations =       100

  ==> CPHFRHamiltonian (by Rob Parrish) <== 

  ==> MemDFJK: Density-Fitted J/K Matrices <==

    J tasked:                   Yes
    K tasked:                   Yes
    wK tasked:                   No
    OpenMP threads:               1
    Memory [MiB]:              5960
    Algorithm:                 Core
    Schwarz Cutoff:           1E-12
    Mask sparsity (%):       0.0000
    Fitting Condition:        1E-10

   => Auxiliary Basis Set <=

  Basis Set: (AUG-CC-PVTZ AUX)
    Blend: AUG-CC-PVTZ-JKFIT
    Number of shells: 86
    Number of basis function: 288
    Number of Cartesian functions: 351
    Spherical Harmonics?: true
    Max angular momentum: 4

  ==> CPHF Iterations <==

  => Iterations <=

             Iter  Converged  Remaining    Residual
  CGR           1          0          1   5.488E-02
  CGR           2          0          1   8.655E-03
  CGR           3          0          1   7.802E-04
  CGR           4          0          1   4.518E-05
  CGR           5          0          1   4.682E-06
  CGR           6          1          0   5.345E-07

    CGRSolver converged.

	-----------------------------------------------------------
	 ==================> DF-MP2 Energies <==================== 
	-----------------------------------------------------------
	 Reference Energy          =     -56.5637014685688300 [Eh]
	 Singles Energy            =      -0.0000000000000000 [Eh]
	 Same-Spin Energy          =      -0.0483609074287947 [Eh]
	 Opposite-Spin Energy      =      -0.1839049728181029 [Eh]
	 Correlation Energy        =      -0.2322658802468976 [Eh]
	 Total Energy              =     -56.7959673488157293 [Eh]
	-----------------------------------------------------------
	 ================> DF-SCS-MP2 Energies <================== 
	-----------------------------------------------------------
	 SCS Same-Spin Scale       =       0.3333333333333333 [-]
	 SCS Opposite-Spin Scale   =       1.2000000000000000 [-]
	 SCS Same-Spin Energy      =      -0.0161203024762649 [Eh]
	 SCS Opposite-Spin Energy  =      -0.2206859673817235 [Eh]
	 SCS Correlation Energy    =      -0.2368062698579884 [Eh]
	 SCS Total Energy          =     -56.8005077384268162 [Eh]
	-----------------------------------------------------------



Properties will be evaluated at   0.000000,  -0.000000,   0.000000 [a0]

Properties computed using the MP2 density matrix

  Nuclear Dipole Moment: [e a0]
     X:    -0.0005      Y:     0.0002      Z:    -0.0003

  Electronic Dipole Moment: [e a0]
     X:     0.0002      Y:    -0.0001      Z:     0.0001

  Dipole Moment: [e a0]
     X:    -0.0003      Y:     0.0001      Z:    -0.0002     Total:     0.0004

  Dipole Moment: [D]
     X:    -0.0008      Y:     0.0003      Z:    -0.0005     Total:     0.0010


*** tstop() called on node44.bme.utexas.edu at Thu Nov  4 21:43:18 2021
Module time:
	user time   =       3.45 seconds =       0.06 minutes
	system time =       0.09 seconds =       0.00 minutes
	total time  =          3 seconds =       0.05 minutes
Total time:
	user time   =       5.50 seconds =       0.09 minutes
	system time =       0.21 seconds =       0.00 minutes
	total time  =          6 seconds =       0.10 minutes
  ==> One Electron Grid Properties (v2.0) <==

  ==> CubicScalarGrid <==

    Filepath     = .
    Total Points =           166375
    XYZ Blocking =               10
    X Points     =               55
    Y Points     =               55
    Z Points     =               55
    X Spacing    =        2.000E-01
    Y Spacing    =        2.000E-01
    Z Spacing    =        2.000E-01
    X Minimum    =       -5.203E+00
    Y Minimum    =       -5.341E+00
    Z Minimum    =       -5.279E+00
    X Maximum    =        5.597E+00
    Y Maximum    =        5.459E+00
    Z Maximum    =        5.521E+00

  Basis Set: AUG-CC-PVTZ
    Blend: AUG-CC-PVTZ
    Number of shells: 50
    Number of basis function: 138
    Number of Cartesian functions: 155
    Spherical Harmonics?: true
    Max angular momentum: 3



Properties will be evaluated at   0.000000,  -0.000000,   0.000000 [a0]
OEProp: No title given, name of density matrix used for the following properties is 'DF-MP2 relaxed density'
  Mulliken Charges: (a.u.)
   Center  Symbol    Alpha    Beta     Spin     Total
       1     H     0.37416  0.37416  0.00000  0.25168
       2     N     3.50328  3.50328  0.00000 -0.00657
       3     H     0.37420  0.37420  0.00000  0.25161
       4     H     0.37416  0.37416  0.00000  0.25168
       5     H     0.37420  0.37420  0.00000  0.25160

   Total alpha =  5.00000, Total beta =  5.00000, Total charge =  1.00000



  Wiberg Bond Indices using Orthogonal Lowdin Orbitals:

  Irrep: 1 Size: 5 x 5

                 1                   2                   3                   4                   5

    1     0.00000000000000     0.94846470531422     0.26260107628018     0.26258438148183     0.26255980375531
    2     0.94846470531422     0.00000000000000     0.94858148621644     0.94845323929916     0.94858100301196
    3     0.26260107628018     0.94858148621644     0.00000000000000     0.26259649153706     0.26259521255934
    4     0.26258438148183     0.94845323929916     0.26259649153706     0.00000000000000     0.26254778222438
    5     0.26255980375531     0.94858100301196     0.26259521255934     0.26254778222438     0.00000000000000



  Atomic Valences: 

 #  #
 Irrep: 1
      1:  1.7362100
      2:  3.7940804
      3:  1.7363743
      4:  1.7361819
      5:  1.7362838


 Electrostatic potential computed on the grid and written to grid_esp.dat

    Psi4 stopped on: Thursday, 04 November 2021 09:43PM
    Psi4 wall time for execution: 0:00:36.36

*** Psi4 exiting successfully. Buy a developer a beer!
