
    -----------------------------------------------------------------------
          Psi4: An Open-Source Ab Initio Electronic Structure Package
                               Psi4 1.3.2 release

                         Git: Rev {HEAD} ecbda83 


    R. M. Parrish, L. A. Burns, D. G. A. Smith, A. C. Simmonett,
    A. E. DePrince III, E. G. Hohenstein, U. Bozkaya, A. Yu. Sokolov,
    R. Di Remigio, R. M. Richard, J. F. Gonthier, A. M. James,
    H. R. McAlexander, A. Kumar, M. Saitow, X. Wang, B. P. Pritchard,
    P. Verma, H. F. Schaefer III, K. Patkowski, R. A. King, E. F. Valeev,
    F. A. Evangelista, J. M. Turney, T. D. Crawford, and C. D. Sherrill,
    J. Chem. Theory Comput. 13(7) pp 3185--3197 (2017).
    (doi: 10.1021/acs.jctc.7b00174)


                         Additional Contributions by
    P. Kraus, H. Kruse, M. H. Lechner, M. C. Schieber, R. A. Shaw,
    A. Alenaizan, R. Galvelis, Z. L. Glick, S. Lehtola, and J. P. Misiewicz

    -----------------------------------------------------------------------


    Psi4 started on: Thursday, 04 November 2021 09:42PM

    Process ID: 70194
    Host:       node44.bme.utexas.edu
    PSIDATADIR: /home/bdw2292/miniconda3/envs/amoebamdpoltype/share/psi4
    Memory:     500.0 MiB
    Threads:    1
    
  ==> Input File <==

--------------------------------------------------------------------------
molecule { 
1 1
H -0.629170742012 -0.668177243782 -0.464172182973
N 0.000041163373 -0.000018505242 0.000024656053
H -0.486161057204 0.431583579298 0.796874202910
H 0.277328732592 0.730562064628 -0.668704587620
H 0.837431128296 -0.493711281831 0.335659987848
}
memory 8.333333333333334GB
set_num_threads(1)
psi4_io.set_default_path("/scratch/bdw2292/Psi4-74_Index_0-farH_in17")
set freeze_core True
set PROPERTIES_ORIGIN ["COM"]
set cubeprop_tasks ['esp']
E, wfn = properties('mp2/6-311G**',properties=['dipole'],return_wfn=True)
cubeprop(wfn)
fchk(wfn, "74_Index_0-dma.fchk")
clean()
--------------------------------------------------------------------------

  Memory set to   7.761 GiB by Python driver.
  Threads set to 1 by Python driver.
    SCF Algorithm Type (re)set to DF.

*** tstart() called on node44.bme.utexas.edu
*** at Thu Nov  4 21:42:57 2021

   => Loading Basis Set <=

    Name: 6-311G**
    Role: ORBITAL
    Keyword: BASIS
    atoms 1, 3-5 entry H          line    32 file /home/bdw2292/miniconda3/envs/amoebamdpoltype/share/psi4/basis/6-311gss.gbs 
    atoms 2      entry N          line   132 file /home/bdw2292/miniconda3/envs/amoebamdpoltype/share/psi4/basis/6-311gss.gbs 


         ---------------------------------------------------------
                                   SCF
               by Justin Turney, Rob Parrish, Andy Simmonett
                          and Daniel G. A. Smith
                              RHF Reference
                        1 Threads,   7947 MiB Core
         ---------------------------------------------------------

  ==> Geometry <==

    Molecular point group: c1
    Full point group: C1

    Geometry (in Angstrom), charge = 1, multiplicity = 1:

       Center              X                  Y                   Z               Mass       
    ------------   -----------------  -----------------  -----------------  -----------------
         H           -0.629170742012    -0.668177243782    -0.464172182973     1.007825032230
         N            0.000041163373    -0.000018505242     0.000024656053    14.003074004430
         H           -0.486161057204     0.431583579298     0.796874202910     1.007825032230
         H            0.277328732592     0.730562064628    -0.668704587620     1.007825032230
         H            0.837431128296    -0.493711281831     0.335659987848     1.007825032230

  Running in c1 symmetry.

  Rotational constants: A =      5.93126  B =      5.92974  C =      5.92960 [cm^-1]
  Rotational constants: A = 177814.61202  B = 177769.10096  C = 177765.02905 [MHz]
  Nuclear repulsion =   16.297485620396291

  Charge       = 1
  Multiplicity = 1
  Electrons    = 10
  Nalpha       = 5
  Nbeta        = 5

  ==> Algorithm <==

  SCF Algorithm Type is DF.
  DIIS enabled.
  MOM disabled.
  Fractional occupation disabled.
  Guess Type is SAD.
  Energy threshold   = 1.00e-10
  Density threshold  = 1.00e-10
  Integral threshold = 0.00e+00

  ==> Primary Basis <==

  Basis Set: 6-311G**
    Blend: 6-311G**
    Number of shells: 24
    Number of basis function: 42
    Number of Cartesian functions: 43
    Spherical Harmonics?: true
    Max angular momentum: 2

   => Loading Basis Set <=

    Name: (6-311G** AUX)
    Role: JKFIT
    Keyword: DF_BASIS_SCF
    atoms 1, 3-5 entry H          line    51 file /home/bdw2292/miniconda3/envs/amoebamdpoltype/share/psi4/basis/cc-pvtz-jkfit.gbs 
    atoms 2      entry N          line   177 file /home/bdw2292/miniconda3/envs/amoebamdpoltype/share/psi4/basis/cc-pvtz-jkfit.gbs 

  ==> Pre-Iterations <==

   -------------------------------------------------------
    Irrep   Nso     Nmo     Nalpha   Nbeta   Ndocc  Nsocc
   -------------------------------------------------------
     A         42      42       0       0       0       0
   -------------------------------------------------------
    Total      42      42       5       5       5       0
   -------------------------------------------------------

  ==> Integral Setup <==

  DFHelper Memory: AOs need 0.003 GiB; user supplied 5.821 GiB. Using in-core AOs.

  ==> MemDFJK: Density-Fitted J/K Matrices <==

    J tasked:                   Yes
    K tasked:                   Yes
    wK tasked:                   No
    OpenMP threads:               1
    Memory [MiB]:              5960
    Algorithm:                 Core
    Schwarz Cutoff:           1E-12
    Mask sparsity (%):       0.0000
    Fitting Condition:        1E-10

   => Auxiliary Basis Set <=

  Basis Set: (6-311G** AUX)
    Blend: CC-PVTZ-JKFIT
    Number of shells: 65
    Number of basis function: 199
    Number of Cartesian functions: 236
    Spherical Harmonics?: true
    Max angular momentum: 4

  Minimum eigenvalue in the overlap matrix is 9.7227601480E-03.
  Using Symmetric Orthogonalization.

  SCF Guess: Superposition of Atomic Densities via on-the-fly atomic UHF.

  ==> Iterations <==

                           Total Energy        Delta E     RMS |[F,P]|

   @DF-RHF iter SAD:   -56.49773115895246   -5.64977e+01   0.00000e+00 
   @DF-RHF iter   1:   -56.51435208588835   -1.66209e-02   6.34427e-03 DIIS
   @DF-RHF iter   2:   -56.55325607493865   -3.89040e-02   2.18342e-03 DIIS
   @DF-RHF iter   3:   -56.55722566418037   -3.96959e-03   6.96613e-04 DIIS
   @DF-RHF iter   4:   -56.55783114119817   -6.05477e-04   1.11881e-04 DIIS
   @DF-RHF iter   5:   -56.55784427260787   -1.31314e-05   6.87440e-06 DIIS
   @DF-RHF iter   6:   -56.55784435151482   -7.89069e-08   7.24734e-07 DIIS
   @DF-RHF iter   7:   -56.55784435209326   -5.78439e-10   3.99165e-08 DIIS
   @DF-RHF iter   8:   -56.55784435209490   -1.64135e-12   4.53406e-09 DIIS
   @DF-RHF iter   9:   -56.55784435209491   -1.42109e-14   2.67288e-10 DIIS
   @DF-RHF iter  10:   -56.55784435209488    3.55271e-14   1.36849e-11 DIIS
  Energy and wave function converged.


  ==> Post-Iterations <==

    Orbital Energies [Eh]
    ---------------------

    Doubly Occupied:                                                      

       1A    -15.941058     2A     -1.543538     3A     -0.997252  
       4A     -0.997160     5A     -0.997104  

    Virtual:                                                              

       6A     -0.107035     7A     -0.017030     8A     -0.017021  
       9A     -0.017010    10A      0.185217    11A      0.185253  
      12A      0.185306    13A      0.427361    14A      0.606430  
      15A      0.606435    16A      0.606453    17A      0.881203  
      18A      0.935836    19A      0.935899    20A      1.436524  
      21A      1.436562    22A      1.436698    23A      1.613616  
      24A      1.613625    25A      1.613676    26A      2.037353  
      27A      2.037382    28A      2.037629    29A      2.185469  
      30A      2.387304    31A      2.387404    32A      2.387450  
      33A      2.675576    34A      2.675621    35A      2.871085  
      36A      3.044520    37A      3.044618    38A      3.044682  
      39A      4.858609    40A      4.858906    41A      4.859297  
      42A     36.681529  

    Final Occupation by Irrep:
              A 
    DOCC [     5 ]

  @DF-RHF Final Energy:   -56.55784435209488

   => Energetics <=

    Nuclear Repulsion Energy =             16.2974856203962908
    One-Electron Energy =                -104.7584332637254363
    Two-Electron Energy =                  31.9031032912342773
    Total Energy =                        -56.5578443520948753

Computation Completed

*** tstop() called on node44.bme.utexas.edu at Thu Nov  4 21:43:00 2021
Module time:
	user time   =       1.10 seconds =       0.02 minutes
	system time =       0.05 seconds =       0.00 minutes
	total time  =          3 seconds =       0.05 minutes
Total time:
	user time   =       1.10 seconds =       0.02 minutes
	system time =       0.05 seconds =       0.00 minutes
	total time  =          3 seconds =       0.05 minutes
   => Loading Basis Set <=

    Name: (6-311G** AUX)
    Role: RIFIT
    Keyword: DF_BASIS_MP2
    atoms 1, 3-5 entry H          line    19 file /home/bdw2292/miniconda3/envs/amoebamdpoltype/share/psi4/basis/cc-pvtz-ri.gbs 
    atoms 2      entry N          line   257 file /home/bdw2292/miniconda3/envs/amoebamdpoltype/share/psi4/basis/cc-pvtz-ri.gbs 


*** tstart() called on node44.bme.utexas.edu
*** at Thu Nov  4 21:43:00 2021


  //>>>>>>>>>>>>>>>>>>>>>>>>>>>>>>>>>>>//
  //               DFMP2               //
  //<<<<<<<<<<<<<<<<<<<<<<<<<<<<<<<<<<<//

	 --------------------------------------------------------
	                          DF-MP2                         
	      2nd-Order Density-Fitted Moller-Plesset Theory     
	              RMP2 Wavefunction,   1 Threads             
	                                                         
	        Rob Parrish, Justin Turney, Andy Simmonett,      
	           Ed Hohenstein, and C. David Sherrill          
	 --------------------------------------------------------

   => Auxiliary Basis Set <=

  Basis Set: (6-311G** AUX)
    Blend: CC-PVTZ-RI
    Number of shells: 63
    Number of basis function: 201
    Number of Cartesian functions: 241
    Spherical Harmonics?: true
    Max angular momentum: 4

	 --------------------------------------------------------
	                 NBF =    42, NAUX =   201
	 --------------------------------------------------------
	   CLASS    FOCC     OCC    AOCC    AVIR     VIR    FVIR
	   PAIRS       1       5       4      37      37       0
	 --------------------------------------------------------

  DFHelper Memory: AOs need 0.003 GiB; user supplied 5.821 GiB. Using in-core AOs.


         ------------------------------------------------------------
                                     CPHF                           
                                  Rob Parrish                       
         ------------------------------------------------------------

  ==> Geometry <==

    Molecular point group: c1
    Full point group: C1

    Geometry (in Angstrom), charge = 1, multiplicity = 1:

       Center              X                  Y                   Z               Mass       
    ------------   -----------------  -----------------  -----------------  -----------------
         H           -0.629170742012    -0.668177243782    -0.464172182973     1.007825032230
         N            0.000041163373    -0.000018505242     0.000024656053    14.003074004430
         H           -0.486161057204     0.431583579298     0.796874202910     1.007825032230
         H            0.277328732592     0.730562064628    -0.668704587620     1.007825032230
         H            0.837431128296    -0.493711281831     0.335659987848     1.007825032230

  Nuclear repulsion =   16.297485620396291
  Reference energy  =  -56.557844352094875

  ==> Basis Set <==

  Basis Set: 6-311G**
    Blend: 6-311G**
    Number of shells: 24
    Number of basis function: 42
    Number of Cartesian functions: 43
    Spherical Harmonics?: true
    Max angular momentum: 2

  ==> CGRSolver (by Rob Parrish) <==

   Number of roots    =         1
   Preconditioning    =    JACOBI
   Convergence cutoff =     1E-06
   Maximum iterations =       100

  ==> CPHFRHamiltonian (by Rob Parrish) <== 

  ==> MemDFJK: Density-Fitted J/K Matrices <==

    J tasked:                   Yes
    K tasked:                   Yes
    wK tasked:                   No
    OpenMP threads:               1
    Memory [MiB]:              5960
    Algorithm:                 Core
    Schwarz Cutoff:           1E-12
    Mask sparsity (%):       0.0000
    Fitting Condition:        1E-10

   => Auxiliary Basis Set <=

  Basis Set: (6-311G** AUX)
    Blend: CC-PVTZ-JKFIT
    Number of shells: 65
    Number of basis function: 199
    Number of Cartesian functions: 236
    Spherical Harmonics?: true
    Max angular momentum: 4

  ==> CPHF Iterations <==

  => Iterations <=

             Iter  Converged  Remaining    Residual
  CGR           1          0          1   4.740E-02
  CGR           2          0          1   6.199E-03
  CGR           3          0          1   7.879E-04
  CGR           4          0          1   3.646E-05
  CGR           5          0          1   3.093E-06
  CGR           6          1          0   3.027E-07

    CGRSolver converged.

	-----------------------------------------------------------
	 ==================> DF-MP2 Energies <==================== 
	-----------------------------------------------------------
	 Reference Energy          =     -56.5578443520948753 [Eh]
	 Singles Energy            =      -0.0000000000000000 [Eh]
	 Same-Spin Energy          =      -0.0427457044788795 [Eh]
	 Opposite-Spin Energy      =      -0.1544330657762522 [Eh]
	 Correlation Energy        =      -0.1971787702551317 [Eh]
	 Total Energy              =     -56.7550231223500035 [Eh]
	-----------------------------------------------------------
	 ================> DF-SCS-MP2 Energies <================== 
	-----------------------------------------------------------
	 SCS Same-Spin Scale       =       0.3333333333333333 [-]
	 SCS Opposite-Spin Scale   =       1.2000000000000000 [-]
	 SCS Same-Spin Energy      =      -0.0142485681596265 [Eh]
	 SCS Opposite-Spin Energy  =      -0.1853196789315026 [Eh]
	 SCS Correlation Energy    =      -0.1995682470911291 [Eh]
	 SCS Total Energy          =     -56.7574125991860043 [Eh]
	-----------------------------------------------------------



Properties will be evaluated at   0.000000,  -0.000000,   0.000000 [a0]

Properties computed using the MP2 density matrix

  Nuclear Dipole Moment: [e a0]
     X:    -0.0005      Y:     0.0002      Z:    -0.0003

  Electronic Dipole Moment: [e a0]
     X:     0.0002      Y:    -0.0001      Z:     0.0001

  Dipole Moment: [e a0]
     X:    -0.0003      Y:     0.0001      Z:    -0.0002     Total:     0.0004

  Dipole Moment: [D]
     X:    -0.0008      Y:     0.0004      Z:    -0.0005     Total:     0.0010


*** tstop() called on node44.bme.utexas.edu at Thu Nov  4 21:43:01 2021
Module time:
	user time   =       0.86 seconds =       0.01 minutes
	system time =       0.03 seconds =       0.00 minutes
	total time  =          1 seconds =       0.02 minutes
Total time:
	user time   =       2.02 seconds =       0.03 minutes
	system time =       0.08 seconds =       0.00 minutes
	total time  =          4 seconds =       0.07 minutes
  ==> One Electron Grid Properties (v2.0) <==

  ==> CubicScalarGrid <==

    Filepath     = .
    Total Points =           166375
    XYZ Blocking =               10
    X Points     =               55
    Y Points     =               55
    Z Points     =               55
    X Spacing    =        2.000E-01
    Y Spacing    =        2.000E-01
    Z Spacing    =        2.000E-01
    X Minimum    =       -5.203E+00
    Y Minimum    =       -5.341E+00
    Z Minimum    =       -5.279E+00
    X Maximum    =        5.597E+00
    Y Maximum    =        5.459E+00
    Z Maximum    =        5.521E+00

  Basis Set: 6-311G**
    Blend: 6-311G**
    Number of shells: 24
    Number of basis function: 42
    Number of Cartesian functions: 43
    Spherical Harmonics?: true
    Max angular momentum: 2


    Psi4 stopped on: Thursday, 04 November 2021 09:43PM
    Psi4 wall time for execution: 0:00:10.67

*** Psi4 exiting successfully. Buy a developer a beer!
