
    -----------------------------------------------------------------------
          Psi4: An Open-Source Ab Initio Electronic Structure Package
                               Psi4 1.3.2 release

                         Git: Rev {HEAD} ecbda83 


    R. M. Parrish, L. A. Burns, D. G. A. Smith, A. C. Simmonett,
    A. E. DePrince III, E. G. Hohenstein, U. Bozkaya, A. Yu. Sokolov,
    R. Di Remigio, R. M. Richard, J. F. Gonthier, A. M. James,
    H. R. McAlexander, A. Kumar, M. Saitow, X. Wang, B. P. Pritchard,
    P. Verma, H. F. Schaefer III, K. Patkowski, R. A. King, E. F. Valeev,
    F. A. Evangelista, J. M. Turney, T. D. Crawford, and C. D. Sherrill,
    J. Chem. Theory Comput. 13(7) pp 3185--3197 (2017).
    (doi: 10.1021/acs.jctc.7b00174)


                         Additional Contributions by
    P. Kraus, H. Kruse, M. H. Lechner, M. C. Schieber, R. A. Shaw,
    A. Alenaizan, R. Galvelis, Z. L. Glick, S. Lehtola, and J. P. Misiewicz

    -----------------------------------------------------------------------


    Psi4 started on: Tuesday, 22 February 2022 06:16PM

    Process ID: 30621
    Host:       node37.bme.utexas.edu
    PSIDATADIR: /home/bdw2292/miniconda3/envs/amoebamdpoltype/share/psi4
    Memory:     500.0 MiB
    Threads:    1
    
  ==> Input File <==

--------------------------------------------------------------------------
molecule { 
0 1
 Cl                 -0.1579851    -0.2358107     1.5789989
 Cl                 -0.5853312     1.5314563    -0.6626172
 Cl                 -0.0039900    -1.2608089    -1.1136819
 Cl                  2.0634563     0.5020987    -0.1198940
  C                  0.3323723     0.1352885    -0.0797709
--
0 1
  O                 -3.0359785    -1.3761196     2.2857360
  H                 -2.9000141    -2.3234828     2.2839693
  H                 -2.6262186    -1.0108686     1.5012907
}
memory 15GB
set_num_threads(4)
psi4_io.set_default_path("/scratch/bdw2292/Psi4-CCl4")
set maxiter 500
set freeze_core True
set PROPERTIES_ORIGIN ["COM"]
e_dim= energy('mp2/aug-cc-pV[TQ]Z',bsse_type='cp')

psi4.print_out('CP Energy = %10.6f' % (e_dim))
clean()
--------------------------------------------------------------------------

  Memory set to  13.970 GiB by Python driver.
  Threads set to 4 by Python driver.


   ===> N-Body Interaction Abacus <===
        BSSE Treatment:                     cp
        Number of 1-body computations:     4
        Number of 2-body computations:     1

   ==> N-Body: Now computing 1-body complexes <==


       N-Body: Computing complex (1/4) with fragments (2,) in the basis of fragments (2,).


  //>>>>>>>>>>>>>>>>>>>>>>>>>>>>>>>>>>>//
  //   CBS Setup: mp2/aug-cc-pV[TQ]Z   //
  //<<<<<<<<<<<<<<<<<<<<<<<<<<<<<<<<<<<//

    Naive listing of computations required.
             hf / aug-cc-pvqz              for  HF TOTAL ENERGY
            mp2 / aug-cc-pvtz              for  MP2 TOTAL ENERGY
            mp2 / aug-cc-pvqz              for  MP2 TOTAL ENERGY
             hf / aug-cc-pvtz              for  HF TOTAL ENERGY
             hf / aug-cc-pvqz              for  HF TOTAL ENERGY

    Enlightened listing of computations required.
            mp2 / aug-cc-pvtz              for  MP2 TOTAL ENERGY
            mp2 / aug-cc-pvqz              for  MP2 TOTAL ENERGY

    Full listing of computations to be obtained (required and bonus).
             hf / aug-cc-pvtz              for  HF TOTAL ENERGY
            mp2 / aug-cc-pvtz              for  MP2 TOTAL ENERGY
             hf / aug-cc-pvqz              for  HF TOTAL ENERGY
            mp2 / aug-cc-pvqz              for  MP2 TOTAL ENERGY

  //>>>>>>>>>>>>>>>>>>>>>>>>>>>>>>>>>>>>//
  // CBS Computation: MP2 / AUG-CC-PVTZ //
  //<<<<<<<<<<<<<<<<<<<<<<<<<<<<<<<<<<<<//

    SCF Algorithm Type (re)set to DF.

*** tstart() called on node37.bme.utexas.edu
*** at Tue Feb 22 18:16:45 2022

   => Loading Basis Set <=

    Name: AUG-CC-PVTZ
    Role: ORBITAL
    Keyword: BASIS
    atoms 1   entry O          line   327 file /home/bdw2292/miniconda3/envs/amoebamdpoltype/share/psi4/basis/aug-cc-pvtz.gbs 
    atoms 2-3 entry H          line    36 file /home/bdw2292/miniconda3/envs/amoebamdpoltype/share/psi4/basis/aug-cc-pvtz.gbs 


         ---------------------------------------------------------
                                   SCF
               by Justin Turney, Rob Parrish, Andy Simmonett
                          and Daniel G. A. Smith
                              RHF Reference
                        4 Threads,  14305 MiB Core
         ---------------------------------------------------------

  ==> Geometry <==

    Molecular point group: c1
    Full point group: C1

    Geometry (in Angstrom), charge = 0, multiplicity = 1:

       Center              X                  Y                   Z               Mass       
    ------------   -----------------  -----------------  -----------------  -----------------
         O           -3.011744778082    -1.346853609084     2.119001436866    15.994914619570
         H           -2.875780378082    -2.294216809084     2.117234736866     1.007825032230
         H           -2.601984878082    -0.981602609084     1.334556136866     1.007825032230

  Running in c1 symmetry.

  Rotational constants: A =     16.96809  B =      0.06179  C =      0.06163 [cm^-1]
  Rotational constants: A = 508690.47993  B =   1852.42012  C =   1847.71580 [MHz]
  Nuclear repulsion =    9.185801642412740

  Charge       = 0
  Multiplicity = 1
  Electrons    = 10
  Nalpha       = 5
  Nbeta        = 5

  ==> Algorithm <==

  SCF Algorithm Type is DF.
  DIIS enabled.
  MOM disabled.
  Fractional occupation disabled.
  Guess Type is SAD.
  Energy threshold   = 1.00e-08
  Density threshold  = 1.00e-08
  Integral threshold = 0.00e+00

  ==> Primary Basis <==

  Basis Set: AUG-CC-PVTZ
    Blend: AUG-CC-PVTZ
    Number of shells: 32
    Number of basis function: 92
    Number of Cartesian functions: 105
    Spherical Harmonics?: true
    Max angular momentum: 3

   => Loading Basis Set <=

    Name: (AUG-CC-PVTZ AUX)
    Role: JKFIT
    Keyword: DF_BASIS_SCF
    atoms 1   entry O          line   286 file /home/bdw2292/miniconda3/envs/amoebamdpoltype/share/psi4/basis/aug-cc-pvtz-jkfit.gbs 
    atoms 2-3 entry H          line    70 file /home/bdw2292/miniconda3/envs/amoebamdpoltype/share/psi4/basis/aug-cc-pvtz-jkfit.gbs 

  ==> Pre-Iterations <==

   -------------------------------------------------------
    Irrep   Nso     Nmo     Nalpha   Nbeta   Ndocc  Nsocc
   -------------------------------------------------------
     A         92      92       0       0       0       0
   -------------------------------------------------------
    Total      92      92       5       5       5       0
   -------------------------------------------------------

  ==> Integral Setup <==

  DFHelper Memory: AOs need 0.015 GiB; user supplied 10.477 GiB. Using in-core AOs.

  ==> MemDFJK: Density-Fitted J/K Matrices <==

    J tasked:                   Yes
    K tasked:                   Yes
    wK tasked:                   No
    OpenMP threads:               4
    Memory [MiB]:             10728
    Algorithm:                 Core
    Schwarz Cutoff:           1E-12
    Mask sparsity (%):       0.0000
    Fitting Condition:        1E-10

   => Auxiliary Basis Set <=

  Basis Set: (AUG-CC-PVTZ AUX)
    Blend: AUG-CC-PVTZ-JKFIT
    Number of shells: 58
    Number of basis function: 196
    Number of Cartesian functions: 241
    Spherical Harmonics?: true
    Max angular momentum: 4

  Minimum eigenvalue in the overlap matrix is 3.7713644416E-04.
  Using Symmetric Orthogonalization.

  SCF Guess: Superposition of Atomic Densities via on-the-fly atomic UHF.

  ==> Iterations <==

                           Total Energy        Delta E     RMS |[F,P]|

   @DF-RHF iter SAD:   -75.47424655274936   -7.54742e+01   0.00000e+00 
   @DF-RHF iter   1:   -75.97661247198116   -5.02366e-01   5.09432e-03 DIIS
   @DF-RHF iter   2:   -76.02903742526054   -5.24250e-02   3.45127e-03 DIIS
   @DF-RHF iter   3:   -76.06004514406450   -3.10077e-02   2.34367e-04 DIIS
   @DF-RHF iter   4:   -76.06043446187259   -3.89318e-04   5.59271e-05 DIIS
   @DF-RHF iter   5:   -76.06045835889630   -2.38970e-05   1.25864e-05 DIIS
   @DF-RHF iter   6:   -76.06046030950722   -1.95061e-06   2.80100e-06 DIIS
   @DF-RHF iter   7:   -76.06046041701168   -1.07504e-07   5.29489e-07 DIIS
   @DF-RHF iter   8:   -76.06046042042098   -3.40930e-09   8.77989e-08 DIIS
   @DF-RHF iter   9:   -76.06046042049483   -7.38538e-11   2.18082e-08 DIIS
   @DF-RHF iter  10:   -76.06046042049887   -4.03588e-12   2.97388e-09 DIIS
  Energy and wave function converged.


  ==> Post-Iterations <==

    Orbital Energies [Eh]
    ---------------------

    Doubly Occupied:                                                      

       1A    -20.565463     2A     -1.350864     3A     -0.725165  
       4A     -0.577412     5A     -0.509210  

    Virtual:                                                              

       6A      0.029673     7A      0.047446     8A      0.136479  
       9A      0.157854    10A      0.174284    11A      0.182041  
      12A      0.228859    13A      0.244474    14A      0.263858  
      15A      0.304710    16A      0.313215    17A      0.365239  
      18A      0.438011    19A      0.466841    20A      0.602237  
      21A      0.654317    22A      0.711132    23A      0.719306  
      24A      0.731246    25A      0.828116    26A      0.843801  
      27A      0.889963    28A      0.912956    29A      0.920688  
      30A      0.923849    31A      0.927966    32A      0.971281  
      33A      1.023101    34A      1.045412    35A      1.085182  
      36A      1.114160    37A      1.172834    38A      1.177487  
      39A      1.259505    40A      1.514536    41A      1.563390  
      42A      1.596045    43A      1.785479    44A      1.797082  
      45A      2.003752    46A      2.116170    47A      2.259713  
      48A      2.318703    49A      2.320959    50A      2.413425  
      51A      2.414619    52A      2.438547    53A      2.471456  
      54A      2.686618    55A      2.703103    56A      2.768376  
      57A      2.857117    58A      2.884021    59A      3.645779  
      60A      3.770142    61A      4.007581    62A      4.090534  
      63A      4.211880    64A      4.231757    65A      4.335926  
      66A      4.382024    67A      4.401064    68A      4.416261  
      69A      4.493647    70A      4.708139    71A      4.813516  
      72A      5.125431    73A      5.173416    74A      5.306616  
      75A      5.331561    76A      5.514360    77A      5.721982  
      78A      6.140523    79A      6.534295    80A      6.713484  
      81A      6.859443    82A      7.146514    83A      7.263114  
      84A      7.298980    85A      7.308583    86A      7.371156  
      87A      7.388619    88A      7.559527    89A      7.898639  
      90A      7.964625    91A      8.790849    92A     15.869048  

    Final Occupation by Irrep:
              A 
    DOCC [     5 ]

  @DF-RHF Final Energy:   -76.06046042049887

   => Energetics <=

    Nuclear Repulsion Energy =              9.1858016424127396
    One-Electron Energy =                -123.0362940409290928
    Two-Electron Energy =                  37.7900319780174740
    Total Energy =                        -76.0604604204988846

Computation Completed


Properties will be evaluated at  -5.633666,  -2.606739,   3.921195 [a0]

Properties computed using the SCF density matrix

  Nuclear Dipole Moment: [e a0]
     X:     0.4542      Y:    -0.4845      Z:    -0.6544

  Electronic Dipole Moment: [e a0]
     X:    -0.0866      Y:     0.0924      Z:     0.1248

  Dipole Moment: [e a0]
     X:     0.3676      Y:    -0.3921      Z:    -0.5295     Total:     0.7545

  Dipole Moment: [D]
     X:     0.9342      Y:    -0.9967      Z:    -1.3459     Total:     1.9177


*** tstop() called on node37.bme.utexas.edu at Tue Feb 22 18:16:49 2022
Module time:
	user time   =       6.48 seconds =       0.11 minutes
	system time =       0.49 seconds =       0.01 minutes
	total time  =          4 seconds =       0.07 minutes
Total time:
	user time   =       6.48 seconds =       0.11 minutes
	system time =       0.49 seconds =       0.01 minutes
	total time  =          4 seconds =       0.07 minutes

*** tstart() called on node37.bme.utexas.edu
*** at Tue Feb 22 18:16:49 2022


  //>>>>>>>>>>>>>>>>>>>>>>>>>>>>>>>>>>>//
  //               DFMP2               //
  //<<<<<<<<<<<<<<<<<<<<<<<<<<<<<<<<<<<//

   => Loading Basis Set <=

    Name: (AUG-CC-PVTZ AUX)
    Role: RIFIT
    Keyword: DF_BASIS_MP2
    atoms 1   entry O          line   264 file /home/bdw2292/miniconda3/envs/amoebamdpoltype/share/psi4/basis/aug-cc-pvtz-ri.gbs 
    atoms 2-3 entry H          line    30 file /home/bdw2292/miniconda3/envs/amoebamdpoltype/share/psi4/basis/aug-cc-pvtz-ri.gbs 

	 --------------------------------------------------------
	                          DF-MP2                         
	      2nd-Order Density-Fitted Moller-Plesset Theory     
	              RMP2 Wavefunction,   4 Threads             
	                                                         
	        Rob Parrish, Justin Turney, Andy Simmonett,      
	           Ed Hohenstein, and C. David Sherrill          
	 --------------------------------------------------------

   => Auxiliary Basis Set <=

  Basis Set: (AUG-CC-PVTZ AUX)
    Blend: AUG-CC-PVTZ-RI
    Number of shells: 56
    Number of basis function: 198
    Number of Cartesian functions: 246
    Spherical Harmonics?: true
    Max angular momentum: 4

	 --------------------------------------------------------
	                 NBF =    92, NAUX =   198
	 --------------------------------------------------------
	   CLASS    FOCC     OCC    AOCC    AVIR     VIR    FVIR
	   PAIRS       1       5       4      87      87       0
	 --------------------------------------------------------

	-----------------------------------------------------------
	 ==================> DF-MP2 Energies <==================== 
	-----------------------------------------------------------
	 Reference Energy          =     -76.0604604204988703 [Eh]
	 Singles Energy            =      -0.0000000000000000 [Eh]
	 Same-Spin Energy          =      -0.0650895808719694 [Eh]
	 Opposite-Spin Energy      =      -0.2029601751510774 [Eh]
	 Correlation Energy        =      -0.2680497560230469 [Eh]
	 Total Energy              =     -76.3285101765219167 [Eh]
	-----------------------------------------------------------
	 ================> DF-SCS-MP2 Energies <================== 
	-----------------------------------------------------------
	 SCS Same-Spin Scale       =       0.3333333333333333 [-]
	 SCS Opposite-Spin Scale   =       1.2000000000000000 [-]
	 SCS Same-Spin Energy      =      -0.0216965269573231 [Eh]
	 SCS Opposite-Spin Energy  =      -0.2435522101812929 [Eh]
	 SCS Correlation Energy    =      -0.2652487371386161 [Eh]
	 SCS Total Energy          =     -76.3257091576374904 [Eh]
	-----------------------------------------------------------


*** tstop() called on node37.bme.utexas.edu at Tue Feb 22 18:16:50 2022
Module time:
	user time   =       1.78 seconds =       0.03 minutes
	system time =       0.15 seconds =       0.00 minutes
	total time  =          1 seconds =       0.02 minutes
Total time:
	user time   =       8.27 seconds =       0.14 minutes
	system time =       0.64 seconds =       0.01 minutes
	total time  =          5 seconds =       0.08 minutes

  //>>>>>>>>>>>>>>>>>>>>>>>>>>>>>>>>>>>>//
  // CBS Computation: MP2 / AUG-CC-PVQZ //
  //<<<<<<<<<<<<<<<<<<<<<<<<<<<<<<<<<<<<//

    SCF Algorithm Type (re)set to DF.

*** tstart() called on node37.bme.utexas.edu
*** at Tue Feb 22 18:16:50 2022

   => Loading Basis Set <=

    Name: AUG-CC-PVQZ
    Role: ORBITAL
    Keyword: BASIS
    atoms 1   entry O          line   419 file /home/bdw2292/miniconda3/envs/amoebamdpoltype/share/psi4/basis/aug-cc-pvqz.gbs 
    atoms 2-3 entry H          line    36 file /home/bdw2292/miniconda3/envs/amoebamdpoltype/share/psi4/basis/aug-cc-pvqz.gbs 


         ---------------------------------------------------------
                                   SCF
               by Justin Turney, Rob Parrish, Andy Simmonett
                          and Daniel G. A. Smith
                              RHF Reference
                        4 Threads,  14305 MiB Core
         ---------------------------------------------------------

  ==> Geometry <==

    Molecular point group: c1
    Full point group: C1

    Geometry (in Angstrom), charge = 0, multiplicity = 1:

       Center              X                  Y                   Z               Mass       
    ------------   -----------------  -----------------  -----------------  -----------------
         O           -3.011744778082    -1.346853609084     2.119001436866    15.994914619570
         H           -2.875780378082    -2.294216809084     2.117234736866     1.007825032230
         H           -2.601984878082    -0.981602609084     1.334556136866     1.007825032230

  Running in c1 symmetry.

  Rotational constants: A =     16.96809  B =      0.06179  C =      0.06163 [cm^-1]
  Rotational constants: A = 508690.47993  B =   1852.42012  C =   1847.71580 [MHz]
  Nuclear repulsion =    9.185801642412740

  Charge       = 0
  Multiplicity = 1
  Electrons    = 10
  Nalpha       = 5
  Nbeta        = 5

  ==> Algorithm <==

  SCF Algorithm Type is DF.
  DIIS enabled.
  MOM disabled.
  Fractional occupation disabled.
  Guess Type is SAD.
  Energy threshold   = 1.00e-08
  Density threshold  = 1.00e-08
  Integral threshold = 0.00e+00

  ==> Primary Basis <==

  Basis Set: AUG-CC-PVQZ
    Blend: AUG-CC-PVQZ
    Number of shells: 48
    Number of basis function: 172
    Number of Cartesian functions: 215
    Spherical Harmonics?: true
    Max angular momentum: 4

   => Loading Basis Set <=

    Name: (AUG-CC-PVQZ AUX)
    Role: JKFIT
    Keyword: DF_BASIS_SCF
    atoms 1   entry O          line   318 file /home/bdw2292/miniconda3/envs/amoebamdpoltype/share/psi4/basis/aug-cc-pvqz-jkfit.gbs 
    atoms 2-3 entry H          line    70 file /home/bdw2292/miniconda3/envs/amoebamdpoltype/share/psi4/basis/aug-cc-pvqz-jkfit.gbs 

  ==> Pre-Iterations <==

   -------------------------------------------------------
    Irrep   Nso     Nmo     Nalpha   Nbeta   Ndocc  Nsocc
   -------------------------------------------------------
     A        172     172       0       0       0       0
   -------------------------------------------------------
    Total     172     172       5       5       5       0
   -------------------------------------------------------

  ==> Integral Setup <==

  DFHelper Memory: AOs need 0.074 GiB; user supplied 10.477 GiB. Using in-core AOs.

  ==> MemDFJK: Density-Fitted J/K Matrices <==

    J tasked:                   Yes
    K tasked:                   Yes
    wK tasked:                   No
    OpenMP threads:               4
    Memory [MiB]:             10728
    Algorithm:                 Core
    Schwarz Cutoff:           1E-12
    Mask sparsity (%):       0.0000
    Fitting Condition:        1E-10

   => Auxiliary Basis Set <=

  Basis Set: (AUG-CC-PVQZ AUX)
    Blend: AUG-CC-PVQZ-JKFIT
    Number of shells: 70
    Number of basis function: 294
    Number of Cartesian functions: 400
    Spherical Harmonics?: true
    Max angular momentum: 5

  Minimum eigenvalue in the overlap matrix is 8.5316458499E-05.
  Using Symmetric Orthogonalization.

  SCF Guess: Superposition of Atomic Densities via on-the-fly atomic UHF.

  ==> Iterations <==

                           Total Energy        Delta E     RMS |[F,P]|

   @DF-RHF iter SAD:   -75.47940325697819   -7.54794e+01   0.00000e+00 
   @DF-RHF iter   1:   -75.98169563653721   -5.02292e-01   2.73064e-03 DIIS
   @DF-RHF iter   2:   -76.03422505889731   -5.25294e-02   1.85426e-03 DIIS
   @DF-RHF iter   3:   -76.06543080213551   -3.12057e-02   1.26271e-04 DIIS
   @DF-RHF iter   4:   -76.06582217567637   -3.91374e-04   3.08317e-05 DIIS
   @DF-RHF iter   5:   -76.06584696969627   -2.47940e-05   6.91309e-06 DIIS
   @DF-RHF iter   6:   -76.06584900240293   -2.03271e-06   1.57968e-06 DIIS
   @DF-RHF iter   7:   -76.06584912112072   -1.18718e-07   3.08185e-07 DIIS
   @DF-RHF iter   8:   -76.06584912513802   -4.01729e-09   4.93005e-08 DIIS
   @DF-RHF iter   9:   -76.06584912522163   -8.36167e-11   1.19303e-08 DIIS
   @DF-RHF iter  10:   -76.06584912522553   -3.89377e-12   1.65814e-09 DIIS
  Energy and wave function converged.


  ==> Post-Iterations <==

    Orbital Energies [Eh]
    ---------------------

    Doubly Occupied:                                                      

       1A    -20.563008     2A     -1.350139     3A     -0.725131  
       4A     -0.577465     5A     -0.509339  

    Virtual:                                                              

       6A      0.027150     7A      0.042878     8A      0.114698  
       9A      0.132605    10A      0.150358    11A      0.157868  
      12A      0.185987    13A      0.197123    14A      0.208281  
      15A      0.241316    16A      0.258926    17A      0.290441  
      18A      0.358139    19A      0.390643    20A      0.471818  
      21A      0.506734    22A      0.543005    23A      0.545727  
      24A      0.554134    25A      0.613323    26A      0.634205  
      27A      0.649599    28A      0.662634    29A      0.665786  
      30A      0.690250    31A      0.705193    32A      0.714953  
      33A      0.769589    34A      0.787720    35A      0.803464  
      36A      0.810013    37A      0.846688    38A      0.855340  
      39A      0.967425    40A      1.134262    41A      1.140802  
      42A      1.216819    43A      1.329104    44A      1.418329  
      45A      1.480584    46A      1.506135    47A      1.521789  
      48A      1.525060    49A      1.555868    50A      1.595412  
      51A      1.618170    52A      1.636747    53A      1.659569  
      54A      1.672484    55A      1.685923    56A      1.702517  
      57A      1.719862    58A      1.763373    59A      1.781481  
      60A      1.793883    61A      1.828628    62A      1.862865  
      63A      1.881926    64A      1.900665    65A      1.954059  
      66A      2.013829    67A      2.021589    68A      2.029486  
      69A      2.098909    70A      2.218825    71A      2.225764  
      72A      2.307190    73A      2.492376    74A      2.642454  
      75A      2.643732    76A      2.891203    77A      2.962624  
      78A      3.010322    79A      3.023938    80A      3.061683  
      81A      3.088607    82A      3.253444    83A      3.283414  
      84A      3.310897    85A      3.529981    86A      3.591058  
      87A      3.658308    88A      3.681840    89A      3.741308  
      90A      3.741820    91A      3.920805    92A      4.066428  
      93A      4.159346    94A      4.170373    95A      4.174756  
      96A      4.181104    97A      4.250726    98A      4.344270  
      99A      4.418918   100A      4.566488   101A      4.664193  
     102A      4.761127   103A      4.803105   104A      4.807284  
     105A      4.839836   106A      4.875802   107A      4.998728  
     108A      5.276199   109A      5.315823   110A      5.513406  
     111A      5.548492   112A      5.878851   113A      5.883256  
     114A      6.080783   115A      6.231356   116A      6.836372  
     117A      6.859572   118A      6.862057   119A      6.956176  
     120A      7.714770   121A      7.780016   122A      7.828928  
     123A      7.846461   124A      7.879036   125A      7.919511  
     126A      7.946847   127A      8.006977   128A      8.198475  
     129A      8.339518   130A      8.537446   131A      8.591322  
     132A      8.705660   133A      8.758649   134A      8.800361  
     135A      8.876390   136A      8.981694   137A      9.063994  
     138A      9.143469   139A      9.530048   140A      9.843569  
     141A      9.963682   142A      9.966906   143A     10.014197  
     144A     10.441389   145A     10.479391   146A     10.653085  
     147A     10.993404   148A     11.038641   149A     11.077645  
     150A     11.259946   151A     11.369269   152A     11.439227  
     153A     11.697827   154A     11.797003   155A     11.834577  
     156A     12.013208   157A     12.175796   158A     12.226385  
     159A     12.532958   160A     12.737983   161A     12.877379  
     162A     12.896367   163A     13.211003   164A     14.001566  
     165A     14.040483   166A     14.490549   167A     14.848925  
     168A     14.878822   169A     15.304715   170A     16.929842  
     171A     17.269133   172A     45.495338  

    Final Occupation by Irrep:
              A 
    DOCC [     5 ]

  @DF-RHF Final Energy:   -76.06584912522553

   => Energetics <=

    Nuclear Repulsion Energy =              9.1858016424127396
    One-Electron Energy =                -123.0531388686403318
    Two-Electron Energy =                  37.8014881010020716
    Total Energy =                        -76.0658491252255260

Computation Completed


Properties will be evaluated at  -5.633666,  -2.606739,   3.921195 [a0]

Properties computed using the SCF density matrix

  Nuclear Dipole Moment: [e a0]
     X:     0.4542      Y:    -0.4845      Z:    -0.6544

  Electronic Dipole Moment: [e a0]
     X:    -0.0871      Y:     0.0928      Z:     0.1254

  Dipole Moment: [e a0]
     X:     0.3671      Y:    -0.3917      Z:    -0.5289     Total:     0.7536

  Dipole Moment: [D]
     X:     0.9332      Y:    -0.9955      Z:    -1.3444     Total:     1.9155


*** tstop() called on node37.bme.utexas.edu at Tue Feb 22 18:16:55 2022
Module time:
	user time   =      10.36 seconds =       0.17 minutes
	system time =       0.79 seconds =       0.01 minutes
	total time  =          5 seconds =       0.08 minutes
Total time:
	user time   =      18.67 seconds =       0.31 minutes
	system time =       1.43 seconds =       0.02 minutes
	total time  =         10 seconds =       0.17 minutes

*** tstart() called on node37.bme.utexas.edu
*** at Tue Feb 22 18:16:55 2022


  //>>>>>>>>>>>>>>>>>>>>>>>>>>>>>>>>>>>//
  //               DFMP2               //
  //<<<<<<<<<<<<<<<<<<<<<<<<<<<<<<<<<<<//

   => Loading Basis Set <=

    Name: (AUG-CC-PVQZ AUX)
    Role: RIFIT
    Keyword: DF_BASIS_MP2
    atoms 1   entry O          line   332 file /home/bdw2292/miniconda3/envs/amoebamdpoltype/share/psi4/basis/aug-cc-pvqz-ri.gbs 
    atoms 2-3 entry H          line    30 file /home/bdw2292/miniconda3/envs/amoebamdpoltype/share/psi4/basis/aug-cc-pvqz-ri.gbs 

	 --------------------------------------------------------
	                          DF-MP2                         
	      2nd-Order Density-Fitted Moller-Plesset Theory     
	              RMP2 Wavefunction,   4 Threads             
	                                                         
	        Rob Parrish, Justin Turney, Andy Simmonett,      
	           Ed Hohenstein, and C. David Sherrill          
	 --------------------------------------------------------

   => Auxiliary Basis Set <=

  Basis Set: (AUG-CC-PVQZ AUX)
    Blend: AUG-CC-PVQZ-RI
    Number of shells: 76
    Number of basis function: 328
    Number of Cartesian functions: 447
    Spherical Harmonics?: true
    Max angular momentum: 5

	 --------------------------------------------------------
	                 NBF =   172, NAUX =   328
	 --------------------------------------------------------
	   CLASS    FOCC     OCC    AOCC    AVIR     VIR    FVIR
	   PAIRS       1       5       4     167     167       0
	 --------------------------------------------------------

	-----------------------------------------------------------
	 ==================> DF-MP2 Energies <==================== 
	-----------------------------------------------------------
	 Reference Energy          =     -76.0658491252255260 [Eh]
	 Singles Energy            =      -0.0000000000000000 [Eh]
	 Same-Spin Energy          =      -0.0671592095077334 [Eh]
	 Opposite-Spin Energy      =      -0.2185006506079109 [Eh]
	 Correlation Energy        =      -0.2856598601156443 [Eh]
	 Total Energy              =     -76.3515089853411695 [Eh]
	-----------------------------------------------------------
	 ================> DF-SCS-MP2 Energies <================== 
	-----------------------------------------------------------
	 SCS Same-Spin Scale       =       0.3333333333333333 [-]
	 SCS Opposite-Spin Scale   =       1.2000000000000000 [-]
	 SCS Same-Spin Energy      =      -0.0223864031692445 [Eh]
	 SCS Opposite-Spin Energy  =      -0.2622007807294930 [Eh]
	 SCS Correlation Energy    =      -0.2845871838987375 [Eh]
	 SCS Total Energy          =     -76.3504363091242624 [Eh]
	-----------------------------------------------------------


*** tstop() called on node37.bme.utexas.edu at Tue Feb 22 18:16:56 2022
Module time:
	user time   =       2.87 seconds =       0.05 minutes
	system time =       0.23 seconds =       0.00 minutes
	total time  =          1 seconds =       0.02 minutes
Total time:
	user time   =      21.54 seconds =       0.36 minutes
	system time =       1.66 seconds =       0.03 minutes
	total time  =         11 seconds =       0.18 minutes

  //>>>>>>>>>>>>>>>>>>>>>>>>>>>>>>>>>>>//
  //  CBS Results: mp2/aug-cc-pV[TQ]Z  //
  //<<<<<<<<<<<<<<<<<<<<<<<<<<<<<<<<<<<//


   ==> HF <==

   HI-zeta (4) Energy:               -76.065849125226


   ==> Helgaker 2-point correlated extrapolation for method: MP2 <==

   LO-zeta (3) Energy:               -76.328510176522
   HI-zeta (4) Energy:               -76.351508985341
   Alpha (exponent) Value:             3.000000000000
   Extrapolated Energy:              -76.368291899885

   @Extrapolated MP2/(T,Q):          -76.368291899885



   ==> Helgaker 2-point correlated extrapolation for method: HF <==

   LO-zeta (3) Energy:               -76.060460420499
   HI-zeta (4) Energy:               -76.065849125226
   Alpha (exponent) Value:             3.000000000000
   Extrapolated Energy:              -76.069781423269

   @Extrapolated HF/(T,Q):           -76.069781423269


   ==> Components <==

  ---------------------------------------------------------------------------------------------------------
                          Method / Basis                      Rqd      Energy [Eh]   Variable
  ---------------------------------------------------------------------------------------------------------
                              hf / aug-cc-pvtz                  *     -76.06046042   HF TOTAL ENERGY
                             mp2 / aug-cc-pvtz                  *     -76.32851018   MP2 TOTAL ENERGY
                              hf / aug-cc-pvqz                  *     -76.06584913   HF TOTAL ENERGY
                             mp2 / aug-cc-pvqz                  *     -76.35150899   MP2 TOTAL ENERGY
  ---------------------------------------------------------------------------------------------------------

   ==> Stages <==

  ---------------------------------------------------------------------------------------------------------
      Stage               Method / Basis                       Wt      Energy [Eh]   Scheme
  ---------------------------------------------------------------------------------------------------------
        scf                   hf / aug-cc-pvqz                  1     -76.06584913   xtpl_highest_1
       corl                  mp2 / aug-cc-pv[tq]z               1     -76.36829190   corl_xtpl_helgaker_2
       corl                   hf / aug-cc-pv[tq]z              -1     -76.06978142   corl_xtpl_helgaker_2
  ---------------------------------------------------------------------------------------------------------

   ==> CBS <==

  ---------------------------------------------------------------------------------------------------------
      Stage               Method / Basis                               Energy [Eh]   Scheme
  ---------------------------------------------------------------------------------------------------------
        scf                   hf / aug-cc-pvqz                        -76.06584913   xtpl_highest_1
       corl                  mp2 / aug-cc-pv[tq]z                      -0.29851048   corl_xtpl_helgaker_2
      total                  CBS                                      -76.36435960   
  ---------------------------------------------------------------------------------------------------------
   => Loading Basis Set <=

    Name: DEF2-SVP
    Role: ORBITAL
    Keyword: BASIS
    atoms 1   entry O          line   130 file /home/bdw2292/miniconda3/envs/amoebamdpoltype/share/psi4/basis/def2-svp.gbs 
    atoms 2-3 entry H          line    15 file /home/bdw2292/miniconda3/envs/amoebamdpoltype/share/psi4/basis/def2-svp.gbs 


       N-Body: Complex Energy (fragments = (2,), basis = (2,):   -76.36435960184119)

       N-Body: Computing complex (2/4) with fragments (2,) in the basis of fragments (1, 2).


  //>>>>>>>>>>>>>>>>>>>>>>>>>>>>>>>>>>>//
  //   CBS Setup: mp2/aug-cc-pV[TQ]Z   //
  //<<<<<<<<<<<<<<<<<<<<<<<<<<<<<<<<<<<//

    Naive listing of computations required.
             hf / aug-cc-pvqz              for  HF TOTAL ENERGY
            mp2 / aug-cc-pvtz              for  MP2 TOTAL ENERGY
            mp2 / aug-cc-pvqz              for  MP2 TOTAL ENERGY
             hf / aug-cc-pvtz              for  HF TOTAL ENERGY
             hf / aug-cc-pvqz              for  HF TOTAL ENERGY

    Enlightened listing of computations required.
            mp2 / aug-cc-pvtz              for  MP2 TOTAL ENERGY
            mp2 / aug-cc-pvqz              for  MP2 TOTAL ENERGY

    Full listing of computations to be obtained (required and bonus).
             hf / aug-cc-pvtz              for  HF TOTAL ENERGY
            mp2 / aug-cc-pvtz              for  MP2 TOTAL ENERGY
             hf / aug-cc-pvqz              for  HF TOTAL ENERGY
            mp2 / aug-cc-pvqz              for  MP2 TOTAL ENERGY

  //>>>>>>>>>>>>>>>>>>>>>>>>>>>>>>>>>>>>//
  // CBS Computation: MP2 / AUG-CC-PVTZ //
  //<<<<<<<<<<<<<<<<<<<<<<<<<<<<<<<<<<<<//

    SCF Algorithm Type (re)set to DF.

*** tstart() called on node37.bme.utexas.edu
*** at Tue Feb 22 18:16:58 2022

   => Loading Basis Set <=

    Name: AUG-CC-PVTZ
    Role: ORBITAL
    Keyword: BASIS
    atoms 1-4 entry CL         line   984 file /home/bdw2292/miniconda3/envs/amoebamdpoltype/share/psi4/basis/aug-cc-pvtz.gbs 
    atoms 5   entry C          line   235 file /home/bdw2292/miniconda3/envs/amoebamdpoltype/share/psi4/basis/aug-cc-pvtz.gbs 
    atoms 6   entry O          line   327 file /home/bdw2292/miniconda3/envs/amoebamdpoltype/share/psi4/basis/aug-cc-pvtz.gbs 
    atoms 7-8 entry H          line    36 file /home/bdw2292/miniconda3/envs/amoebamdpoltype/share/psi4/basis/aug-cc-pvtz.gbs 


         ---------------------------------------------------------
                                   SCF
               by Justin Turney, Rob Parrish, Andy Simmonett
                          and Daniel G. A. Smith
                              RHF Reference
                        4 Threads,  14305 MiB Core
         ---------------------------------------------------------

  ==> Geometry <==

    Molecular point group: c1
    Full point group: C1

    Geometry (in Angstrom), charge = 0, multiplicity = 1:

       Center              X                  Y                   Z               Mass       
    ------------   -----------------  -----------------  -----------------  -----------------
      Gh(CL)         -0.133751378082    -0.206544709084     1.412264336866    34.968852682000
      Gh(CL)         -0.561097478082     1.560722290916    -0.829351763134    34.968852682000
      Gh(CL)          0.020243721918    -1.231542909084    -1.280416463134    34.968852682000
      Gh(CL)          2.087690021918     0.531364690916    -0.286628563134    34.968852682000
      Gh(C)           0.356606021918     0.164554490916    -0.246505463134    12.000000000000
         O           -3.011744778082    -1.346853609084     2.119001436866    15.994914619570
         H           -2.875780378082    -2.294216809084     2.117234736866     1.007825032230
         H           -2.601984878082    -0.981602609084     1.334556136866     1.007825032230

  Running in c1 symmetry.

  Rotational constants: A =      0.05760  B =      0.02823  C =      0.02819 [cm^-1]
  Rotational constants: A =   1726.86471  B =    846.23892  C =    845.24321 [MHz]
  Nuclear repulsion =    9.185801642412740

  Charge       = 0
  Multiplicity = 1
  Electrons    = 10
  Nalpha       = 5
  Nbeta        = 5

  ==> Algorithm <==

  SCF Algorithm Type is DF.
  DIIS enabled.
  MOM disabled.
  Fractional occupation disabled.
  Guess Type is SAD.
  Energy threshold   = 1.00e-08
  Density threshold  = 1.00e-08
  Integral threshold = 0.00e+00

  ==> Primary Basis <==

  Basis Set: AUG-CC-PVTZ
    Blend: AUG-CC-PVTZ
    Number of shells: 110
    Number of basis function: 338
    Number of Cartesian functions: 396
    Spherical Harmonics?: true
    Max angular momentum: 3

   => Loading Basis Set <=

    Name: (AUG-CC-PVTZ AUX)
    Role: JKFIT
    Keyword: DF_BASIS_SCF
    atoms 1-4 entry CL         line   816 file /home/bdw2292/miniconda3/envs/amoebamdpoltype/share/psi4/basis/aug-cc-pvtz-jkfit.gbs 
    atoms 5   entry C          line   162 file /home/bdw2292/miniconda3/envs/amoebamdpoltype/share/psi4/basis/aug-cc-pvtz-jkfit.gbs 
    atoms 6   entry O          line   286 file /home/bdw2292/miniconda3/envs/amoebamdpoltype/share/psi4/basis/aug-cc-pvtz-jkfit.gbs 
    atoms 7-8 entry H          line    70 file /home/bdw2292/miniconda3/envs/amoebamdpoltype/share/psi4/basis/aug-cc-pvtz-jkfit.gbs 

  ==> Pre-Iterations <==

   -------------------------------------------------------
    Irrep   Nso     Nmo     Nalpha   Nbeta   Ndocc  Nsocc
   -------------------------------------------------------
     A        338     338       0       0       0       0
   -------------------------------------------------------
    Total     338     338       5       5       5       0
   -------------------------------------------------------

  ==> Integral Setup <==

  DFHelper Memory: AOs need 0.748 GiB; user supplied 10.477 GiB. Using in-core AOs.

  ==> MemDFJK: Density-Fitted J/K Matrices <==

    J tasked:                   Yes
    K tasked:                   Yes
    wK tasked:                   No
    OpenMP threads:               4
    Memory [MiB]:             10728
    Algorithm:                 Core
    Schwarz Cutoff:           1E-12
    Mask sparsity (%):       4.9245
    Fitting Condition:        1E-10

   => Auxiliary Basis Set <=

  Basis Set: (AUG-CC-PVTZ AUX)
    Blend: AUG-CC-PVTZ-JKFIT
    Number of shells: 256
    Number of basis function: 884
    Number of Cartesian functions: 1092
    Spherical Harmonics?: true
    Max angular momentum: 4

  Minimum eigenvalue in the overlap matrix is 6.7174990013E-05.
  Using Symmetric Orthogonalization.

  SCF Guess: Superposition of Atomic Densities via on-the-fly atomic UHF.

  ==> Iterations <==

                           Total Energy        Delta E     RMS |[F,P]|

   @DF-RHF iter SAD:   -75.47424654666297   -7.54742e+01   0.00000e+00 
   @DF-RHF iter   1:   -75.97664500852382   -5.02398e-01   1.38671e-03 DIIS
   @DF-RHF iter   2:   -76.02907770536687   -5.24327e-02   9.39508e-04 DIIS
   @DF-RHF iter   3:   -76.06008681852067   -3.10091e-02   6.38001e-05 DIIS
   @DF-RHF iter   4:   -76.06047626182320   -3.89443e-04   1.52317e-05 DIIS
   @DF-RHF iter   5:   -76.06050019081567   -2.39290e-05   3.42707e-06 DIIS
   @DF-RHF iter   6:   -76.06050214394921   -1.95313e-06   7.63203e-07 DIIS
   @DF-RHF iter   7:   -76.06050225180037   -1.07851e-07   1.44486e-07 DIIS
   @DF-RHF iter   8:   -76.06050225523209   -3.43172e-09   2.39594e-08 DIIS
   @DF-RHF iter   9:   -76.06050225530669   -7.45928e-11   5.94552e-09 DIIS
  Energy and wave function converged.


  ==> Post-Iterations <==

    Orbital Energies [Eh]
    ---------------------

    Doubly Occupied:                                                      

       1A    -20.565405     2A     -1.350823     3A     -0.725127  
       4A     -0.577373     5A     -0.509197  

    Virtual:                                                              

       6A      0.020435     7A      0.038260     8A      0.049518  
       9A      0.053647    10A      0.065665    11A      0.079733  
      12A      0.101525    13A      0.104818    14A      0.105252  
      15A      0.107376    16A      0.119241    17A      0.128318  
      18A      0.147869    19A      0.152296    20A      0.153539  
      21A      0.159359    22A      0.168232    23A      0.171748  
      24A      0.178647    25A      0.195110    26A      0.199455  
      27A      0.200043    28A      0.208477    29A      0.218966  
      30A      0.231428    31A      0.252041    32A      0.256714  
      33A      0.273210    34A      0.292259    35A      0.308065  
      36A      0.312447    37A      0.323807    38A      0.327469  
      39A      0.330209    40A      0.334329    41A      0.372841  
      42A      0.385813    43A      0.395926    44A      0.398005  
      45A      0.403410    46A      0.408627    47A      0.421153  
      48A      0.442372    49A      0.446692    50A      0.452496  
      51A      0.463449    52A      0.465596    53A      0.505503  
      54A      0.509450    55A      0.520753    56A      0.527589  
      57A      0.535018    58A      0.540962    59A      0.542380  
      60A      0.548192    61A      0.559589    62A      0.585378  
      63A      0.589601    64A      0.599497    65A      0.604860  
      66A      0.616168    67A      0.627353    68A      0.636266  
      69A      0.650808    70A      0.684962    71A      0.701666  
      72A      0.709699    73A      0.719536    74A      0.728337  
      75A      0.741000    76A      0.744651    77A      0.747416  
      78A      0.751687    79A      0.753721    80A      0.763483  
      81A      0.771520    82A      0.780279    83A      0.798344  
      84A      0.807064    85A      0.832583    86A      0.838678  
      87A      0.848150    88A      0.877211    89A      0.885615  
      90A      0.907632    91A      0.928516    92A      0.944341  
      93A      0.960871    94A      0.965077    95A      1.008316  
      96A      1.044204    97A      1.053125    98A      1.106069  
      99A      1.123752   100A      1.156961   101A      1.158882  
     102A      1.175092   103A      1.205105   104A      1.211551  
     105A      1.228835   106A      1.231554   107A      1.248588  
     108A      1.259728   109A      1.271889   110A      1.274349  
     111A      1.289567   112A      1.310252   113A      1.333524  
     114A      1.337717   115A      1.348537   116A      1.359920  
     117A      1.364627   118A      1.368446   119A      1.368628  
     120A      1.381905   121A      1.397284   122A      1.400683  
     123A      1.416016   124A      1.422666   125A      1.448215  
     126A      1.467722   127A      1.473933   128A      1.480294  
     129A      1.486291   130A      1.489617   131A      1.491338  
     132A      1.500243   133A      1.529058   134A      1.538853  
     135A      1.539300   136A      1.550470   137A      1.558299  
     138A      1.568295   139A      1.571716   140A      1.581601  
     141A      1.582462   142A      1.590592   143A      1.608913  
     144A      1.615511   145A      1.633961   146A      1.647382  
     147A      1.657063   148A      1.671146   149A      1.674859  
     150A      1.684259   151A      1.690228   152A      1.703616  
     153A      1.719999   154A      1.732722   155A      1.740229  
     156A      1.750770   157A      1.775606   158A      1.794486  
     159A      1.820404   160A      1.833615   161A      1.863611  
     162A      1.867407   163A      1.888835   164A      1.898366  
     165A      1.918443   166A      1.945462   167A      1.994618  
     168A      2.064667   169A      2.129743   170A      2.133440  
     171A      2.139965   172A      2.141267   173A      2.146234  
     174A      2.150885   175A      2.202354   176A      2.221455  
     177A      2.236830   178A      2.253566   179A      2.297257  
     180A      2.317225   181A      2.325639   182A      2.345659  
     183A      2.378237   184A      2.432227   185A      2.449524  
     186A      2.456770   187A      2.474206   188A      2.503349  
     189A      2.512924   190A      2.547917   191A      2.561908  
     192A      2.573366   193A      2.605478   194A      2.618018  
     195A      2.739942   196A      2.747718   197A      2.751520  
     198A      2.774368   199A      2.799381   200A      2.822112  
     201A      2.896837   202A      2.979989   203A      3.012803  
     204A      3.703184   205A      3.791171   206A      3.800419  
     207A      3.802321   208A      3.831724   209A      3.885318  
     210A      3.949091   211A      3.953942   212A      3.961878  
     213A      3.976999   214A      3.979763   215A      3.990982  
     216A      3.998625   217A      4.016450   218A      4.031115  
     219A      4.043060   220A      4.058283   221A      4.068288  
     222A      4.076494   223A      4.085344   224A      4.112344  
     225A      4.122297   226A      4.129077   227A      4.131082  
     228A      4.140499   229A      4.146564   230A      4.171012  
     231A      4.178409   232A      4.185489   233A      4.204420  
     234A      4.227508   235A      4.231340   236A      4.237389  
     237A      4.246621   238A      4.249653   239A      4.262032  
     240A      4.274869   241A      4.285109   242A      4.300273  
     243A      4.332641   244A      4.340952   245A      4.377812  
     246A      4.424918   247A      4.448300   248A      4.461397  
     249A      4.462679   250A      4.474019   251A      4.480136  
     252A      4.491867   253A      4.513102   254A      4.579895  
     255A      4.697271   256A      4.699828   257A      4.721232  
     258A      4.728183   259A      4.740867   260A      4.762500  
     261A      4.763548   262A      4.769903   263A      4.772603  
     264A      4.777603   265A      4.794490   266A      4.801870  
     267A      4.810414   268A      4.823420   269A      4.824010  
     270A      4.830484   271A      4.877494   272A      4.884292  
     273A      4.891185   274A      4.897594   275A      4.925511  
     276A      4.967230   277A      5.086892   278A      5.093849  
     279A      5.111200   280A      5.114317   281A      5.119028  
     282A      5.147677   283A      5.161984   284A      5.229072  
     285A      5.343148   286A      5.370172   287A      5.397377  
     288A      5.398838   289A      5.403629   290A      5.409913  
     291A      5.419459   292A      5.536057   293A      5.622081  
     294A      5.773131   295A      5.853086   296A      6.126737  
     297A      6.143413   298A      6.164531   299A      6.185425  
     300A      6.573469   301A      6.753618   302A      6.904885  
     303A      7.166884   304A      7.298489   305A      7.330683  
     306A      7.354228   307A      7.406864   308A      7.447582  
     309A      7.603285   310A      7.651670   311A      7.895842  
     312A      7.901611   313A      7.926152   314A      7.936951  
     315A      7.987133   316A      8.809902   317A     15.351451  
     318A     16.166101   319A     16.377743   320A     16.484872  
     321A     16.597894   322A     28.051617   323A     28.068730  
     324A     28.096807   325A     28.166758   326A     28.176634  
     327A     28.240048   328A     28.329725   329A     28.353683  
     330A     28.846089   331A     28.879684   332A     28.885152  
     333A     29.530652   334A     40.831921   335A    160.923906  
     336A    161.037675   337A    161.045895   338A    161.054165  

    Final Occupation by Irrep:
              A 
    DOCC [     5 ]

  @DF-RHF Final Energy:   -76.06050225530669

   => Energetics <=

    Nuclear Repulsion Energy =              9.1858016424127396
    One-Electron Energy =                -123.0367545386202721
    Two-Electron Energy =                  37.7904506409008434
    Total Energy =                        -76.0605022553066874

Computation Completed


Properties will be evaluated at   0.000000,   0.000000,  -0.000000 [a0]

Properties computed using the SCF density matrix

  Nuclear Dipole Moment: [e a0]
     X:   -55.8825      Y:   -26.5519      Z:    38.5576

  Electronic Dipole Moment: [e a0]
     X:    56.2498      Y:    26.1600      Z:   -39.0873

  Dipole Moment: [e a0]
     X:     0.3674      Y:    -0.3919      Z:    -0.5297     Total:     0.7544

  Dipole Moment: [D]
     X:     0.9338      Y:    -0.9961      Z:    -1.3465     Total:     1.9176


*** tstop() called on node37.bme.utexas.edu at Tue Feb 22 18:17:17 2022
Module time:
	user time   =      47.14 seconds =       0.79 minutes
	system time =       3.72 seconds =       0.06 minutes
	total time  =         19 seconds =       0.32 minutes
Total time:
	user time   =      70.55 seconds =       1.18 minutes
	system time =       5.42 seconds =       0.09 minutes
	total time  =         32 seconds =       0.53 minutes

*** tstart() called on node37.bme.utexas.edu
*** at Tue Feb 22 18:17:17 2022


  //>>>>>>>>>>>>>>>>>>>>>>>>>>>>>>>>>>>//
  //               DFMP2               //
  //<<<<<<<<<<<<<<<<<<<<<<<<<<<<<<<<<<<//

   => Loading Basis Set <=

    Name: (AUG-CC-PVTZ AUX)
    Role: RIFIT
    Keyword: DF_BASIS_MP2
    atoms 1-4 entry CL         line   742 file /home/bdw2292/miniconda3/envs/amoebamdpoltype/share/psi4/basis/aug-cc-pvtz-ri.gbs 
    atoms 5   entry C          line   148 file /home/bdw2292/miniconda3/envs/amoebamdpoltype/share/psi4/basis/aug-cc-pvtz-ri.gbs 
    atoms 6   entry O          line   264 file /home/bdw2292/miniconda3/envs/amoebamdpoltype/share/psi4/basis/aug-cc-pvtz-ri.gbs 
    atoms 7-8 entry H          line    30 file /home/bdw2292/miniconda3/envs/amoebamdpoltype/share/psi4/basis/aug-cc-pvtz-ri.gbs 

	 --------------------------------------------------------
	                          DF-MP2                         
	      2nd-Order Density-Fitted Moller-Plesset Theory     
	              RMP2 Wavefunction,   4 Threads             
	                                                         
	        Rob Parrish, Justin Turney, Andy Simmonett,      
	           Ed Hohenstein, and C. David Sherrill          
	 --------------------------------------------------------

   => Auxiliary Basis Set <=

  Basis Set: (AUG-CC-PVTZ AUX)
    Blend: AUG-CC-PVTZ-RI
    Number of shells: 232
    Number of basis function: 892
    Number of Cartesian functions: 1146
    Spherical Harmonics?: true
    Max angular momentum: 4

	 --------------------------------------------------------
	                 NBF =   338, NAUX =   892
	 --------------------------------------------------------
	   CLASS    FOCC     OCC    AOCC    AVIR     VIR    FVIR
	   PAIRS       1       5       4     333     333       0
	 --------------------------------------------------------

	-----------------------------------------------------------
	 ==================> DF-MP2 Energies <==================== 
	-----------------------------------------------------------
	 Reference Energy          =     -76.0605022553066874 [Eh]
	 Singles Energy            =      -0.0000000000000000 [Eh]
	 Same-Spin Energy          =      -0.0651035500006286 [Eh]
	 Opposite-Spin Energy      =      -0.2031180934524303 [Eh]
	 Correlation Energy        =      -0.2682216434530590 [Eh]
	 Total Energy              =     -76.3287238987597476 [Eh]
	-----------------------------------------------------------
	 ================> DF-SCS-MP2 Energies <================== 
	-----------------------------------------------------------
	 SCS Same-Spin Scale       =       0.3333333333333333 [-]
	 SCS Opposite-Spin Scale   =       1.2000000000000000 [-]
	 SCS Same-Spin Energy      =      -0.0217011833335429 [Eh]
	 SCS Opposite-Spin Energy  =      -0.2437417121429164 [Eh]
	 SCS Correlation Energy    =      -0.2654428954764593 [Eh]
	 SCS Total Energy          =     -76.3259451507831415 [Eh]
	-----------------------------------------------------------


*** tstop() called on node37.bme.utexas.edu at Tue Feb 22 18:17:24 2022
Module time:
	user time   =      20.95 seconds =       0.35 minutes
	system time =       0.93 seconds =       0.02 minutes
	total time  =          7 seconds =       0.12 minutes
Total time:
	user time   =      91.50 seconds =       1.52 minutes
	system time =       6.35 seconds =       0.11 minutes
	total time  =         39 seconds =       0.65 minutes

  //>>>>>>>>>>>>>>>>>>>>>>>>>>>>>>>>>>>>//
  // CBS Computation: MP2 / AUG-CC-PVQZ //
  //<<<<<<<<<<<<<<<<<<<<<<<<<<<<<<<<<<<<//

    SCF Algorithm Type (re)set to DF.

*** tstart() called on node37.bme.utexas.edu
*** at Tue Feb 22 18:17:24 2022

   => Loading Basis Set <=

    Name: AUG-CC-PVQZ
    Role: ORBITAL
    Keyword: BASIS
    atoms 1-4 entry CL         line  1218 file /home/bdw2292/miniconda3/envs/amoebamdpoltype/share/psi4/basis/aug-cc-pvqz.gbs 
    atoms 5   entry C          line   299 file /home/bdw2292/miniconda3/envs/amoebamdpoltype/share/psi4/basis/aug-cc-pvqz.gbs 
    atoms 6   entry O          line   419 file /home/bdw2292/miniconda3/envs/amoebamdpoltype/share/psi4/basis/aug-cc-pvqz.gbs 
    atoms 7-8 entry H          line    36 file /home/bdw2292/miniconda3/envs/amoebamdpoltype/share/psi4/basis/aug-cc-pvqz.gbs 


         ---------------------------------------------------------
                                   SCF
               by Justin Turney, Rob Parrish, Andy Simmonett
                          and Daniel G. A. Smith
                              RHF Reference
                        4 Threads,  14305 MiB Core
         ---------------------------------------------------------

  ==> Geometry <==

    Molecular point group: c1
    Full point group: C1

    Geometry (in Angstrom), charge = 0, multiplicity = 1:

       Center              X                  Y                   Z               Mass       
    ------------   -----------------  -----------------  -----------------  -----------------
      Gh(CL)         -0.133751378082    -0.206544709084     1.412264336866    34.968852682000
      Gh(CL)         -0.561097478082     1.560722290916    -0.829351763134    34.968852682000
      Gh(CL)          0.020243721918    -1.231542909084    -1.280416463134    34.968852682000
      Gh(CL)          2.087690021918     0.531364690916    -0.286628563134    34.968852682000
      Gh(C)           0.356606021918     0.164554490916    -0.246505463134    12.000000000000
         O           -3.011744778082    -1.346853609084     2.119001436866    15.994914619570
         H           -2.875780378082    -2.294216809084     2.117234736866     1.007825032230
         H           -2.601984878082    -0.981602609084     1.334556136866     1.007825032230

  Running in c1 symmetry.

  Rotational constants: A =      0.05760  B =      0.02823  C =      0.02819 [cm^-1]
  Rotational constants: A =   1726.86471  B =    846.23892  C =    845.24321 [MHz]
  Nuclear repulsion =    9.185801642412740

  Charge       = 0
  Multiplicity = 1
  Electrons    = 10
  Nalpha       = 5
  Nbeta        = 5

  ==> Algorithm <==

  SCF Algorithm Type is DF.
  DIIS enabled.
  MOM disabled.
  Fractional occupation disabled.
  Guess Type is SAD.
  Energy threshold   = 1.00e-08
  Density threshold  = 1.00e-08
  Integral threshold = 0.00e+00

  ==> Primary Basis <==

  Basis Set: AUG-CC-PVQZ
    Blend: AUG-CC-PVQZ
    Number of shells: 156
    Number of basis function: 588
    Number of Cartesian functions: 756
    Spherical Harmonics?: true
    Max angular momentum: 4

   => Loading Basis Set <=

    Name: (AUG-CC-PVQZ AUX)
    Role: JKFIT
    Keyword: DF_BASIS_SCF
    atoms 1-4 entry CL         line   904 file /home/bdw2292/miniconda3/envs/amoebamdpoltype/share/psi4/basis/aug-cc-pvqz-jkfit.gbs 
    atoms 5   entry C          line   178 file /home/bdw2292/miniconda3/envs/amoebamdpoltype/share/psi4/basis/aug-cc-pvqz-jkfit.gbs 
    atoms 6   entry O          line   318 file /home/bdw2292/miniconda3/envs/amoebamdpoltype/share/psi4/basis/aug-cc-pvqz-jkfit.gbs 
    atoms 7-8 entry H          line    70 file /home/bdw2292/miniconda3/envs/amoebamdpoltype/share/psi4/basis/aug-cc-pvqz-jkfit.gbs 

  ==> Pre-Iterations <==

   -------------------------------------------------------
    Irrep   Nso     Nmo     Nalpha   Nbeta   Ndocc  Nsocc
   -------------------------------------------------------
     A        588     588       0       0       0       0
   -------------------------------------------------------
    Total     588     588       5       5       5       0
   -------------------------------------------------------

  ==> Integral Setup <==

  DFHelper Memory: AOs need 2.872 GiB; user supplied 10.477 GiB. Using in-core AOs.

  ==> MemDFJK: Density-Fitted J/K Matrices <==

    J tasked:                   Yes
    K tasked:                   Yes
    wK tasked:                   No
    OpenMP threads:               4
    Memory [MiB]:             10728
    Algorithm:                 Disk
    Schwarz Cutoff:           1E-12
    Mask sparsity (%):       8.3599
    Fitting Condition:        1E-10

   => Auxiliary Basis Set <=

  Basis Set: (AUG-CC-PVQZ AUX)
    Blend: AUG-CC-PVQZ-JKFIT
    Number of shells: 288
    Number of basis function: 1172
    Number of Cartesian functions: 1586
    Spherical Harmonics?: true
    Max angular momentum: 5

  Minimum eigenvalue in the overlap matrix is 1.1430664390E-05.
  Using Symmetric Orthogonalization.

  SCF Guess: Superposition of Atomic Densities via on-the-fly atomic UHF.

  ==> Iterations <==

                           Total Energy        Delta E     RMS |[F,P]|

   @DF-RHF iter SAD:   -75.47940324855240   -7.54794e+01   0.00000e+00 
   @DF-RHF iter   1:   -75.98171285050785   -5.02310e-01   7.98780e-04 DIIS
   @DF-RHF iter   2:   -76.03424526274341   -5.25324e-02   5.42425e-04 DIIS
   @DF-RHF iter   3:   -76.06545035473508   -3.12051e-02   3.69388e-05 DIIS
   @DF-RHF iter   4:   -76.06584175851459   -3.91404e-04   9.01897e-06 DIIS
   @DF-RHF iter   5:   -76.06586655327168   -2.47948e-05   2.02252e-06 DIIS
   @DF-RHF iter   6:   -76.06586858671459   -2.03344e-06   4.62140e-07 DIIS
   @DF-RHF iter   7:   -76.06586870551710   -1.18803e-07   9.02543e-08 DIIS
   @DF-RHF iter   8:   -76.06586870954914   -4.03203e-09   1.44466e-08 DIIS
   @DF-RHF iter   9:   -76.06586870963278   -8.36451e-11   3.49437e-09 DIIS
  Energy and wave function converged.


  ==> Post-Iterations <==

    Orbital Energies [Eh]
    ---------------------

    Doubly Occupied:                                                      

       1A    -20.562984     2A     -1.350116     3A     -0.725111  
       4A     -0.577446     5A     -0.509329  

    Virtual:                                                              

       6A      0.017796     7A      0.034145     8A      0.043145  
       9A      0.046122    10A      0.057968    11A      0.071072  
      12A      0.086552    13A      0.087184    14A      0.088597  
      15A      0.090467    16A      0.102212    17A      0.109701  
      18A      0.125424    19A      0.128990    20A      0.130844  
      21A      0.136909    22A      0.142173    23A      0.144690  
      24A      0.153930    25A      0.168524    26A      0.169172  
      27A      0.172635    28A      0.176280    29A      0.186933  
      30A      0.203171    31A      0.214096    32A      0.215938  
      33A      0.223035    34A      0.241491    35A      0.246835  
      36A      0.250601    37A      0.256409    38A      0.258198  
      39A      0.261481    40A      0.266367    41A      0.289506  
      42A      0.308123    43A      0.312741    44A      0.321927  
      45A      0.323086    46A      0.330175    47A      0.337841  
      48A      0.343122    49A      0.349045    50A      0.358889  
      51A      0.366892    52A      0.376090    53A      0.383723  
      54A      0.387063    55A      0.396989    56A      0.404591  
      57A      0.419367    58A      0.424552    59A      0.428491  
      60A      0.436732    61A      0.440474    62A      0.447695  
      63A      0.453913    64A      0.458820    65A      0.466009  
      66A      0.475239    67A      0.483793    68A      0.492843  
      69A      0.506076    70A      0.524044    71A      0.529596  
      72A      0.535731    73A      0.537859    74A      0.542293  
      75A      0.545320    76A      0.556786    77A      0.560697  
      78A      0.570156    79A      0.579402    80A      0.580108  
      81A      0.584507    82A      0.596713    83A      0.605157  
      84A      0.636841    85A      0.641350    86A      0.650287  
      87A      0.666736    88A      0.674614    89A      0.677317  
      90A      0.683098    91A      0.709927    92A      0.724230  
      93A      0.726403    94A      0.761292    95A      0.775365  
      96A      0.781390    97A      0.802741    98A      0.806927  
      99A      0.813791   100A      0.840067   101A      0.855481  
     102A      0.864436   103A      0.876276   104A      0.885119  
     105A      0.905392   106A      0.911004   107A      0.921955  
     108A      0.923518   109A      0.924836   110A      0.937694  
     111A      0.945688   112A      0.949854   113A      0.956392  
     114A      0.963304   115A      0.969609   116A      0.974860  
     117A      0.985918   118A      0.989196   119A      0.999598  
     120A      1.007721   121A      1.011217   122A      1.015710  
     123A      1.022111   124A      1.025494   125A      1.035137  
     126A      1.040204   127A      1.046897   128A      1.050658  
     129A      1.054006   130A      1.060438   131A      1.068877  
     132A      1.071853   133A      1.077623   134A      1.087397  
     135A      1.105225   136A      1.119362   137A      1.135108  
     138A      1.141753   139A      1.142976   140A      1.149044  
     141A      1.157925   142A      1.178533   143A      1.179099  
     144A      1.194778   145A      1.201379   146A      1.206518  
     147A      1.216957   148A      1.221420   149A      1.225956  
     150A      1.235114   151A      1.245302   152A      1.251940  
     153A      1.256548   154A      1.279771   155A      1.289068  
     156A      1.298885   157A      1.311625   158A      1.330852  
     159A      1.339305   160A      1.364201   161A      1.383609  
     162A      1.392093   163A      1.403492   164A      1.417678  
     165A      1.448936   166A      1.469722   167A      1.509300  
     168A      1.549010   169A      1.561373   170A      1.579860  
     171A      1.590588   172A      1.600073   173A      1.611063  
     174A      1.617569   175A      1.630414   176A      1.641605  
     177A      1.650761   178A      1.651645   179A      1.656248  
     180A      1.665660   181A      1.673840   182A      1.681849  
     183A      1.695256   184A      1.697293   185A      1.705052  
     186A      1.719226   187A      1.742225   188A      1.750502  
     189A      1.760122   190A      1.784399   191A      1.795569  
     192A      1.810471   193A      1.813937   194A      1.829675  
     195A      1.839957   196A      1.849574   197A      1.852565  
     198A      1.859154   199A      1.883899   200A      1.903421  
     201A      1.906916   202A      1.923384   203A      1.938869  
     204A      1.945168   205A      1.950962   206A      1.965521  
     207A      1.968506   208A      1.981233   209A      1.988673  
     210A      2.004236   211A      2.019031   212A      2.030957  
     213A      2.042027   214A      2.051251   215A      2.071663  
     216A      2.096982   217A      2.111740   218A      2.125277  
     219A      2.164570   220A      2.178145   221A      2.191584  
     222A      2.214158   223A      2.226240   224A      2.239728  
     225A      2.245580   226A      2.247527   227A      2.256312  
     228A      2.259322   229A      2.278375   230A      2.286457  
     231A      2.295691   232A      2.304128   233A      2.323913  
     234A      2.354697   235A      2.363953   236A      2.370227  
     237A      2.379161   238A      2.398925   239A      2.410983  
     240A      2.429883   241A      2.434414   242A      2.438418  
     243A      2.455660   244A      2.463603   245A      2.472004  
     246A      2.478726   247A      2.481051   248A      2.499710  
     249A      2.506069   250A      2.514155   251A      2.519735  
     252A      2.524076   253A      2.527762   254A      2.541911  
     255A      2.550949   256A      2.554402   257A      2.571732  
     258A      2.574006   259A      2.586334   260A      2.599426  
     261A      2.606047   262A      2.609135   263A      2.616346  
     264A      2.623652   265A      2.634484   266A      2.649287  
     267A      2.664266   268A      2.665777   269A      2.674807  
     270A      2.678071   271A      2.691052   272A      2.704692  
     273A      2.712625   274A      2.732728   275A      2.763483  
     276A      2.778984   277A      2.794460   278A      2.806429  
     279A      2.824410   280A      2.832276   281A      2.854992  
     282A      2.863799   283A      2.889994   284A      2.901910  
     285A      2.917450   286A      2.933256   287A      2.941424  
     288A      2.945425   289A      2.959039   290A      2.992026  
     291A      3.003679   292A      3.010983   293A      3.035713  
     294A      3.052367   295A      3.066618   296A      3.085534  
     297A      3.105786   298A      3.117348   299A      3.138857  
     300A      3.151268   301A      3.165989   302A      3.180139  
     303A      3.207539   304A      3.227108   305A      3.230954  
     306A      3.241391   307A      3.247790   308A      3.254832  
     309A      3.257860   310A      3.260720   311A      3.307856  
     312A      3.335773   313A      3.373168   314A      3.382624  
     315A      3.392577   316A      3.399158   317A      3.417367  
     318A      3.479972   319A      3.495298   320A      3.504777  
     321A      3.539511   322A      3.557022   323A      3.569863  
     324A      3.574886   325A      3.587095   326A      3.612376  
     327A      3.622239   328A      3.632765   329A      3.638681  
     330A      3.667158   331A      3.709847   332A      3.740304  
     333A      3.751209   334A      3.780890   335A      3.804744  
     336A      3.820645   337A      3.840732   338A      3.869922  
     339A      3.871230   340A      3.885476   341A      3.888384  
     342A      3.930656   343A      3.941666   344A      3.988254  
     345A      4.029885   346A      4.115438   347A      4.120258  
     348A      4.150548   349A      4.156493   350A      4.163041  
     351A      4.187433   352A      4.193789   353A      4.203281  
     354A      4.251326   355A      4.258903   356A      4.280077  
     357A      4.331654   358A      4.367489   359A      4.394725  
     360A      4.421829   361A      4.426097   362A      4.445707  
     363A      4.512292   364A      4.525190   365A      4.574175  
     366A      4.663337   367A      4.755202   368A      4.810807  
     369A      4.819381   370A      4.851394   371A      4.862909  
     372A      4.875487   373A      4.875820   374A      4.903227  
     375A      4.924906   376A      5.020566   377A      5.120683  
     378A      5.343297   379A      5.396477   380A      5.438970  
     381A      5.445099   382A      5.457963   383A      5.478765  
     384A      5.483733   385A      5.500280   386A      5.535070  
     387A      5.542067   388A      5.562446   389A      5.582717  
     390A      5.607298   391A      5.633539   392A      5.654884  
     393A      5.662051   394A      5.669830   395A      5.675249  
     396A      5.683173   397A      5.693259   398A      5.722954  
     399A      5.727573   400A      5.741860   401A      5.748938  
     402A      5.767524   403A      5.780080   404A      5.785490  
     405A      5.839756   406A      5.848579   407A      5.864000  
     408A      5.881527   409A      5.935914   410A      5.946607  
     411A      5.971634   412A      5.993245   413A      6.019523  
     414A      6.075594   415A      6.088512   416A      6.105666  
     417A      6.142911   418A      6.145458   419A      6.165101  
     420A      6.196830   421A      6.324734   422A      6.325153  
     423A      6.333516   424A      6.340157   425A      6.346468  
     426A      6.363731   427A      6.368207   428A      6.407878  
     429A      6.415666   430A      6.426963   431A      6.435522  
     432A      6.450540   433A      6.474930   434A      6.489322  
     435A      6.506173   436A      6.513169   437A      6.544687  
     438A      6.569468   439A      6.577774   440A      6.597493  
     441A      6.600866   442A      6.619892   443A      6.623961  
     444A      6.625986   445A      6.641076   446A      6.647363  
     447A      6.658225   448A      6.687485   449A      6.744697  
     450A      6.875415   451A      6.916567   452A      6.975366  
     453A      7.016830   454A      7.360281   455A      7.368642  
     456A      7.383989   457A      7.395686   458A      7.426434  
     459A      7.489800   460A      7.491908   461A      7.503626  
     462A      7.508731   463A      7.693537   464A      7.701523  
     465A      7.726095   466A      7.737859   467A      7.744537  
     468A      7.758865   469A      7.789729   470A      7.833422  
     471A      7.859348   472A      7.873048   473A      7.875454  
     474A      7.891415   475A      7.914756   476A      7.964116  
     477A      7.987145   478A      7.997729   479A      8.016174  
     480A      8.027037   481A      8.037746   482A      8.044525  
     483A      8.066412   484A      8.078331   485A      8.080743  
     486A      8.086685   487A      8.104502   488A      8.120943  
     489A      8.124928   490A      8.182619   491A      8.225633  
     492A      8.286738   493A      8.295462   494A      8.307835  
     495A      8.402041   496A      8.408734   497A      8.420889  
     498A      8.450933   499A      8.466674   500A      8.493293  
     501A      8.593213   502A      8.602934   503A      8.639294  
     504A      8.651900   505A      8.658158   506A      8.688356  
     507A      8.776276   508A      8.825766   509A      8.838112  
     510A      8.847039   511A      8.866760   512A      8.921935  
     513A      8.942811   514A      9.052640   515A      9.107056  
     516A      9.175087   517A      9.256131   518A      9.262581  
     519A      9.266015   520A      9.273314   521A      9.286334  
     522A      9.311769   523A      9.321194   524A      9.336346  
     525A      9.367878   526A      9.552470   527A      9.891938  
     528A     10.025135   529A     10.041547   530A     10.066890  
     531A     10.091648   532A     10.467013   533A     10.531961  
     534A     10.772859   535A     10.789933   536A     10.793426  
     537A     10.808612   538A     11.035571   539A     11.074644  
     540A     11.176741   541A     11.373823   542A     11.439028  
     543A     11.477501   544A     11.736410   545A     11.840642  
     546A     11.926200   547A     12.070024   548A     12.213252  
     549A     12.343025   550A     12.566465   551A     12.765417  
     552A     12.912636   553A     12.941097   554A     12.992115  
     555A     13.223742   556A     13.413156   557A     13.420705  
     558A     13.476375   559A     14.007853   560A     14.136093  
     561A     14.508923   562A     14.861655   563A     14.892960  
     564A     15.330663   565A     17.025440   566A     17.308874  
     567A     31.089034   568A     31.093829   569A     31.104058  
     570A     31.104672   571A     31.117995   572A     31.125410  
     573A     31.176024   574A     31.187396   575A     31.301059  
     576A     31.304920   577A     31.307294   578A     31.374723  
     579A     42.359176   580A     43.449647   581A     43.480689  
     582A     43.691404   583A     45.746676   584A     68.463261  
     585A    160.313170   586A    160.433134   587A    160.442360  
     588A    160.463138  

    Final Occupation by Irrep:
              A 
    DOCC [     5 ]

  @DF-RHF Final Energy:   -76.06586870963278

   => Energetics <=

    Nuclear Repulsion Energy =              9.1858016424127396
    One-Electron Energy =                -123.0533667649315248
    Two-Electron Energy =                  37.8016964128860025
    Total Energy =                        -76.0658687096327810

Computation Completed


Properties will be evaluated at   0.000000,   0.000000,  -0.000000 [a0]

Properties computed using the SCF density matrix

  Nuclear Dipole Moment: [e a0]
     X:   -55.8825      Y:   -26.5519      Z:    38.5576

  Electronic Dipole Moment: [e a0]
     X:    56.2496      Y:    26.1603      Z:   -39.0865

  Dipole Moment: [e a0]
     X:     0.3671      Y:    -0.3916      Z:    -0.5289     Total:     0.7535

  Dipole Moment: [D]
     X:     0.9332      Y:    -0.9953      Z:    -1.3443     Total:     1.9153


*** tstop() called on node37.bme.utexas.edu at Tue Feb 22 18:19:04 2022
Module time:
	user time   =     215.73 seconds =       3.60 minutes
	system time =      46.72 seconds =       0.78 minutes
	total time  =        100 seconds =       1.67 minutes
Total time:
	user time   =     307.28 seconds =       5.12 minutes
	system time =      53.08 seconds =       0.88 minutes
	total time  =        139 seconds =       2.32 minutes

*** tstart() called on node37.bme.utexas.edu
*** at Tue Feb 22 18:19:04 2022


  //>>>>>>>>>>>>>>>>>>>>>>>>>>>>>>>>>>>//
  //               DFMP2               //
  //<<<<<<<<<<<<<<<<<<<<<<<<<<<<<<<<<<<//

   => Loading Basis Set <=

    Name: (AUG-CC-PVQZ AUX)
    Role: RIFIT
    Keyword: DF_BASIS_MP2
    atoms 1-4 entry CL         line   914 file /home/bdw2292/miniconda3/envs/amoebamdpoltype/share/psi4/basis/aug-cc-pvqz-ri.gbs 
    atoms 5   entry C          line   184 file /home/bdw2292/miniconda3/envs/amoebamdpoltype/share/psi4/basis/aug-cc-pvqz-ri.gbs 
    atoms 6   entry O          line   332 file /home/bdw2292/miniconda3/envs/amoebamdpoltype/share/psi4/basis/aug-cc-pvqz-ri.gbs 
    atoms 7-8 entry H          line    30 file /home/bdw2292/miniconda3/envs/amoebamdpoltype/share/psi4/basis/aug-cc-pvqz-ri.gbs 

	 --------------------------------------------------------
	                          DF-MP2                         
	      2nd-Order Density-Fitted Moller-Plesset Theory     
	              RMP2 Wavefunction,   4 Threads             
	                                                         
	        Rob Parrish, Justin Turney, Andy Simmonett,      
	           Ed Hohenstein, and C. David Sherrill          
	 --------------------------------------------------------

   => Auxiliary Basis Set <=

  Basis Set: (AUG-CC-PVQZ AUX)
    Blend: AUG-CC-PVQZ-RI
    Number of shells: 288
    Number of basis function: 1272
    Number of Cartesian functions: 1756
    Spherical Harmonics?: true
    Max angular momentum: 5

	 --------------------------------------------------------
	                 NBF =   588, NAUX =  1272
	 --------------------------------------------------------
	   CLASS    FOCC     OCC    AOCC    AVIR     VIR    FVIR
	   PAIRS       1       5       4     583     583       0
	 --------------------------------------------------------

	-----------------------------------------------------------
	 ==================> DF-MP2 Energies <==================== 
	-----------------------------------------------------------
	 Reference Energy          =     -76.0658687096327810 [Eh]
	 Singles Energy            =      -0.0000000000000000 [Eh]
	 Same-Spin Energy          =      -0.0671639320578002 [Eh]
	 Opposite-Spin Energy      =      -0.2185771125915665 [Eh]
	 Correlation Energy        =      -0.2857410446493667 [Eh]
	 Total Energy              =     -76.3516097542821512 [Eh]
	-----------------------------------------------------------
	 ================> DF-SCS-MP2 Energies <================== 
	-----------------------------------------------------------
	 SCS Same-Spin Scale       =       0.3333333333333333 [-]
	 SCS Opposite-Spin Scale   =       1.2000000000000000 [-]
	 SCS Same-Spin Energy      =      -0.0223879773526001 [Eh]
	 SCS Opposite-Spin Energy  =      -0.2622925351098798 [Eh]
	 SCS Correlation Energy    =      -0.2846805124624799 [Eh]
	 SCS Total Energy          =     -76.3505492220952675 [Eh]
	-----------------------------------------------------------


*** tstop() called on node37.bme.utexas.edu at Tue Feb 22 18:19:28 2022
Module time:
	user time   =      62.10 seconds =       1.04 minutes
	system time =       3.49 seconds =       0.06 minutes
	total time  =         24 seconds =       0.40 minutes
Total time:
	user time   =     369.38 seconds =       6.16 minutes
	system time =      56.57 seconds =       0.94 minutes
	total time  =        163 seconds =       2.72 minutes

  //>>>>>>>>>>>>>>>>>>>>>>>>>>>>>>>>>>>//
  //  CBS Results: mp2/aug-cc-pV[TQ]Z  //
  //<<<<<<<<<<<<<<<<<<<<<<<<<<<<<<<<<<<//


   ==> HF <==

   HI-zeta (4) Energy:               -76.065868709633


   ==> Helgaker 2-point correlated extrapolation for method: MP2 <==

   LO-zeta (3) Energy:               -76.328723898760
   HI-zeta (4) Energy:               -76.351609754282
   Alpha (exponent) Value:             3.000000000000
   Extrapolated Energy:              -76.368310243447

   @Extrapolated MP2/(T,Q):          -76.368310243447



   ==> Helgaker 2-point correlated extrapolation for method: HF <==

   LO-zeta (3) Energy:               -76.060502255307
   HI-zeta (4) Energy:               -76.065868709633
   Alpha (exponent) Value:             3.000000000000
   Extrapolated Energy:              -76.069784770898

   @Extrapolated HF/(T,Q):           -76.069784770898


   ==> Components <==

  ---------------------------------------------------------------------------------------------------------
                          Method / Basis                      Rqd      Energy [Eh]   Variable
  ---------------------------------------------------------------------------------------------------------
                              hf / aug-cc-pvtz                  *     -76.06050226   HF TOTAL ENERGY
                             mp2 / aug-cc-pvtz                  *     -76.32872390   MP2 TOTAL ENERGY
                              hf / aug-cc-pvqz                  *     -76.06586871   HF TOTAL ENERGY
                             mp2 / aug-cc-pvqz                  *     -76.35160975   MP2 TOTAL ENERGY
  ---------------------------------------------------------------------------------------------------------

   ==> Stages <==

  ---------------------------------------------------------------------------------------------------------
      Stage               Method / Basis                       Wt      Energy [Eh]   Scheme
  ---------------------------------------------------------------------------------------------------------
        scf                   hf / aug-cc-pvqz                  1     -76.06586871   xtpl_highest_1
       corl                  mp2 / aug-cc-pv[tq]z               1     -76.36831024   corl_xtpl_helgaker_2
       corl                   hf / aug-cc-pv[tq]z              -1     -76.06978477   corl_xtpl_helgaker_2
  ---------------------------------------------------------------------------------------------------------

   ==> CBS <==

  ---------------------------------------------------------------------------------------------------------
      Stage               Method / Basis                               Energy [Eh]   Scheme
  ---------------------------------------------------------------------------------------------------------
        scf                   hf / aug-cc-pvqz                        -76.06586871   xtpl_highest_1
[...]
     139A      0.738589   140A      0.740104   141A      0.761262  
     142A      0.774224   143A      0.782501   144A      0.794850  
     145A      0.800494   146A      0.808206   147A      0.809578  
     148A      0.817646   149A      0.825471   150A      0.837273  
     151A      0.839269   152A      0.845987   153A      0.865843  
     154A      0.871547   155A      0.879361   156A      0.889304  
     157A      0.894895   158A      0.907127   159A      0.925878  
     160A      0.944148   161A      0.953806   162A      0.956407  
     163A      0.974649   164A      0.994623   165A      0.998863  
     166A      1.033712   167A      1.038937   168A      1.067295  
     169A      1.077328   170A      1.079789   171A      1.088475  
     172A      1.094341   173A      1.095238   174A      1.103069  
     175A      1.107473   176A      1.119297   177A      1.126053  
     178A      1.137531   179A      1.143746   180A      1.155286  
     181A      1.163403   182A      1.170352   183A      1.174328  
     184A      1.185065   185A      1.189463   186A      1.199399  
     187A      1.201438   188A      1.202574   189A      1.207086  
     190A      1.230570   191A      1.240027   192A      1.252983  
     193A      1.254783   194A      1.267304   195A      1.276017  
     196A      1.281895   197A      1.301864   198A      1.306857  
     199A      1.317598   200A      1.328429   201A      1.341609  
     202A      1.350572   203A      1.402260   204A      1.431118  
     205A      1.434306   206A      1.439745   207A      1.455978  
     208A      1.466974   209A      1.480608   210A      1.488691  
     211A      1.538168   212A      1.559827   213A      1.586183  
     214A      1.612357   215A      1.624720   216A      1.643729  
     217A      1.649707   218A      1.654267   219A      1.676144  
     220A      1.685589   221A      1.691182   222A      1.708579  
     223A      1.717832   224A      1.728060   225A      1.749143  
     226A      1.752829   227A      1.762530   228A      1.767437  
     229A      1.769107   230A      1.775742   231A      1.778757  
     232A      1.787513   233A      1.788766   234A      1.796295  
     235A      1.804553   236A      1.810114   237A      1.824767  
     238A      1.830475   239A      1.833294   240A      1.844793  
     241A      1.849922   242A      1.861560   243A      1.871211  
     244A      1.875956   245A      1.887539   246A      1.896690  
     247A      1.908542   248A      1.918307   249A      1.924383  
     250A      1.934504   251A      1.939133   252A      1.954749  
     253A      1.959613   254A      1.961147   255A      1.981772  
     256A      1.995056   257A      2.004792   258A      2.018291  
     259A      2.023641   260A      2.034945   261A      2.040501  
     262A      2.051282   263A      2.057540   264A      2.075907  
     265A      2.077319   266A      2.089813   267A      2.090940  
     268A      2.097298   269A      2.112590   270A      2.120301  
     271A      2.126955   272A      2.128220   273A      2.135108  
     274A      2.152043   275A      2.158606   276A      2.177731  
     277A      2.189149   278A      2.197492   279A      2.204064  
     280A      2.213075   281A      2.213760   282A      2.219407  
     283A      2.225362   284A      2.232881   285A      2.236575  
     286A      2.238925   287A      2.251447   288A      2.254174  
     289A      2.264102   290A      2.270894   291A      2.283475  
     292A      2.296043   293A      2.299659   294A      2.306273  
     295A      2.316106   296A      2.321224   297A      2.336134  
     298A      2.349735   299A      2.365824   300A      2.382082  
     301A      2.387057   302A      2.395671   303A      2.436288  
     304A      2.448477   305A      2.453088   306A      2.461566  
     307A      2.479944   308A      2.484656   309A      2.490404  
     310A      2.515598   311A      2.524060   312A      2.528562  
     313A      2.532660   314A      2.538984   315A      2.544435  
     316A      2.548091   317A      2.570646   318A      2.593827  
     319A      2.610376   320A      2.632183   321A      2.651036  
     322A      2.659823   323A      2.666153   324A      2.673507  
     325A      2.683110   326A      2.733020   327A      2.743750  
     328A      2.788927   329A      2.818555   330A      2.830719  
     331A      2.843326   332A      2.870353   333A      2.894113  
     334A      2.902097   335A      2.916363   336A      2.933833  
     337A      2.961529   338A      2.974185   339A      2.978607  
     340A      2.996368   341A      3.007500   342A      3.031902  
     343A      3.060135   344A      3.103964   345A      3.157232  
     346A      3.171291   347A      3.230366   348A      3.232910  
     349A      3.240397   350A      3.245784   351A      3.261984  
     352A      3.276353   353A      3.290504   354A      3.344598  
     355A      3.373748   356A      3.398456   357A      3.416166  
     358A      3.426603   359A      3.435095   360A      3.448750  
     361A      3.461524   362A      3.468536   363A      3.507952  
     364A      3.537907   365A      3.541022   366A      3.569743  
     367A      3.577022   368A      3.589043   369A      3.593174  
     370A      3.611609   371A      3.636312   372A      3.703116  
     373A      3.728192   374A      3.737660   375A      3.784609  
     376A      3.797434   377A      3.877077   378A      3.972266  
     379A      3.982270   380A      3.986684   381A      4.040802  
     382A      4.142662   383A      4.189726   384A      4.201332  
     385A      4.234338   386A      4.290706   387A      4.307878  
     388A      4.362681   389A      4.373300   390A      4.410031  
     391A      4.458724   392A      4.472092   393A      4.475311  
     394A      4.477566   395A      4.486907   396A      4.500070  
     397A      4.513660   398A      4.539075   399A      4.544765  
     400A      4.595521   401A      4.620584   402A      4.635546  
     403A      4.644449   404A      4.658581   405A      4.679744  
     406A      4.681215   407A      4.697061   408A      4.700747  
     409A      4.710813   410A      4.717274   411A      4.722972  
     412A      4.726245   413A      4.737293   414A      4.740113  
     415A      4.742311   416A      4.748934   417A      4.761349  
     418A      4.770029   419A      4.773473   420A      4.780829  
     421A      4.787262   422A      4.788238   423A      4.794350  
     424A      4.801962   425A      4.812267   426A      4.814592  
     427A      4.823040   428A      4.828482   429A      4.838774  
     430A      4.850101   431A      4.853953   432A      4.858190  
     433A      4.864629   434A      4.868965   435A      4.870824  
     436A      4.876276   437A      4.883835   438A      4.888613  
     439A      4.901639   440A      4.914095   441A      4.920406  
     442A      4.926785   443A      4.932738   444A      4.938400  
     445A      4.946867   446A      4.951884   447A      4.963835  
     448A      4.967806   449A      4.975672   450A      4.988011  
     451A      4.997139   452A      5.007832   453A      5.020895  
     454A      5.034543   455A      5.040966   456A      5.048884  
     457A      5.078709   458A      5.085051   459A      5.097524  
     460A      5.106677   461A      5.120842   462A      5.138954  
     463A      5.152620   464A      5.177671   465A      5.196773  
     466A      5.233203   467A      5.290191   468A      5.294073  
     469A      5.303171   470A      5.337885   471A      5.367739  
     472A      5.369651   473A      5.377092   474A      5.384653  
     475A      5.420089   476A      5.435343   477A      5.452169  
     478A      5.465539   479A      5.494978   480A      5.510816  
     481A      5.550221   482A      5.601173   483A      5.644174  
     484A      5.649790   485A      5.755644   486A      5.818426  
     487A      5.975100   488A      6.004132   489A      6.128669  
     490A      6.358448   491A      6.633530   492A      6.667479  
     493A      6.675118   494A      6.684996   495A      6.690443  
     496A      6.700826   497A      6.705425   498A      6.763346  
     499A      6.769516   500A      6.827479   501A      6.839365  
     502A      6.852692   503A      6.867460   504A      6.876624  
     505A      6.905731   506A      6.908191   507A      6.932722  
     508A      6.999935   509A      7.021037   510A      7.110768  
     511A      7.118397   512A      7.203426   513A      7.213097  
     514A      7.228403   515A      7.292926   516A      7.295673  
     517A      7.316237   518A      7.340702   519A      7.381479  
     520A      7.554073   521A      7.744714   522A      7.747391  
     523A      7.753224   524A      7.764973   525A      7.824134  
     526A      7.825822   527A      7.834135   528A      7.853071  
     529A      7.877280   530A      7.895231   531A      7.919315  
     532A      8.005459   533A      8.006811   534A      8.107000  
     535A      8.222173   536A      8.413069   537A      8.519568  
     538A      8.521601   539A      8.539137   540A      8.608097  
     541A      8.657278   542A      8.743822   543A      8.789205  
     544A      8.833259   545A      8.891866   546A      8.929172  
     547A      9.045962   548A      9.107651   549A      9.178806  
     550A      9.553824   551A      9.893506   552A     10.028292  
     553A     10.044964   554A     10.067138   555A     10.469704  
     556A     10.534726   557A     10.779695   558A     11.037901  
     559A     11.077334   560A     11.178786   561A     11.376791  
     562A     11.440251   563A     11.480486   564A     11.739373  
     565A     11.843658   566A     11.928748   567A     12.073242  
     568A     12.216960   569A     12.345604   570A     12.570171  
     571A     12.768950   572A     12.916474   573A     12.947116  
     574A     13.227737   575A     14.011893   576A     14.138597  
     577A     14.512770   578A     14.865610   579A     14.897393  
     580A     15.334905   581A     17.029008   582A     17.312708  
     583A     24.807712   584A     26.721818   585A     26.740887  
     586A     26.853725   587A     26.990877   588A     45.751316  

    Final Occupation by Irrep:
              A 
    DOCC [    42 ]

  @DF-RHF Final Energy: -1951.99721265985499

   => Energetics <=

    Nuclear Repulsion Energy =            539.2132431710696210
    One-Electron Energy =               -3771.3892750852946847
    Two-Electron Energy =                1280.1788192543699552
    Total Energy =                      -1951.9972126598549949

Computation Completed


Properties will be evaluated at   0.000000,   0.000000,  -0.000000 [a0]

Properties computed using the SCF density matrix

  Nuclear Dipole Moment: [e a0]
     X:    -6.4433      Y:    -3.6761      Z:     4.1470

  Electronic Dipole Moment: [e a0]
     X:     6.8930      Y:     3.3414      Z:    -4.6490

  Dipole Moment: [e a0]
     X:     0.4497      Y:    -0.3347      Z:    -0.5020     Total:     0.7525

  Dipole Moment: [D]
     X:     1.1431      Y:    -0.8508      Z:    -1.2759     Total:     1.9127


*** tstop() called on node37.bme.utexas.edu at Tue Feb 22 18:27:09 2022
Module time:
	user time   =     295.58 seconds =       4.93 minutes
	system time =      59.78 seconds =       1.00 minutes
	total time  =        152 seconds =       2.53 minutes
Total time:
	user time   =    1382.32 seconds =      23.04 minutes
	system time =     194.09 seconds =       3.23 minutes
	total time  =        624 seconds =      10.40 minutes

*** tstart() called on node37.bme.utexas.edu
*** at Tue Feb 22 18:27:09 2022


  //>>>>>>>>>>>>>>>>>>>>>>>>>>>>>>>>>>>//
  //               DFMP2               //
  //<<<<<<<<<<<<<<<<<<<<<<<<<<<<<<<<<<<//

   => Loading Basis Set <=

    Name: (AUG-CC-PVQZ AUX)
    Role: RIFIT
    Keyword: DF_BASIS_MP2
    atoms 1-4 entry CL         line   914 file /home/bdw2292/miniconda3/envs/amoebamdpoltype/share/psi4/basis/aug-cc-pvqz-ri.gbs 
    atoms 5   entry C          line   184 file /home/bdw2292/miniconda3/envs/amoebamdpoltype/share/psi4/basis/aug-cc-pvqz-ri.gbs 
    atoms 6   entry O          line   332 file /home/bdw2292/miniconda3/envs/amoebamdpoltype/share/psi4/basis/aug-cc-pvqz-ri.gbs 
    atoms 7-8 entry H          line    30 file /home/bdw2292/miniconda3/envs/amoebamdpoltype/share/psi4/basis/aug-cc-pvqz-ri.gbs 

	 --------------------------------------------------------
	                          DF-MP2                         
	      2nd-Order Density-Fitted Moller-Plesset Theory     
	              RMP2 Wavefunction,   4 Threads             
	                                                         
	        Rob Parrish, Justin Turney, Andy Simmonett,      
	           Ed Hohenstein, and C. David Sherrill          
	 --------------------------------------------------------

   => Auxiliary Basis Set <=

  Basis Set: (AUG-CC-PVQZ AUX)
    Blend: AUG-CC-PVQZ-RI
    Number of shells: 288
    Number of basis function: 1272
    Number of Cartesian functions: 1756
    Spherical Harmonics?: true
    Max angular momentum: 5

	 --------------------------------------------------------
	                 NBF =   588, NAUX =  1272
	 --------------------------------------------------------
	   CLASS    FOCC     OCC    AOCC    AVIR     VIR    FVIR
	   PAIRS      22      42      20     546     546       0
	 --------------------------------------------------------

	-----------------------------------------------------------
	 ==================> DF-MP2 Energies <==================== 
	-----------------------------------------------------------
	 Reference Energy          =   -1951.9972126598549949 [Eh]
	 Singles Energy            =      -0.0000000000000000 [Eh]
	 Same-Spin Energy          =      -0.3232340990208031 [Eh]
	 Opposite-Spin Energy      =      -0.9921008800081967 [Eh]
	 Correlation Energy        =      -1.3153349790289999 [Eh]
	 Total Energy              =   -1953.3125476388840980 [Eh]
	-----------------------------------------------------------
	 ================> DF-SCS-MP2 Energies <================== 
	-----------------------------------------------------------
	 SCS Same-Spin Scale       =       0.3333333333333333 [-]
	 SCS Opposite-Spin Scale   =       1.2000000000000000 [-]
	 SCS Same-Spin Energy      =      -0.1077446996736010 [Eh]
	 SCS Opposite-Spin Energy  =      -1.1905210560098360 [Eh]
	 SCS Correlation Energy    =      -1.2982657556834372 [Eh]
	 SCS Total Energy          =   -1953.2954784155383550 [Eh]
	-----------------------------------------------------------


*** tstop() called on node37.bme.utexas.edu at Tue Feb 22 18:27:48 2022
Module time:
	user time   =      87.31 seconds =       1.46 minutes
	system time =       5.25 seconds =       0.09 minutes
	total time  =         39 seconds =       0.65 minutes
Total time:
	user time   =    1469.64 seconds =      24.49 minutes
	system time =     199.34 seconds =       3.32 minutes
	total time  =        663 seconds =      11.05 minutes

  //>>>>>>>>>>>>>>>>>>>>>>>>>>>>>>>>>>>//
  //  CBS Results: mp2/aug-cc-pV[TQ]Z  //
  //<<<<<<<<<<<<<<<<<<<<<<<<<<<<<<<<<<<//


   ==> HF <==

   HI-zeta (4) Energy:               -1951.997212659855


   ==> Helgaker 2-point correlated extrapolation for method: MP2 <==

   LO-zeta (3) Energy:               -1953.196937700495
   HI-zeta (4) Energy:               -1953.312547638884
   Alpha (exponent) Value:             3.000000000000
   Extrapolated Energy:              -1953.396911647979

   @Extrapolated MP2/(T,Q):          -1953.396911647979



   ==> Helgaker 2-point correlated extrapolation for method: HF <==

   LO-zeta (3) Energy:               -1951.974574824610
   HI-zeta (4) Energy:               -1951.997212659855
   Alpha (exponent) Value:             3.000000000000
   Extrapolated Energy:              -1952.013732161250

   @Extrapolated HF/(T,Q):           -1952.013732161250


   ==> Components <==

  ---------------------------------------------------------------------------------------------------------
                          Method / Basis                      Rqd      Energy [Eh]   Variable
  ---------------------------------------------------------------------------------------------------------
                              hf / aug-cc-pvtz                  *   -1951.97457482   HF TOTAL ENERGY
                             mp2 / aug-cc-pvtz                  *   -1953.19693770   MP2 TOTAL ENERGY
                              hf / aug-cc-pvqz                  *   -1951.99721266   HF TOTAL ENERGY
                             mp2 / aug-cc-pvqz                  *   -1953.31254764   MP2 TOTAL ENERGY
  ---------------------------------------------------------------------------------------------------------

   ==> Stages <==

  ---------------------------------------------------------------------------------------------------------
      Stage               Method / Basis                       Wt      Energy [Eh]   Scheme
  ---------------------------------------------------------------------------------------------------------
        scf                   hf / aug-cc-pvqz                  1   -1951.99721266   xtpl_highest_1
       corl                  mp2 / aug-cc-pv[tq]z               1   -1953.39691165   corl_xtpl_helgaker_2
       corl                   hf / aug-cc-pv[tq]z              -1   -1952.01373216   corl_xtpl_helgaker_2
  ---------------------------------------------------------------------------------------------------------

   ==> CBS <==

  ---------------------------------------------------------------------------------------------------------
      Stage               Method / Basis                               Energy [Eh]   Scheme
  ---------------------------------------------------------------------------------------------------------
        scf                   hf / aug-cc-pvqz                      -1951.99721266   xtpl_highest_1
       corl                  mp2 / aug-cc-pv[tq]z                      -1.38317949   corl_xtpl_helgaker_2
      total                  CBS                                    -1953.38039215   
  ---------------------------------------------------------------------------------------------------------
   => Loading Basis Set <=

    Name: DEF2-SVP
    Role: ORBITAL
    Keyword: BASIS
    atoms 1-4 entry CL         line   356 file /home/bdw2292/miniconda3/envs/amoebamdpoltype/share/psi4/basis/def2-svp.gbs 
    atoms 5   entry C          line    90 file /home/bdw2292/miniconda3/envs/amoebamdpoltype/share/psi4/basis/def2-svp.gbs 
    atoms 6   entry O          line   130 file /home/bdw2292/miniconda3/envs/amoebamdpoltype/share/psi4/basis/def2-svp.gbs 
    atoms 7-8 entry H          line    15 file /home/bdw2292/miniconda3/envs/amoebamdpoltype/share/psi4/basis/def2-svp.gbs 


       N-Body: Complex Energy (fragments = (1, 2), basis = (1, 2): -1953.38039214658329)

   ==> N-Body: Counterpoise Corrected (CP) energies <==

   n-Body     Total Energy [Eh]       I.E. [kcal/mol]      Delta [kcal/mol]
        1    -1953.379212550740        0.000000000000        0.000000000000
        2    -1953.380240904916       -0.645301988276       -0.645301988276

   => Loading Basis Set <=

    Name: DEF2-SVP
    Role: ORBITAL
    Keyword: BASIS
    atoms 1-4 entry CL         line   356 file /home/bdw2292/miniconda3/envs/amoebamdpoltype/share/psi4/basis/def2-svp.gbs 
    atoms 5   entry C          line    90 file /home/bdw2292/miniconda3/envs/amoebamdpoltype/share/psi4/basis/def2-svp.gbs 
    atoms 6   entry O          line   130 file /home/bdw2292/miniconda3/envs/amoebamdpoltype/share/psi4/basis/def2-svp.gbs 
    atoms 7-8 entry H          line    15 file /home/bdw2292/miniconda3/envs/amoebamdpoltype/share/psi4/basis/def2-svp.gbs 

CP Energy =  -0.001028
    Psi4 stopped on: Tuesday, 22 February 2022 06:27PM
    Psi4 wall time for execution: 0:11:05.36

*** Psi4 exiting successfully. Buy a developer a beer!
