
    -----------------------------------------------------------------------
          Psi4: An Open-Source Ab Initio Electronic Structure Package
                               Psi4 1.3.2 release

                         Git: Rev {HEAD} ecbda83 


    R. M. Parrish, L. A. Burns, D. G. A. Smith, A. C. Simmonett,
    A. E. DePrince III, E. G. Hohenstein, U. Bozkaya, A. Yu. Sokolov,
    R. Di Remigio, R. M. Richard, J. F. Gonthier, A. M. James,
    H. R. McAlexander, A. Kumar, M. Saitow, X. Wang, B. P. Pritchard,
    P. Verma, H. F. Schaefer III, K. Patkowski, R. A. King, E. F. Valeev,
    F. A. Evangelista, J. M. Turney, T. D. Crawford, and C. D. Sherrill,
    J. Chem. Theory Comput. 13(7) pp 3185--3197 (2017).
    (doi: 10.1021/acs.jctc.7b00174)


                         Additional Contributions by
    P. Kraus, H. Kruse, M. H. Lechner, M. C. Schieber, R. A. Shaw,
    A. Alenaizan, R. Galvelis, Z. L. Glick, S. Lehtola, and J. P. Misiewicz

    -----------------------------------------------------------------------


    Psi4 started on: Tuesday, 22 February 2022 10:18PM

    Process ID: 27352
    Host:       node37.bme.utexas.edu
    PSIDATADIR: /home/bdw2292/miniconda3/envs/amoebamdpoltype/share/psi4
    Memory:     500.0 MiB
    Threads:    1
    
  ==> Input File <==

--------------------------------------------------------------------------
molecule { 
0 1
 Cl                 -1.2107509    -0.8798622     2.0388667
 Cl                 -1.2016718     1.2595512     0.0928711
 Cl                 -0.4324728    -1.4106835    -0.6944078
 Cl                  1.2946898     0.1437838     1.0222648
  C                 -0.3884123    -0.2223763     0.6163801
--
0 1
 Cl                  1.7427654     1.3018022    -2.9345618
 Cl                  1.9031990     3.2946497    -5.0181252
 Cl                  2.5490509     0.5379456    -5.6011549
 Cl                  4.3195937     2.1193641    -3.9518916
  C                  2.6288961     1.8134439    -4.3769258
}
memory 15GB
set_num_threads(4)
psi4_io.set_default_path("/scratch/bdw2292/Psi4-CCl4")
set maxiter 500
set freeze_core True
set PROPERTIES_ORIGIN ["COM"]
e_dim= energy('mp2/aug-cc-pV[TQ]Z',bsse_type='cp')

psi4.print_out('CP Energy = %10.6f' % (e_dim))
clean()
--------------------------------------------------------------------------

  Memory set to  13.970 GiB by Python driver.
  Threads set to 4 by Python driver.


   ===> N-Body Interaction Abacus <===
        BSSE Treatment:                     cp
        Number of 1-body computations:     4
        Number of 2-body computations:     1

   ==> N-Body: Now computing 1-body complexes <==


       N-Body: Computing complex (1/4) with fragments (2,) in the basis of fragments (2,).


  //>>>>>>>>>>>>>>>>>>>>>>>>>>>>>>>>>>>//
  //   CBS Setup: mp2/aug-cc-pV[TQ]Z   //
  //<<<<<<<<<<<<<<<<<<<<<<<<<<<<<<<<<<<//

    Naive listing of computations required.
             hf / aug-cc-pvqz              for  HF TOTAL ENERGY
            mp2 / aug-cc-pvtz              for  MP2 TOTAL ENERGY
            mp2 / aug-cc-pvqz              for  MP2 TOTAL ENERGY
             hf / aug-cc-pvtz              for  HF TOTAL ENERGY
             hf / aug-cc-pvqz              for  HF TOTAL ENERGY

    Enlightened listing of computations required.
            mp2 / aug-cc-pvtz              for  MP2 TOTAL ENERGY
            mp2 / aug-cc-pvqz              for  MP2 TOTAL ENERGY

    Full listing of computations to be obtained (required and bonus).
             hf / aug-cc-pvtz              for  HF TOTAL ENERGY
            mp2 / aug-cc-pvtz              for  MP2 TOTAL ENERGY
             hf / aug-cc-pvqz              for  HF TOTAL ENERGY
            mp2 / aug-cc-pvqz              for  MP2 TOTAL ENERGY

  //>>>>>>>>>>>>>>>>>>>>>>>>>>>>>>>>>>>>//
  // CBS Computation: MP2 / AUG-CC-PVTZ //
  //<<<<<<<<<<<<<<<<<<<<<<<<<<<<<<<<<<<<//

    SCF Algorithm Type (re)set to DF.

*** tstart() called on node37.bme.utexas.edu
*** at Tue Feb 22 22:18:42 2022

   => Loading Basis Set <=

    Name: AUG-CC-PVTZ
    Role: ORBITAL
    Keyword: BASIS
    atoms 1-4 entry CL         line   984 file /home/bdw2292/miniconda3/envs/amoebamdpoltype/share/psi4/basis/aug-cc-pvtz.gbs 
    atoms 5   entry C          line   235 file /home/bdw2292/miniconda3/envs/amoebamdpoltype/share/psi4/basis/aug-cc-pvtz.gbs 


         ---------------------------------------------------------
                                   SCF
               by Justin Turney, Rob Parrish, Andy Simmonett
                          and Daniel G. A. Smith
                              RHF Reference
                        4 Threads,  14305 MiB Core
         ---------------------------------------------------------

  ==> Geometry <==

    Molecular point group: c1
    Full point group: C1

    Geometry (in Angstrom), charge = 0, multiplicity = 1:

       Center              X                  Y                   Z               Mass       
    ------------   -----------------  -----------------  -----------------  -----------------
         CL           0.622239363730     0.506005860896    -1.053833533012    34.968852682000
         CL           0.782672963730     2.498853360896    -3.137396933012    34.968852682000
         CL           1.428524863730    -0.257850739104    -3.720426633012    34.968852682000
         CL           3.199067663730     1.323567760896    -2.071163333012    34.968852682000
         C            1.508370063730     1.017647560896    -2.496197533012    12.000000000000

  Running in c1 symmetry.

  Rotational constants: A =      0.05769  B =      0.00969  C =      0.00969 [cm^-1]
  Rotational constants: A =   1729.44265  B =    290.35837  C =    290.35337 [MHz]
  Nuclear repulsion =  439.578175476531214

  Charge       = 0
  Multiplicity = 1
  Electrons    = 74
  Nalpha       = 37
  Nbeta        = 37

  ==> Algorithm <==

  SCF Algorithm Type is DF.
  DIIS enabled.
  MOM disabled.
  Fractional occupation disabled.
  Guess Type is SAD.
  Energy threshold   = 1.00e-08
  Density threshold  = 1.00e-08
  Integral threshold = 0.00e+00

  ==> Primary Basis <==

  Basis Set: AUG-CC-PVTZ
    Blend: AUG-CC-PVTZ
    Number of shells: 78
    Number of basis function: 246
    Number of Cartesian functions: 291
    Spherical Harmonics?: true
    Max angular momentum: 3

   => Loading Basis Set <=

    Name: (AUG-CC-PVTZ AUX)
    Role: JKFIT
    Keyword: DF_BASIS_SCF
    atoms 1-4 entry CL         line   816 file /home/bdw2292/miniconda3/envs/amoebamdpoltype/share/psi4/basis/aug-cc-pvtz-jkfit.gbs 
    atoms 5   entry C          line   162 file /home/bdw2292/miniconda3/envs/amoebamdpoltype/share/psi4/basis/aug-cc-pvtz-jkfit.gbs 

  ==> Pre-Iterations <==

   -------------------------------------------------------
    Irrep   Nso     Nmo     Nalpha   Nbeta   Ndocc  Nsocc
   -------------------------------------------------------
     A        246     246       0       0       0       0
   -------------------------------------------------------
    Total     246     246      37      37      37       0
   -------------------------------------------------------

  ==> Integral Setup <==

  DFHelper Memory: AOs need 0.328 GiB; user supplied 10.477 GiB. Using in-core AOs.

  ==> MemDFJK: Density-Fitted J/K Matrices <==

    J tasked:                   Yes
    K tasked:                   Yes
    wK tasked:                   No
    OpenMP threads:               4
    Memory [MiB]:             10728
    Algorithm:                 Core
    Schwarz Cutoff:           1E-12
    Mask sparsity (%):       0.0000
    Fitting Condition:        1E-10

   => Auxiliary Basis Set <=

  Basis Set: (AUG-CC-PVTZ AUX)
    Blend: AUG-CC-PVTZ-JKFIT
    Number of shells: 198
    Number of basis function: 688
    Number of Cartesian functions: 851
    Spherical Harmonics?: true
    Max angular momentum: 4

  Minimum eigenvalue in the overlap matrix is 8.0491389939E-05.
  Using Symmetric Orthogonalization.

  SCF Guess: Superposition of Atomic Densities via on-the-fly atomic UHF.

  ==> Iterations <==

                           Total Energy        Delta E     RMS |[F,P]|

   @DF-RHF iter SAD: -1875.95040616458277   -1.87595e+03   0.00000e+00 
   @DF-RHF iter   1: -1875.79732887781097    1.53077e-01   1.87047e-03 DIIS
   @DF-RHF iter   2: -1875.83598372097936   -3.86548e-02   1.72423e-03 DIIS
   @DF-RHF iter   3: -1875.91355614231452   -7.75724e-02   1.84956e-04 DIIS
   @DF-RHF iter   4: -1875.91603559106511   -2.47945e-03   6.47869e-05 DIIS
   @DF-RHF iter   5: -1875.91636854153808   -3.32950e-04   1.31545e-05 DIIS
   @DF-RHF iter   6: -1875.91638472554905   -1.61840e-05   2.18020e-06 DIIS
   @DF-RHF iter   7: -1875.91638493452865   -2.08980e-07   2.41893e-07 DIIS
   @DF-RHF iter   8: -1875.91638493887217   -4.34352e-09   4.78610e-08 DIIS
   @DF-RHF iter   9: -1875.91638493905771   -1.85537e-10   1.23859e-08 DIIS
   @DF-RHF iter  10: -1875.91638493906976   -1.20508e-11   2.87064e-09 DIIS
  Energy and wave function converged.


  ==> Post-Iterations <==

    Orbital Energies [Eh]
    ---------------------

    Doubly Occupied:                                                      

       1A   -104.878703     2A   -104.878676     3A   -104.878674  
       4A   -104.878632     5A    -11.499584     6A    -10.603134  
       7A    -10.603112     8A    -10.603105     9A    -10.603091  
      10A     -8.069901    11A     -8.069878    12A     -8.069869  
      13A     -8.069868    14A     -8.067612    15A     -8.067611  
      16A     -8.067589    17A     -8.067588    18A     -8.067581  
      19A     -8.067580    20A     -8.067576    21A     -8.067575  
      22A     -1.282701    23A     -1.128399    24A     -1.128328  
      25A     -1.128295    26A     -0.834206    27A     -0.658341  
      28A     -0.658307    29A     -0.658283    30A     -0.532383  
      31A     -0.532318    32A     -0.489193    33A     -0.489161  
      34A     -0.489121    35A     -0.460844    36A     -0.460758  
      37A     -0.460729  

    Virtual:                                                              

      38A      0.047788    39A      0.070278    40A      0.070282  
      41A      0.070288    42A      0.086586    43A      0.107631  
      44A      0.107655    45A      0.107723    46A      0.120431  
      47A      0.120437    48A      0.161735    49A      0.161745  
      50A      0.161747    51A      0.181214    52A      0.181258  
      53A      0.181366    54A      0.192848    55A      0.192938  
      56A      0.192968    57A      0.211342    58A      0.260230  
      59A      0.260308    60A      0.260329    61A      0.267934  
      62A      0.318221    63A      0.318254    64A      0.318467  
      65A      0.351942    66A      0.351980    67A      0.393915  
      68A      0.394062    69A      0.394079    70A      0.414630  
      71A      0.414664    72A      0.430351    73A      0.430467  
      74A      0.430505    75A      0.499029    76A      0.499069  
      77A      0.499079    78A      0.518170    79A      0.518178  
      80A      0.518213    81A      0.521213    82A      0.523904  
      83A      0.523956    84A      0.572495    85A      0.572518  
      86A      0.572627    87A      0.734499    88A      0.745383  
      89A      0.745592    90A      0.745639    91A      0.786001  
      92A      0.786079    93A      0.786083    94A      0.817430  
      95A      0.817449    96A      0.820120    97A      0.820334  
      98A      0.820349    99A      0.830718   100A      0.830955  
     101A      0.831079   102A      0.844909   103A      0.872038  
     104A      0.872063   105A      0.872119   106A      0.904785  
     107A      0.904828   108A      0.904836   109A      0.940051  
     110A      0.940085   111A      0.957383   112A      0.957450  
     113A      0.957467   114A      1.049102   115A      1.051187  
     116A      1.051249   117A      1.051297   118A      1.081651  
     119A      1.081662   120A      1.127033   121A      1.127062  
     122A      1.127391   123A      1.128651   124A      1.161747  
     125A      1.161922   126A      1.162016   127A      1.210886  
     128A      1.211053   129A      1.211084   130A      1.315198  
     131A      1.315207   132A      1.315439   133A      1.323035  
     134A      1.323285   135A      1.342877   136A      1.511897  
     137A      1.512106   138A      1.518499   139A      1.518716  
     140A      1.518861   141A      1.564511   142A      1.564600  
     143A      1.564617   144A      1.662021   145A      1.662061  
     146A      1.663070   147A      1.674311   148A      1.746356  
     149A      1.746444   150A      1.746501   151A      1.759781  
     152A      1.759809   153A      1.759921   154A      1.874692  
     155A      1.874738   156A      1.875033   157A      1.875091  
     158A      1.888632   159A      1.889159   160A      1.889239  
     161A      1.906855   162A      1.906932   163A      1.993090  
     164A      1.993207   165A      1.993489   166A      2.274330  
     167A      2.500278   168A      2.500344   169A      2.579768  
     170A      2.580054   171A      2.580100   172A      2.586989  
     173A      2.587006   174A      2.587041   175A      2.611819  
     176A      2.611990   177A      2.613860   178A      2.613909  
     179A      2.613967   180A      2.685548   181A      2.697392  
     182A      2.697516   183A      2.697540   184A      2.718497  
     185A      2.719351   186A      2.719611   187A      2.905123  
     188A      2.905264   189A      2.906112   190A      2.985025  
     191A      2.985079   192A      2.985098   193A      3.029515  
     194A      3.035358   195A      3.035471   196A      3.073616  
     197A      3.073685   198A      3.074002   199A      3.086262  
     200A      3.086447   201A      3.087496   202A      3.096733  
     203A      3.096796   204A      3.096822   205A      3.123287  
     206A      3.140397   207A      3.148530   208A      3.148604  
     209A      3.149118   210A      3.207270   211A      3.207467  
     212A      3.207615   213A      3.215227   214A      3.215252  
     215A      3.242916   216A      3.242953   217A      3.242962  
     218A      3.348769   219A      3.348878   220A      3.348973  
     221A      3.428561   222A      3.428673   223A      3.429079  
     224A      3.536193   225A      3.536458   226A      3.771970  
     227A      3.772059   228A      3.772368   229A      3.874908  
     230A      4.007819   231A      4.007909   232A      4.008080  
     233A      4.108013   234A      4.108592   235A      4.298023  
     236A      4.298154   237A      4.298223   238A      4.724344  
     239A      4.724575   240A      4.725909   241A      4.847832  
     242A      6.593057   243A      7.638179   244A      7.638477  
     245A      7.643101   246A     10.777855  

    Final Occupation by Irrep:
              A 
    DOCC [    37 ]

  @DF-RHF Final Energy: -1875.91638493906976

   => Energetics <=

    Nuclear Repulsion Energy =            439.5781754765312144
    One-Electron Energy =               -3467.7125062378900111
    Two-Electron Energy =                1152.2179458222890389
    Total Energy =                      -1875.9163849390697578

Computation Completed


Properties will be evaluated at   2.849982,   1.923069,  -4.716273 [a0]

Properties computed using the SCF density matrix

  Nuclear Dipole Moment: [e a0]
     X:     0.0001      Y:     0.0000      Z:    -0.0001

  Electronic Dipole Moment: [e a0]
     X:    -0.0008      Y:    -0.0004      Z:     0.0007

  Dipole Moment: [e a0]
     X:    -0.0007      Y:    -0.0004      Z:     0.0006     Total:     0.0010

  Dipole Moment: [D]
     X:    -0.0018      Y:    -0.0009      Z:     0.0015     Total:     0.0025


*** tstop() called on node37.bme.utexas.edu at Tue Feb 22 22:18:57 2022
Module time:
	user time   =      17.33 seconds =       0.29 minutes
	system time =       1.40 seconds =       0.02 minutes
	total time  =         15 seconds =       0.25 minutes
Total time:
	user time   =      17.33 seconds =       0.29 minutes
	system time =       1.40 seconds =       0.02 minutes
	total time  =         15 seconds =       0.25 minutes

*** tstart() called on node37.bme.utexas.edu
*** at Tue Feb 22 22:18:57 2022


  //>>>>>>>>>>>>>>>>>>>>>>>>>>>>>>>>>>>//
  //               DFMP2               //
  //<<<<<<<<<<<<<<<<<<<<<<<<<<<<<<<<<<<//

   => Loading Basis Set <=

    Name: (AUG-CC-PVTZ AUX)
    Role: RIFIT
    Keyword: DF_BASIS_MP2
    atoms 1-4 entry CL         line   742 file /home/bdw2292/miniconda3/envs/amoebamdpoltype/share/psi4/basis/aug-cc-pvtz-ri.gbs 
    atoms 5   entry C          line   148 file /home/bdw2292/miniconda3/envs/amoebamdpoltype/share/psi4/basis/aug-cc-pvtz-ri.gbs 

	 --------------------------------------------------------
	                          DF-MP2                         
	      2nd-Order Density-Fitted Moller-Plesset Theory     
	              RMP2 Wavefunction,   4 Threads             
	                                                         
	        Rob Parrish, Justin Turney, Andy Simmonett,      
	           Ed Hohenstein, and C. David Sherrill          
	 --------------------------------------------------------

   => Auxiliary Basis Set <=

  Basis Set: (AUG-CC-PVTZ AUX)
    Blend: AUG-CC-PVTZ-RI
    Number of shells: 176
    Number of basis function: 694
    Number of Cartesian functions: 900
    Spherical Harmonics?: true
    Max angular momentum: 4

	 --------------------------------------------------------
	                 NBF =   246, NAUX =   694
	 --------------------------------------------------------
	   CLASS    FOCC     OCC    AOCC    AVIR     VIR    FVIR
	   PAIRS      21      37      16     209     209       0
	 --------------------------------------------------------

	-----------------------------------------------------------
	 ==================> DF-MP2 Energies <==================== 
	-----------------------------------------------------------
	 Reference Energy          =   -1875.9163849390697578 [Eh]
	 Singles Energy            =      -0.0000000000000000 [Eh]
	 Same-Spin Energy          =      -0.2463768261471915 [Eh]
	 Opposite-Spin Energy      =      -0.7042185859573150 [Eh]
	 Correlation Energy        =      -0.9505954121045065 [Eh]
	 Total Energy              =   -1876.8669803511743339 [Eh]
	-----------------------------------------------------------
	 ================> DF-SCS-MP2 Energies <================== 
	-----------------------------------------------------------
	 SCS Same-Spin Scale       =       0.3333333333333333 [-]
	 SCS Opposite-Spin Scale   =       1.2000000000000000 [-]
	 SCS Same-Spin Energy      =      -0.0821256087157305 [Eh]
	 SCS Opposite-Spin Energy  =      -0.8450623031487779 [Eh]
	 SCS Correlation Energy    =      -0.9271879118645084 [Eh]
	 SCS Total Energy          =   -1876.8435728509343789 [Eh]
	-----------------------------------------------------------


*** tstop() called on node37.bme.utexas.edu at Tue Feb 22 22:18:59 2022
Module time:
	user time   =       7.12 seconds =       0.12 minutes
	system time =       0.36 seconds =       0.01 minutes
	total time  =          2 seconds =       0.03 minutes
Total time:
	user time   =      24.45 seconds =       0.41 minutes
	system time =       1.76 seconds =       0.03 minutes
	total time  =         17 seconds =       0.28 minutes

  //>>>>>>>>>>>>>>>>>>>>>>>>>>>>>>>>>>>>//
  // CBS Computation: MP2 / AUG-CC-PVQZ //
  //<<<<<<<<<<<<<<<<<<<<<<<<<<<<<<<<<<<<//

    SCF Algorithm Type (re)set to DF.

*** tstart() called on node37.bme.utexas.edu
*** at Tue Feb 22 22:18:59 2022

   => Loading Basis Set <=

    Name: AUG-CC-PVQZ
    Role: ORBITAL
    Keyword: BASIS
    atoms 1-4 entry CL         line  1218 file /home/bdw2292/miniconda3/envs/amoebamdpoltype/share/psi4/basis/aug-cc-pvqz.gbs 
    atoms 5   entry C          line   299 file /home/bdw2292/miniconda3/envs/amoebamdpoltype/share/psi4/basis/aug-cc-pvqz.gbs 


         ---------------------------------------------------------
                                   SCF
               by Justin Turney, Rob Parrish, Andy Simmonett
                          and Daniel G. A. Smith
                              RHF Reference
                        4 Threads,  14305 MiB Core
         ---------------------------------------------------------

  ==> Geometry <==

    Molecular point group: c1
    Full point group: C1

    Geometry (in Angstrom), charge = 0, multiplicity = 1:

       Center              X                  Y                   Z               Mass       
    ------------   -----------------  -----------------  -----------------  -----------------
         CL           0.622239363730     0.506005860896    -1.053833533012    34.968852682000
         CL           0.782672963730     2.498853360896    -3.137396933012    34.968852682000
         CL           1.428524863730    -0.257850739104    -3.720426633012    34.968852682000
         CL           3.199067663730     1.323567760896    -2.071163333012    34.968852682000
         C            1.508370063730     1.017647560896    -2.496197533012    12.000000000000

  Running in c1 symmetry.

  Rotational constants: A =      0.05769  B =      0.00969  C =      0.00969 [cm^-1]
  Rotational constants: A =   1729.44265  B =    290.35837  C =    290.35337 [MHz]
  Nuclear repulsion =  439.578175476531214

  Charge       = 0
  Multiplicity = 1
  Electrons    = 74
  Nalpha       = 37
  Nbeta        = 37

  ==> Algorithm <==

  SCF Algorithm Type is DF.
  DIIS enabled.
  MOM disabled.
  Fractional occupation disabled.
  Guess Type is SAD.
  Energy threshold   = 1.00e-08
  Density threshold  = 1.00e-08
  Integral threshold = 0.00e+00

  ==> Primary Basis <==

  Basis Set: AUG-CC-PVQZ
    Blend: AUG-CC-PVQZ
    Number of shells: 108
    Number of basis function: 416
    Number of Cartesian functions: 541
    Spherical Harmonics?: true
    Max angular momentum: 4

   => Loading Basis Set <=

    Name: (AUG-CC-PVQZ AUX)
    Role: JKFIT
    Keyword: DF_BASIS_SCF
    atoms 1-4 entry CL         line   904 file /home/bdw2292/miniconda3/envs/amoebamdpoltype/share/psi4/basis/aug-cc-pvqz-jkfit.gbs 
    atoms 5   entry C          line   178 file /home/bdw2292/miniconda3/envs/amoebamdpoltype/share/psi4/basis/aug-cc-pvqz-jkfit.gbs 

  ==> Pre-Iterations <==

   -------------------------------------------------------
    Irrep   Nso     Nmo     Nalpha   Nbeta   Ndocc  Nsocc
   -------------------------------------------------------
     A        416     416       0       0       0       0
   -------------------------------------------------------
    Total     416     416      37      37      37       0
   -------------------------------------------------------

  ==> Integral Setup <==

  DFHelper Memory: AOs need 1.181 GiB; user supplied 10.477 GiB. Using in-core AOs.

  ==> MemDFJK: Density-Fitted J/K Matrices <==

    J tasked:                   Yes
    K tasked:                   Yes
    wK tasked:                   No
    OpenMP threads:               4
    Memory [MiB]:             10728
    Algorithm:                 Core
    Schwarz Cutoff:           1E-12
    Mask sparsity (%):       0.4184
    Fitting Condition:        1E-10

   => Auxiliary Basis Set <=

  Basis Set: (AUG-CC-PVQZ AUX)
    Blend: AUG-CC-PVQZ-JKFIT
    Number of shells: 218
    Number of basis function: 878
    Number of Cartesian functions: 1186
    Spherical Harmonics?: true
    Max angular momentum: 5

  Minimum eigenvalue in the overlap matrix is 1.3081881124E-05.
  Using Symmetric Orthogonalization.

  SCF Guess: Superposition of Atomic Densities via on-the-fly atomic UHF.

  ==> Iterations <==

                           Total Energy        Delta E     RMS |[F,P]|

   @DF-RHF iter SAD: -1875.96118937224469   -1.87596e+03   0.00000e+00 
   @DF-RHF iter   1: -1875.81451518535869    1.46674e-01   1.13011e-03 DIIS
   @DF-RHF iter   2: -1875.85351309177872   -3.89979e-02   1.03487e-03 DIIS
   @DF-RHF iter   3: -1875.93071048271963   -7.71974e-02   1.16261e-04 DIIS
   @DF-RHF iter   4: -1875.93326089990342   -2.55042e-03   4.23350e-05 DIIS
   @DF-RHF iter   5: -1875.93367708637015   -4.16186e-04   8.48697e-06 DIIS
   @DF-RHF iter   6: -1875.93369554638161   -1.84600e-05   1.39447e-06 DIIS
   @DF-RHF iter   7: -1875.93369578250122   -2.36120e-07   1.72003e-07 DIIS
   @DF-RHF iter   8: -1875.93369578841975   -5.91854e-09   3.68569e-08 DIIS
   @DF-RHF iter   9: -1875.93369578871898   -2.99224e-10   9.08076e-09 DIIS
  Energy and wave function converged.


  ==> Post-Iterations <==

    Orbital Energies [Eh]
    ---------------------

    Doubly Occupied:                                                      

       1A   -104.876214     2A   -104.876187     3A   -104.876186  
       4A   -104.876145     5A    -11.496826     6A    -10.601887  
       7A    -10.601866     8A    -10.601858     9A    -10.601844  
      10A     -8.068857    11A     -8.068835    12A     -8.068827  
      13A     -8.068824    14A     -8.066761    15A     -8.066761  
      16A     -8.066738    17A     -8.066738    18A     -8.066731  
      19A     -8.066730    20A     -8.066726    21A     -8.066726  
      22A     -1.281607    23A     -1.127680    24A     -1.127610  
      25A     -1.127578    26A     -0.833860    27A     -0.658110  
      28A     -0.658076    29A     -0.658053    30A     -0.532088  
      31A     -0.532023    32A     -0.488884    33A     -0.488852  
      34A     -0.488812    35A     -0.460578    36A     -0.460492  
      37A     -0.460463  

    Virtual:                                                              

      38A      0.040116    39A      0.057995    40A      0.058000  
      41A      0.058002    42A      0.084042    43A      0.091772  
      44A      0.091787    45A      0.091832    46A      0.096207  
      47A      0.096211    48A      0.136310    49A      0.136312  
      50A      0.136316    51A      0.159943    52A      0.159974  
      53A      0.160014    54A      0.168453    55A      0.168461  
      56A      0.168493    57A      0.177098    58A      0.215199  
      59A      0.215254    60A      0.215273    61A      0.230027  
      62A      0.255459    63A      0.255488    64A      0.255645  
      65A      0.295624    66A      0.295644    67A      0.316654  
      68A      0.316696    69A      0.326722    70A      0.326927  
      71A      0.326942    72A      0.350640    73A      0.350684  
      74A      0.350711    75A      0.360240    76A      0.360264  
      77A      0.360485    78A      0.369632    79A      0.369647  
      80A      0.369676    81A      0.383488    82A      0.433298  
      83A      0.433324    84A      0.449900    85A      0.449910  
      86A      0.449937    87A      0.552291    88A      0.558792  
      89A      0.558828    90A      0.559000    91A      0.578656  
      92A      0.578678    93A      0.581187    94A      0.581283  
      95A      0.581293    96A      0.600333    97A      0.600482  
      98A      0.600566    99A      0.604281   100A      0.604398  
     101A      0.604451   102A      0.634638   103A      0.648494  
     104A      0.648815   105A      0.648841   106A      0.683683  
     107A      0.683711   108A      0.683749   109A      0.685594  
     110A      0.685613   111A      0.737955   112A      0.738163  
     113A      0.738231   114A      0.790626   115A      0.790634  
     116A      0.802209   117A      0.810107   118A      0.810124  
     119A      0.810149   120A      0.874634   121A      0.874673  
     122A      0.874800   123A      0.879360   124A      0.880746  
     125A      0.880766   126A      0.880842   127A      0.932039  
     128A      0.932039   129A      0.932153   130A      1.025867  
     131A      1.039122   132A      1.039158   133A      1.039233  
     134A      1.087855   135A      1.087870   136A      1.106561  
     137A      1.106600   138A      1.106611   139A      1.121478  
     140A      1.121483   141A      1.132048   142A      1.154768  
     143A      1.154853   144A      1.154856   145A      1.174090  
     146A      1.174119   147A      1.174400   148A      1.198143  
     149A      1.198161   150A      1.198187   151A      1.241279  
     152A      1.241299   153A      1.241352   154A      1.271874  
     155A      1.272410   156A      1.272426   157A      1.272583  
     158A      1.295821   159A      1.296076   160A      1.296108  
     161A      1.363961   162A      1.430465   163A      1.430502  
     164A      1.430608   165A      1.458461   166A      1.458599  
     167A      1.643969   168A      1.644047   169A      1.644315  
     170A      1.675414   171A      1.675417   172A      1.766734  
     173A      1.766802   174A      1.766905   175A      1.771897  
     176A      1.772054   177A      1.772817   178A      1.772899  
     179A      1.772935   180A      1.784338   181A      1.784458  
     182A      1.784526   183A      1.794658   184A      1.849076  
     185A      1.849382   186A      1.849393   187A      1.899930  
     188A      1.899941   189A      1.899988   190A      1.929296  
     191A      1.929482   192A      1.955406   193A      1.955688  
     194A      1.955757   195A      1.992720   196A      1.992746  
     197A      2.020881   198A      2.020920   199A      2.021508  
     200A      2.026628   201A      2.050643   202A      2.050809  
     203A      2.050892   204A      2.096817   205A      2.096937  
     206A      2.097010   207A      2.099509   208A      2.113046  
     209A      2.113227   210A      2.122376   211A      2.122417  
     212A      2.122573   213A      2.185094   214A      2.185123  
     215A      2.185581   216A      2.192364   217A      2.225487  
     218A      2.225891   219A      2.225995   220A      2.239402  
     221A      2.239432   222A      2.239967   223A      2.273172  
     224A      2.273230   225A      2.273281   226A      2.277112  
     227A      2.277476   228A      2.277493   229A      2.312120  
     230A      2.312155   231A      2.312232   232A      2.370795  
     233A      2.380147   234A      2.380187   235A      2.468822  
     236A      2.468903   237A      2.469119   238A      2.469875  
     239A      2.471540   240A      2.471716   241A      2.471728  
     242A      2.516942   243A      2.523097   244A      2.523166  
     245A      2.523475   246A      2.531198   247A      2.531245  
     248A      2.588798   249A      2.644244   250A      2.644393  
     251A      2.644494   252A      2.655679   253A      2.655955  
     254A      2.656627   255A      2.801623   256A      2.801769  
     257A      2.801873   258A      2.856833   259A      2.887968  
     260A      2.888947   261A      2.889210   262A      2.969510  
     263A      2.969581   264A      2.972365   265A      2.972763  
     266A      2.972927   267A      3.238203   268A      3.238257  
     269A      3.238360   270A      3.238652   271A      3.238713  
     272A      3.239252   273A      3.404105   274A      3.404169  
     275A      3.431646   276A      3.431744   277A      3.432515  
     278A      3.454875   279A      3.455049   280A      3.500446  
     281A      3.521081   282A      3.521222   283A      3.521375  
     284A      3.591792   285A      3.591835   286A      3.591886  
     287A      3.726451   288A      3.969969   289A      3.970020  
     290A      3.971639   291A      4.187460   292A      4.355391  
     293A      4.355540   294A      4.456060   295A      4.456546  
     296A      4.456624   297A      4.479428   298A      4.479453  
     299A      4.488972   300A      4.489334   301A      4.489422  
     302A      4.618143   303A      4.618164   304A      4.618216  
     305A      4.679662   306A      4.679695   307A      4.679815  
     308A      4.701927   309A      4.702135   310A      4.702216  
     311A      4.710002   312A      4.710046   313A      4.710147  
     314A      4.741048   315A      4.741386   316A      4.741439  
     317A      4.747744   318A      4.752690   319A      4.769564  
     320A      4.769693   321A      4.777559   322A      4.777731  
     323A      4.777834   324A      4.784593   325A      4.784671  
     326A      4.784796   327A      4.797671   328A      4.797895  
     329A      4.832629   330A      4.851424   331A      4.851807  
     332A      4.851845   333A      4.858065   334A      4.858380  
     335A      4.858405   336A      4.876525   337A      4.876567  
     338A      4.877774   339A      4.909792   340A      4.909825  
     341A      4.947000   342A      4.947024   343A      4.947050  
     344A      4.951006   345A      4.951132   346A      4.951408  
     347A      4.976350   348A      4.976417   349A      4.976702  
     350A      4.998923   351A      5.039250   352A      5.039520  
     353A      5.039652   354A      5.058382   355A      5.090016  
     356A      5.090687   357A      5.090757   358A      5.167841  
     359A      5.167934   360A      5.268439   361A      5.294275  
     362A      5.294380   363A      5.294777   364A      5.358180  
     365A      5.359637   366A      5.360092   367A      5.421927  
     368A      5.422006   369A      5.422264   370A      5.447982  
     371A      5.448344   372A      5.605101   373A      5.605555  
     374A      5.606886   375A      5.799284   376A      6.595406  
     377A      6.649719   378A      6.649881   379A      6.650494  
     380A      6.687615   381A      6.688287   382A      6.688621  
     383A      6.764205   384A      6.764373   385A      6.823696  
     386A      6.824531   387A      6.824773   388A      6.870873  
     389A      6.871321   390A      6.871529   391A      7.114575  
     392A      7.114613   393A      7.204961   394A      7.205259  
     395A      7.206308   396A      7.282828   397A      7.283159  
     398A      7.283347   399A      7.336953   400A      7.337031  
     401A      7.548191   402A      7.741911   403A      7.742049  
     404A      7.742756   405A      7.827302   406A      7.827539  
     407A      7.827724   408A      8.522598   409A      8.523310  
     410A      8.527128   411A      8.660473   412A     24.679332  
     413A     26.678448   414A     26.679128   415A     26.685322  
     416A     26.805527  

    Final Occupation by Irrep:
              A 
    DOCC [    37 ]

  @DF-RHF Final Energy: -1875.93369578871898

   => Energetics <=

    Nuclear Repulsion Energy =            439.5781754765312144
    One-Electron Energy =               -3467.8176780820058411
    Two-Electron Energy =                1152.3058068167556485
    Total Energy =                      -1875.9336957887189783

Computation Completed


Properties will be evaluated at   2.849982,   1.923069,  -4.716273 [a0]

Properties computed using the SCF density matrix

  Nuclear Dipole Moment: [e a0]
     X:     0.0001      Y:     0.0000      Z:    -0.0001

  Electronic Dipole Moment: [e a0]
     X:    -0.0008      Y:    -0.0004      Z:     0.0007

  Dipole Moment: [e a0]
     X:    -0.0007      Y:    -0.0004      Z:     0.0006     Total:     0.0010

  Dipole Moment: [D]
     X:    -0.0018      Y:    -0.0009      Z:     0.0015     Total:     0.0025


*** tstop() called on node37.bme.utexas.edu at Tue Feb 22 22:19:16 2022
Module time:
	user time   =      43.01 seconds =       0.72 minutes
	system time =       2.71 seconds =       0.05 minutes
	total time  =         17 seconds =       0.28 minutes
Total time:
	user time   =      67.49 seconds =       1.12 minutes
	system time =       4.47 seconds =       0.07 minutes
	total time  =         34 seconds =       0.57 minutes

*** tstart() called on node37.bme.utexas.edu
*** at Tue Feb 22 22:19:16 2022


  //>>>>>>>>>>>>>>>>>>>>>>>>>>>>>>>>>>>//
  //               DFMP2               //
  //<<<<<<<<<<<<<<<<<<<<<<<<<<<<<<<<<<<//

   => Loading Basis Set <=

    Name: (AUG-CC-PVQZ AUX)
    Role: RIFIT
    Keyword: DF_BASIS_MP2
    atoms 1-4 entry CL         line   914 file /home/bdw2292/miniconda3/envs/amoebamdpoltype/share/psi4/basis/aug-cc-pvqz-ri.gbs 
    atoms 5   entry C          line   184 file /home/bdw2292/miniconda3/envs/amoebamdpoltype/share/psi4/basis/aug-cc-pvqz-ri.gbs 

	 --------------------------------------------------------
	                          DF-MP2                         
	      2nd-Order Density-Fitted Moller-Plesset Theory     
	              RMP2 Wavefunction,   4 Threads             
	                                                         
	        Rob Parrish, Justin Turney, Andy Simmonett,      
	           Ed Hohenstein, and C. David Sherrill          
	 --------------------------------------------------------

   => Auxiliary Basis Set <=

  Basis Set: (AUG-CC-PVQZ AUX)
    Blend: AUG-CC-PVQZ-RI
    Number of shells: 212
    Number of basis function: 944
    Number of Cartesian functions: 1309
    Spherical Harmonics?: true
    Max angular momentum: 5

	 --------------------------------------------------------
	                 NBF =   416, NAUX =   944
	 --------------------------------------------------------
	   CLASS    FOCC     OCC    AOCC    AVIR     VIR    FVIR
	   PAIRS      21      37      16     379     379       0
	 --------------------------------------------------------

	-----------------------------------------------------------
	 ==================> DF-MP2 Energies <==================== 
	-----------------------------------------------------------
	 Reference Energy          =   -1875.9336957887189783 [Eh]
	 Singles Energy            =      -0.0000000000000000 [Eh]
	 Same-Spin Energy          =      -0.2544315823343301 [Eh]
	 Opposite-Spin Energy      =      -0.7716509907486697 [Eh]
	 Correlation Energy        =      -1.0260825730829999 [Eh]
	 Total Energy              =   -1876.9597783618019093 [Eh]
	-----------------------------------------------------------
	 ================> DF-SCS-MP2 Energies <================== 
	-----------------------------------------------------------
	 SCS Same-Spin Scale       =       0.3333333333333333 [-]
	 SCS Opposite-Spin Scale   =       1.2000000000000000 [-]
	 SCS Same-Spin Energy      =      -0.0848105274447767 [Eh]
	 SCS Opposite-Spin Energy  =      -0.9259811888984036 [Eh]
	 SCS Correlation Energy    =      -1.0107917163431803 [Eh]
	 SCS Total Energy          =   -1876.9444875050621704 [Eh]
	-----------------------------------------------------------


*** tstop() called on node37.bme.utexas.edu at Tue Feb 22 22:19:27 2022
Module time:
	user time   =      20.57 seconds =       0.34 minutes
	system time =       1.49 seconds =       0.02 minutes
	total time  =         11 seconds =       0.18 minutes
Total time:
	user time   =      88.06 seconds =       1.47 minutes
	system time =       5.96 seconds =       0.10 minutes
	total time  =         45 seconds =       0.75 minutes

  //>>>>>>>>>>>>>>>>>>>>>>>>>>>>>>>>>>>//
  //  CBS Results: mp2/aug-cc-pV[TQ]Z  //
  //<<<<<<<<<<<<<<<<<<<<<<<<<<<<<<<<<<<//


   ==> HF <==

   HI-zeta (4) Energy:               -1875.933695788719


   ==> Helgaker 2-point correlated extrapolation for method: MP2 <==

   LO-zeta (3) Energy:               -1876.866980351174
   HI-zeta (4) Energy:               -1876.959778361802
   Alpha (exponent) Value:             3.000000000000
   Extrapolated Energy:              -1877.027495829017

   @Extrapolated MP2/(T,Q):          -1877.027495829017



   ==> Helgaker 2-point correlated extrapolation for method: HF <==

   LO-zeta (3) Energy:               -1875.916384939070
   HI-zeta (4) Energy:               -1875.933695788719
   Alpha (exponent) Value:             3.000000000000
   Extrapolated Energy:              -1875.946328030355

   @Extrapolated HF/(T,Q):           -1875.946328030355


   ==> Components <==

  ---------------------------------------------------------------------------------------------------------
                          Method / Basis                      Rqd      Energy [Eh]   Variable
  ---------------------------------------------------------------------------------------------------------
                              hf / aug-cc-pvtz                  *   -1875.91638494   HF TOTAL ENERGY
                             mp2 / aug-cc-pvtz                  *   -1876.86698035   MP2 TOTAL ENERGY
                              hf / aug-cc-pvqz                  *   -1875.93369579   HF TOTAL ENERGY
                             mp2 / aug-cc-pvqz                  *   -1876.95977836   MP2 TOTAL ENERGY
  ---------------------------------------------------------------------------------------------------------

   ==> Stages <==

  ---------------------------------------------------------------------------------------------------------
      Stage               Method / Basis                       Wt      Energy [Eh]   Scheme
  ---------------------------------------------------------------------------------------------------------
        scf                   hf / aug-cc-pvqz                  1   -1875.93369579   xtpl_highest_1
       corl                  mp2 / aug-cc-pv[tq]z               1   -1877.02749583   corl_xtpl_helgaker_2
       corl                   hf / aug-cc-pv[tq]z              -1   -1875.94632803   corl_xtpl_helgaker_2
  ---------------------------------------------------------------------------------------------------------

   ==> CBS <==

  ---------------------------------------------------------------------------------------------------------
      Stage               Method / Basis                               Energy [Eh]   Scheme
  ---------------------------------------------------------------------------------------------------------
        scf                   hf / aug-cc-pvqz                      -1875.93369579   xtpl_highest_1
       corl                  mp2 / aug-cc-pv[tq]z                      -1.08116780   corl_xtpl_helgaker_2
      total                  CBS                                    -1877.01486359   
  ---------------------------------------------------------------------------------------------------------
   => Loading Basis Set <=

    Name: DEF2-SVP
    Role: ORBITAL
    Keyword: BASIS
    atoms 1-4 entry CL         line   356 file /home/bdw2292/miniconda3/envs/amoebamdpoltype/share/psi4/basis/def2-svp.gbs 
    atoms 5   entry C          line    90 file /home/bdw2292/miniconda3/envs/amoebamdpoltype/share/psi4/basis/def2-svp.gbs 


       N-Body: Complex Energy (fragments = (2,), basis = (2,): -1877.01486358738066)

       N-Body: Computing complex (2/4) with fragments (2,) in the basis of fragments (1, 2).


  //>>>>>>>>>>>>>>>>>>>>>>>>>>>>>>>>>>>//
  //   CBS Setup: mp2/aug-cc-pV[TQ]Z   //
  //<<<<<<<<<<<<<<<<<<<<<<<<<<<<<<<<<<<//

    Naive listing of computations required.
             hf / aug-cc-pvqz              for  HF TOTAL ENERGY
            mp2 / aug-cc-pvtz              for  MP2 TOTAL ENERGY
            mp2 / aug-cc-pvqz              for  MP2 TOTAL ENERGY
             hf / aug-cc-pvtz              for  HF TOTAL ENERGY
             hf / aug-cc-pvqz              for  HF TOTAL ENERGY

    Enlightened listing of computations required.
            mp2 / aug-cc-pvtz              for  MP2 TOTAL ENERGY
            mp2 / aug-cc-pvqz              for  MP2 TOTAL ENERGY

    Full listing of computations to be obtained (required and bonus).
             hf / aug-cc-pvtz              for  HF TOTAL ENERGY
            mp2 / aug-cc-pvtz              for  MP2 TOTAL ENERGY
             hf / aug-cc-pvqz              for  HF TOTAL ENERGY
            mp2 / aug-cc-pvqz              for  MP2 TOTAL ENERGY

  //>>>>>>>>>>>>>>>>>>>>>>>>>>>>>>>>>>>>//
  // CBS Computation: MP2 / AUG-CC-PVTZ //
  //<<<<<<<<<<<<<<<<<<<<<<<<<<<<<<<<<<<<//

    SCF Algorithm Type (re)set to DF.

*** tstart() called on node37.bme.utexas.edu
*** at Tue Feb 22 22:19:28 2022

   => Loading Basis Set <=

    Name: AUG-CC-PVTZ
    Role: ORBITAL
    Keyword: BASIS
    atoms 1-4, 6-9 entry CL         line   984 file /home/bdw2292/miniconda3/envs/amoebamdpoltype/share/psi4/basis/aug-cc-pvtz.gbs 
    atoms 5, 10    entry C          line   235 file /home/bdw2292/miniconda3/envs/amoebamdpoltype/share/psi4/basis/aug-cc-pvtz.gbs 


         ---------------------------------------------------------
                                   SCF
               by Justin Turney, Rob Parrish, Andy Simmonett
                          and Daniel G. A. Smith
                              RHF Reference
                        4 Threads,  14305 MiB Core
         ---------------------------------------------------------

  ==> Geometry <==

    Molecular point group: c1
    Full point group: C1

    Geometry (in Angstrom), charge = 0, multiplicity = 1:

       Center              X                  Y                   Z               Mass       
    ------------   -----------------  -----------------  -----------------  -----------------
      Gh(CL)         -2.331276936270    -1.675658539104     3.919594966988    34.968852682000
      Gh(CL)         -2.322197836270     0.463754860896     1.973599366988    34.968852682000
      Gh(CL)         -1.552998836270    -2.206479839104     1.186320466988    34.968852682000
      Gh(CL)          0.174163763730    -0.652012539104     2.902993066988    34.968852682000
      Gh(C)          -1.508938336270    -1.018172639104     2.497108366988    12.000000000000
         CL           0.622239363730     0.506005860896    -1.053833533012    34.968852682000
         CL           0.782672963730     2.498853360896    -3.137396933012    34.968852682000
         CL           1.428524863730    -0.257850739104    -3.720426633012    34.968852682000
         CL           3.199067663730     1.323567760896    -2.071163333012    34.968852682000
         C            1.508370063730     1.017647560896    -2.496197533012    12.000000000000

  Running in c1 symmetry.

  Rotational constants: A =      0.02887  B =      0.00484  C =      0.00484 [cm^-1]
  Rotational constants: A =    865.41810  B =    145.16485  C =    145.16117 [MHz]
  Nuclear repulsion =  439.578175476531214

  Charge       = 0
  Multiplicity = 1
  Electrons    = 74
  Nalpha       = 37
  Nbeta        = 37

  ==> Algorithm <==

  SCF Algorithm Type is DF.
  DIIS enabled.
  MOM disabled.
  Fractional occupation disabled.
  Guess Type is SAD.
  Energy threshold   = 1.00e-08
  Density threshold  = 1.00e-08
  Integral threshold = 0.00e+00

  ==> Primary Basis <==

  Basis Set: AUG-CC-PVTZ
    Blend: AUG-CC-PVTZ
    Number of shells: 156
    Number of basis function: 492
    Number of Cartesian functions: 582
    Spherical Harmonics?: true
    Max angular momentum: 3

   => Loading Basis Set <=

    Name: (AUG-CC-PVTZ AUX)
    Role: JKFIT
    Keyword: DF_BASIS_SCF
    atoms 1-4, 6-9 entry CL         line   816 file /home/bdw2292/miniconda3/envs/amoebamdpoltype/share/psi4/basis/aug-cc-pvtz-jkfit.gbs 
    atoms 5, 10    entry C          line   162 file /home/bdw2292/miniconda3/envs/amoebamdpoltype/share/psi4/basis/aug-cc-pvtz-jkfit.gbs 

  ==> Pre-Iterations <==

   -------------------------------------------------------
    Irrep   Nso     Nmo     Nalpha   Nbeta   Ndocc  Nsocc
   -------------------------------------------------------
     A        492     492       0       0       0       0
   -------------------------------------------------------
    Total     492     492      37      37      37       0
   -------------------------------------------------------

  ==> Integral Setup <==

  DFHelper Memory: AOs need 2.136 GiB; user supplied 10.477 GiB. Using in-core AOs.

  ==> MemDFJK: Density-Fitted J/K Matrices <==

    J tasked:                   Yes
    K tasked:                   Yes
    wK tasked:                   No
    OpenMP threads:               4
    Memory [MiB]:             10728
    Algorithm:                 Disk
    Schwarz Cutoff:           1E-12
    Mask sparsity (%):      16.7336
    Fitting Condition:        1E-10

   => Auxiliary Basis Set <=

  Basis Set: (AUG-CC-PVTZ AUX)
    Blend: AUG-CC-PVTZ-JKFIT
    Number of shells: 396
    Number of basis function: 1376
    Number of Cartesian functions: 1702
    Spherical Harmonics?: true
    Max angular momentum: 4

  Minimum eigenvalue in the overlap matrix is 6.2944149002E-05.
  Using Symmetric Orthogonalization.

  SCF Guess: Superposition of Atomic Densities via on-the-fly atomic UHF.

  ==> Iterations <==

                           Total Energy        Delta E     RMS |[F,P]|

   @DF-RHF iter SAD: -1875.95040679875865   -1.87595e+03   0.00000e+00 
   @DF-RHF iter   1: -1875.79738098999246    1.53026e-01   9.35323e-04 DIIS
   @DF-RHF iter   2: -1875.83603955922217   -3.86586e-02   8.62169e-04 DIIS
   @DF-RHF iter   3: -1875.91360817213331   -7.75686e-02   9.24999e-05 DIIS
   @DF-RHF iter   4: -1875.91608799164464   -2.47982e-03   3.24034e-05 DIIS
   @DF-RHF iter   5: -1875.91642117250399   -3.33181e-04   6.57870e-06 DIIS
   @DF-RHF iter   6: -1875.91643736340302   -1.61909e-05   1.09056e-06 DIIS
   @DF-RHF iter   7: -1875.91643757259658   -2.09194e-07   1.21004e-07 DIIS
   @DF-RHF iter   8: -1875.91643757694919   -4.35261e-09   2.39852e-08 DIIS
   @DF-RHF iter   9: -1875.91643757713200   -1.82808e-10   6.23653e-09 DIIS
  Energy and wave function converged.


  ==> Post-Iterations <==

    Orbital Energies [Eh]
    ---------------------

    Doubly Occupied:                                                      

       1A   -104.878701     2A   -104.878675     3A   -104.878673  
       4A   -104.878659     5A    -11.499568     6A    -10.603125  
       7A    -10.603104     8A    -10.603095     9A    -10.603079  
      10A     -8.069891    11A     -8.069869    12A     -8.069860  
      13A     -8.069852    14A     -8.067603    15A     -8.067603  
      16A     -8.067581    17A     -8.067581    18A     -8.067573  
      19A     -8.067572    20A     -8.067568    21A     -8.067568  
      22A     -1.282690    23A     -1.128383    24A     -1.128316  
      25A     -1.128285    26A     -0.834194    27A     -0.658331  
      28A     -0.658296    29A     -0.658276    30A     -0.532372  
      31A     -0.532307    32A     -0.489182    33A     -0.489150  
      34A     -0.489111    35A     -0.460835    36A     -0.460749  
      37A     -0.460721  

    Virtual:                                                              

      38A      0.027498    39A      0.048912    40A      0.054108  
      41A      0.054192    42A      0.063587    43A      0.072513  
      44A      0.072715    45A      0.083126    46A      0.098564  
      47A      0.101527    48A      0.101910    49A      0.106325  
      50A      0.106814    51A      0.109032    52A      0.118465  
      53A      0.119255    54A      0.122834    55A      0.136666  
      56A      0.138028    57A      0.151212    58A      0.164999  
      59A      0.165555    60A      0.167427    61A      0.170321  
      62A      0.176483    63A      0.177068    64A      0.179011  
      65A      0.180647    66A      0.182938    67A      0.186539  
      68A      0.188878    69A      0.189920    70A      0.192312  
      71A      0.195711    72A      0.196283    73A      0.206456  
      74A      0.224545    75A      0.231498    76A      0.232924  
      77A      0.253054    78A      0.265268    79A      0.265967  
      80A      0.275128    81A      0.300213    82A      0.320696  
      83A      0.325902    84A      0.326922    85A      0.328526  
      86A      0.328974    87A      0.332695    88A      0.334576  
      89A      0.335228    90A      0.357340    91A      0.358005  
      92A      0.379135    93A      0.391839    94A      0.392413  
      95A      0.395152    96A      0.395243    97A      0.399301  
      98A      0.412709    99A      0.414559   100A      0.425196  
     101A      0.426674   102A      0.429447   103A      0.431863  
     104A      0.443605   105A      0.447406   106A      0.453335  
     107A      0.465970   108A      0.470674   109A      0.478162  
     110A      0.499034   111A      0.499361   112A      0.500131  
     113A      0.502488   114A      0.503730   115A      0.518896  
     116A      0.529201   117A      0.530685   118A      0.531176  
     119A      0.539464   120A      0.541085   121A      0.542948  
     122A      0.546179   123A      0.551900   124A      0.553144  
     125A      0.559821   126A      0.569042   127A      0.571071  
     128A      0.595695   129A      0.600414   130A      0.603470  
     131A      0.615445   132A      0.624424   133A      0.626067  
     134A      0.658226   135A      0.661583   136A      0.677582  
     137A      0.720784   138A      0.720891   139A      0.723948  
     140A      0.745152   141A      0.746931   142A      0.749952  
     143A      0.753674   144A      0.754310   145A      0.758860  
     146A      0.766560   147A      0.767490   148A      0.769812  
     149A      0.779478   150A      0.780855   151A      0.788420  
     152A      0.801009   153A      0.803476   154A      0.821155  
     155A      0.825034   156A      0.826123   157A      0.831205  
     158A      0.834956   159A      0.835380   160A      0.843999  
     161A      0.847149   162A      0.848786   163A      0.853869  
     164A      0.872186   165A      0.873732   166A      0.888603  
     167A      0.889383   168A      0.896469   169A      0.902598  
     170A      0.906226   171A      0.926943   172A      0.935946  
     173A      0.939719   174A      0.957553   175A      0.967820  
     176A      0.971968   177A      0.974496   178A      0.980528  
     179A      1.050669   180A      1.069188   181A      1.070288  
     182A      1.077170   183A      1.092778   184A      1.094487  
     185A      1.121703   186A      1.129274   187A      1.130997  
     188A      1.131169   189A      1.161744   190A      1.164245  
     191A      1.165118   192A      1.194606   193A      1.211718  
     194A      1.212142   195A      1.224236   196A      1.230367  
     197A      1.236927   198A      1.240014   199A      1.251492  
     200A      1.257526   201A      1.263383   202A      1.282468  
     203A      1.283862   204A      1.314844   205A      1.315030  
     206A      1.316655   207A      1.323619   208A      1.323836  
     209A      1.342436   210A      1.345644   211A      1.346539  
     212A      1.358171   213A      1.363051   214A      1.363248  
     215A      1.365994   216A      1.375423   217A      1.391673  
     218A      1.395541   219A      1.407456   220A      1.435291  
     221A      1.438462   222A      1.449805   223A      1.468352  
     224A      1.475072   225A      1.480905   226A      1.483187  
     227A      1.485207   228A      1.494034   229A      1.496928  
     230A      1.507777   231A      1.511046   232A      1.513346  
     233A      1.518515   234A      1.518589   235A      1.519197  
     236A      1.542761   237A      1.546167   238A      1.555342  
     239A      1.559423   240A      1.562462   241A      1.563798  
     242A      1.567574   243A      1.568014   244A      1.598673  
     245A      1.601767   246A      1.602109   247A      1.603878  
     248A      1.638297   249A      1.653262   250A      1.654985  
     251A      1.667489   252A      1.668038   253A      1.676658  
     254A      1.677322   255A      1.678415   256A      1.678565  
     257A      1.693225   258A      1.706020   259A      1.713696  
     260A      1.714129   261A      1.741206   262A      1.747891  
     263A      1.757591   264A      1.758655   265A      1.767039  
     266A      1.770612   267A      1.771769   268A      1.798116  
     269A      1.798314   270A      1.839140   271A      1.849419  
     272A      1.849849   273A      1.875271   274A      1.883088  
     275A      1.883508   276A      1.887386   277A      1.891844  
     278A      1.893706   279A      1.898124   280A      1.899499  
     281A      1.899574   282A      1.926391   283A      1.928174  
     284A      1.934471   285A      1.956569   286A      2.002273  
     287A      2.002593   288A      2.053301   289A      2.136846  
     290A      2.137889   291A      2.138093   292A      2.140295  
     293A      2.153104   294A      2.154168   295A      2.224770  
     296A      2.225195   297A      2.270646   298A      2.303901  
     299A      2.311562   300A      2.326144   301A      2.327380  
     302A      2.459605   303A      2.461142   304A      2.461347  
     305A      2.516177   306A      2.521201   307A      2.559869  
     308A      2.560570   309A      2.574263   310A      2.579916  
     311A      2.585953   312A      2.587251   313A      2.602141  
     314A      2.604956   315A      2.607999   316A      2.627588  
     317A      2.628368   318A      2.642888   319A      2.653025  
     320A      2.660877   321A      2.690771   322A      2.704289  
     323A      2.704960   324A      2.718835   325A      2.734807  
     326A      2.735125   327A      2.753199   328A      2.754768  
     329A      2.755586   330A      2.781611   331A      2.911961  
     332A      2.912445   333A      2.937570   334A      2.985367  
     335A      2.990412   336A      2.999115   337A      3.000492  
     338A      3.039330   339A      3.042833   340A      3.043682  
     341A      3.075276   342A      3.075319   343A      3.081772  
     344A      3.087493   345A      3.090412   346A      3.090667  
     347A      3.102299   348A      3.103211   349A      3.112670  
     350A      3.140956   351A      3.150232   352A      3.150824  
     353A      3.150876   354A      3.165523   355A      3.209436  
     356A      3.209681   357A      3.214958   358A      3.217518  
     359A      3.218634   360A      3.250658   361A      3.251303  
     362A      3.252009   363A      3.348933   364A      3.358066  
     365A      3.358258   366A      3.431129   367A      3.431272  
     368A      3.431699   369A      3.543278   370A      3.543578  
     371A      3.773414   372A      3.773636   373A      3.775902  
     374A      3.799832   375A      3.805570   376A      3.807642  
     377A      3.876103   378A      3.906398   379A      3.955266  
     380A      3.955461   381A      3.955682   382A      3.980347  
     383A      3.982328   384A      3.982379   385A      4.008114  
     386A      4.012153   387A      4.017106   388A      4.017488  
     389A      4.030458   390A      4.031504   391A      4.033993  
     392A      4.070504   393A      4.082083   394A      4.084131  
     395A      4.104417   396A      4.112300   397A      4.114446  
     398A      4.127775   399A      4.128579   400A      4.133332  
     401A      4.142592   402A      4.143961   403A      4.153282  
     404A      4.154227   405A      4.194232   406A      4.194847  
     407A      4.207548   408A      4.238133   409A      4.239621  
     410A      4.239855   411A      4.270429   412A      4.270835  
     413A      4.280547   414A      4.305887   415A      4.310017  
     416A      4.312216   417A      4.317851   418A      4.462923  
     419A      4.463188   420A      4.473912   421A      4.476802  
     422A      4.477311   423A      4.701909   424A      4.702026  
     425A      4.726080   426A      4.727091   427A      4.728241  
     428A      4.734079   429A      4.735922   430A      4.751668  
     431A      4.765026   432A      4.783485   433A      4.787539  
     434A      4.788466   435A      4.796252   436A      4.798631  
     437A      4.825969   438A      4.828586   439A      4.829218  
     440A      4.830958   441A      4.883797   442A      4.887544  
     443A      4.887870   444A      4.892334   445A      4.892824  
     446A      4.904029   447A      5.091715   448A      5.092235  
     449A      5.111446   450A      5.115286   451A      5.127339  
     452A      5.127598   453A      5.400772   454A      5.401267  
     455A      5.404967   456A      5.405561   457A      5.411192  
     458A      5.604468   459A      5.846389   460A      6.130216  
     461A      6.130917   462A      6.144271   463A      6.680740  
     464A      7.538859   465A      7.662859   466A      7.667322  
     467A      7.845073   468A      7.902704   469A      7.902875  
     470A      7.931462   471A     10.837258   472A     15.363944  
     473A     16.407133   474A     16.416821   475A     16.447584  
     476A     28.054342   477A     28.066488   478A     28.068460  
     479A     28.174386   480A     28.176153   481A     28.213918  
     482A     28.328660   483A     28.329882   484A     28.851815  
     485A     28.851997   486A     28.881183   487A     29.529313  
     488A     40.594234   489A    160.931526   490A    161.046329  
     491A    161.047011   492A    161.047078  

    Final Occupation by Irrep:
              A 
    DOCC [    37 ]

  @DF-RHF Final Energy: -1875.91643757713200

   => Energetics <=

    Nuclear Repulsion Energy =            439.5781754765312144
    One-Electron Energy =               -3467.7132383760299490
    Two-Electron Energy =                1152.2186253223667336
    Total Energy =                      -1875.9164375771320010

Computation Completed


Properties will be evaluated at  -0.000000,  -0.000000,   0.000000 [a0]

Properties computed using the SCF density matrix

  Nuclear Dipole Moment: [e a0]
     X:   210.8987      Y:   142.3071      Z:  -349.0043

  Electronic Dipole Moment: [e a0]
     X:  -210.8992      Y:  -142.3073      Z:   349.0046

  Dipole Moment: [e a0]
     X:    -0.0005      Y:    -0.0002      Z:     0.0002     Total:     0.0006

  Dipole Moment: [D]
     X:    -0.0012      Y:    -0.0005      Z:     0.0006     Total:     0.0015


*** tstop() called on node37.bme.utexas.edu at Tue Feb 22 22:20:20 2022
Module time:
	user time   =     124.92 seconds =       2.08 minutes
	system time =      21.73 seconds =       0.36 minutes
	total time  =         52 seconds =       0.87 minutes
Total time:
	user time   =     214.42 seconds =       3.57 minutes
	system time =      27.73 seconds =       0.46 minutes
	total time  =         98 seconds =       1.63 minutes

*** tstart() called on node37.bme.utexas.edu
*** at Tue Feb 22 22:20:20 2022


  //>>>>>>>>>>>>>>>>>>>>>>>>>>>>>>>>>>>//
  //               DFMP2               //
  //<<<<<<<<<<<<<<<<<<<<<<<<<<<<<<<<<<<//

   => Loading Basis Set <=

    Name: (AUG-CC-PVTZ AUX)
    Role: RIFIT
    Keyword: DF_BASIS_MP2
    atoms 1-4, 6-9 entry CL         line   742 file /home/bdw2292/miniconda3/envs/amoebamdpoltype/share/psi4/basis/aug-cc-pvtz-ri.gbs 
    atoms 5, 10    entry C          line   148 file /home/bdw2292/miniconda3/envs/amoebamdpoltype/share/psi4/basis/aug-cc-pvtz-ri.gbs 

	 --------------------------------------------------------
	                          DF-MP2                         
	      2nd-Order Density-Fitted Moller-Plesset Theory     
	              RMP2 Wavefunction,   4 Threads             
	                                                         
	        Rob Parrish, Justin Turney, Andy Simmonett,      
	           Ed Hohenstein, and C. David Sherrill          
	 --------------------------------------------------------

   => Auxiliary Basis Set <=

  Basis Set: (AUG-CC-PVTZ AUX)
    Blend: AUG-CC-PVTZ-RI
    Number of shells: 352
    Number of basis function: 1388
    Number of Cartesian functions: 1800
    Spherical Harmonics?: true
    Max angular momentum: 4

	 --------------------------------------------------------
	                 NBF =   492, NAUX =  1388
	 --------------------------------------------------------
	   CLASS    FOCC     OCC    AOCC    AVIR     VIR    FVIR
	   PAIRS      21      37      16     455     455       0
	 --------------------------------------------------------

	-----------------------------------------------------------
	 ==================> DF-MP2 Energies <==================== 
	-----------------------------------------------------------
	 Reference Energy          =   -1875.9164375771320010 [Eh]
	 Singles Energy            =      -0.0000000000000000 [Eh]
	 Same-Spin Energy          =      -0.2464077042230165 [Eh]
	 Opposite-Spin Energy      =      -0.7044051302674053 [Eh]
	 Correlation Energy        =      -0.9508128344904218 [Eh]
	 Total Energy              =   -1876.8672504116225355 [Eh]
	-----------------------------------------------------------
	 ================> DF-SCS-MP2 Energies <================== 
	-----------------------------------------------------------
	 SCS Same-Spin Scale       =       0.3333333333333333 [-]
	 SCS Opposite-Spin Scale   =       1.2000000000000000 [-]
	 SCS Same-Spin Energy      =      -0.0821359014076722 [Eh]
	 SCS Opposite-Spin Energy  =      -0.8452861563208863 [Eh]
	 SCS Correlation Energy    =      -0.9274220577285585 [Eh]
	 SCS Total Energy          =   -1876.8438596348605643 [Eh]
	-----------------------------------------------------------


*** tstop() called on node37.bme.utexas.edu at Tue Feb 22 22:20:35 2022
Module time:
	user time   =      42.42 seconds =       0.71 minutes
	system time =       2.21 seconds =       0.04 minutes
	total time  =         15 seconds =       0.25 minutes
Total time:
	user time   =     256.84 seconds =       4.28 minutes
	system time =      29.94 seconds =       0.50 minutes
	total time  =        113 seconds =       1.88 minutes

  //>>>>>>>>>>>>>>>>>>>>>>>>>>>>>>>>>>>>//
  // CBS Computation: MP2 / AUG-CC-PVQZ //
  //<<<<<<<<<<<<<<<<<<<<<<<<<<<<<<<<<<<<//

    SCF Algorithm Type (re)set to DF.

*** tstart() called on node37.bme.utexas.edu
*** at Tue Feb 22 22:20:35 2022

   => Loading Basis Set <=

    Name: AUG-CC-PVQZ
    Role: ORBITAL
    Keyword: BASIS
    atoms 1-4, 6-9 entry CL         line  1218 file /home/bdw2292/miniconda3/envs/amoebamdpoltype/share/psi4/basis/aug-cc-pvqz.gbs 
    atoms 5, 10    entry C          line   299 file /home/bdw2292/miniconda3/envs/amoebamdpoltype/share/psi4/basis/aug-cc-pvqz.gbs 


         ---------------------------------------------------------
                                   SCF
               by Justin Turney, Rob Parrish, Andy Simmonett
                          and Daniel G. A. Smith
                              RHF Reference
                        4 Threads,  14305 MiB Core
         ---------------------------------------------------------

  ==> Geometry <==

    Molecular point group: c1
    Full point group: C1

    Geometry (in Angstrom), charge = 0, multiplicity = 1:

       Center              X                  Y                   Z               Mass       
    ------------   -----------------  -----------------  -----------------  -----------------
      Gh(CL)         -2.331276936270    -1.675658539104     3.919594966988    34.968852682000
      Gh(CL)         -2.322197836270     0.463754860896     1.973599366988    34.968852682000
      Gh(CL)         -1.552998836270    -2.206479839104     1.186320466988    34.968852682000
      Gh(CL)          0.174163763730    -0.652012539104     2.902993066988    34.968852682000
      Gh(C)          -1.508938336270    -1.018172639104     2.497108366988    12.000000000000
         CL           0.622239363730     0.506005860896    -1.053833533012    34.968852682000
         CL           0.782672963730     2.498853360896    -3.137396933012    34.968852682000
         CL           1.428524863730    -0.257850739104    -3.720426633012    34.968852682000
         CL           3.199067663730     1.323567760896    -2.071163333012    34.968852682000
         C            1.508370063730     1.017647560896    -2.496197533012    12.000000000000

  Running in c1 symmetry.

  Rotational constants: A =      0.02887  B =      0.00484  C =      0.00484 [cm^-1]
  Rotational constants: A =    865.41810  B =    145.16485  C =    145.16117 [MHz]
  Nuclear repulsion =  439.578175476531214

  Charge       = 0
  Multiplicity = 1
  Electrons    = 74
  Nalpha       = 37
  Nbeta        = 37

  ==> Algorithm <==

  SCF Algorithm Type is DF.
  DIIS enabled.
  MOM disabled.
  Fractional occupation disabled.
  Guess Type is SAD.
  Energy threshold   = 1.00e-08
  Density threshold  = 1.00e-08
  Integral threshold = 0.00e+00

  ==> Primary Basis <==

  Basis Set: AUG-CC-PVQZ
    Blend: AUG-CC-PVQZ
    Number of shells: 216
    Number of basis function: 832
    Number of Cartesian functions: 1082
    Spherical Harmonics?: true
    Max angular momentum: 4

   => Loading Basis Set <=

    Name: (AUG-CC-PVQZ AUX)
    Role: JKFIT
    Keyword: DF_BASIS_SCF
    atoms 1-4, 6-9 entry CL         line   904 file /home/bdw2292/miniconda3/envs/amoebamdpoltype/share/psi4/basis/aug-cc-pvqz-jkfit.gbs 
    atoms 5, 10    entry C          line   178 file /home/bdw2292/miniconda3/envs/amoebamdpoltype/share/psi4/basis/aug-cc-pvqz-jkfit.gbs 

  ==> Pre-Iterations <==

   -------------------------------------------------------
    Irrep   Nso     Nmo     Nalpha   Nbeta   Ndocc  Nsocc
   -------------------------------------------------------
     A        832     832       0       0       0       0
   -------------------------------------------------------
    Total     832     832      37      37      37       0
   -------------------------------------------------------

  ==> Integral Setup <==

  DFHelper Memory: AOs need 7.382 GiB; user supplied 10.477 GiB. Using in-core AOs.

  ==> MemDFJK: Density-Fitted J/K Matrices <==

    J tasked:                   Yes
    K tasked:                   Yes
    wK tasked:                   No
    OpenMP threads:               4
    Memory [MiB]:             10728
    Algorithm:                 Disk
    Schwarz Cutoff:           1E-12
    Mask sparsity (%):      20.8539
    Fitting Condition:        1E-10

   => Auxiliary Basis Set <=

  Basis Set: (AUG-CC-PVQZ AUX)
    Blend: AUG-CC-PVQZ-JKFIT
    Number of shells: 436
    Number of basis function: 1756
    Number of Cartesian functions: 2372
    Spherical Harmonics?: true
    Max angular momentum: 5

  Minimum eigenvalue in the overlap matrix is 1.0789222816E-05.
  Using Symmetric Orthogonalization.

  SCF Guess: Superposition of Atomic Densities via on-the-fly atomic UHF.

  ==> Iterations <==

                           Total Energy        Delta E     RMS |[F,P]|

   @DF-RHF iter SAD: -1875.96118946023967   -1.87596e+03   0.00000e+00 
   @DF-RHF iter   1: -1875.81452516521199    1.46664e-01   5.65067e-04 DIIS
   @DF-RHF iter   2: -1875.85352283102588   -3.89977e-02   5.17453e-04 DIIS
   @DF-RHF iter   3: -1875.93072018385328   -7.71974e-02   5.81349e-05 DIIS
   @DF-RHF iter   4: -1875.93327067540326   -2.55049e-03   2.11684e-05 DIIS
   @DF-RHF iter   5: -1875.93368693007665   -4.16255e-04   4.24396e-06 DIIS
   @DF-RHF iter   6: -1875.93370539335183   -1.84633e-05   6.97329e-07 DIIS
   @DF-RHF iter   7: -1875.93370562954988   -2.36198e-07   8.60144e-08 DIIS
   @DF-RHF iter   8: -1875.93370563545204   -5.90217e-09   1.84367e-08 DIIS
   @DF-RHF iter   9: -1875.93370563575672   -3.04681e-10   4.54759e-09 DIIS
  Energy and wave function converged.


  ==> Post-Iterations <==

    Orbital Energies [Eh]
    ---------------------

    Doubly Occupied:                                                      

       1A   -104.876213     2A   -104.876187     3A   -104.876185  
       4A   -104.876148     5A    -11.496822     6A    -10.601886  
       7A    -10.601864     8A    -10.601857     9A    -10.601843  
      10A     -8.068856    11A     -8.068834    12A     -8.068826  
      13A     -8.068823    14A     -8.066760    15A     -8.066760  
      16A     -8.066737    17A     -8.066737    18A     -8.066729  
      19A     -8.066729    20A     -8.066726    21A     -8.066725  
      22A     -1.281605    23A     -1.127678    24A     -1.127608  
      25A     -1.127576    26A     -0.833858    27A     -0.658108  
      28A     -0.658075    29A     -0.658051    30A     -0.532086  
      31A     -0.532021    32A     -0.488883    33A     -0.488851  
      34A     -0.488812    35A     -0.460576    36A     -0.460491  
      37A     -0.460462  

    Virtual:                                                              

      38A      0.023969    39A      0.041447    40A      0.045882  
      41A      0.045975    42A      0.055428    43A      0.061192  
      44A      0.061412    45A      0.078601    46A      0.084554  
      47A      0.084928    48A      0.085124    49A      0.089578  
      50A      0.090425    51A      0.096467    52A      0.099738  
      53A      0.100337    54A      0.108607    55A      0.118471  
      56A      0.119547    57A      0.127884    58A      0.140894  
      59A      0.141397    60A      0.143292    61A      0.145143  
      62A      0.149249    63A      0.150249    64A      0.153891  
      65A      0.154079    66A      0.155335    67A      0.164350  
      68A      0.164818    69A      0.165281    70A      0.169768  
      71A      0.170427    72A      0.171260    73A      0.176624  
      74A      0.191753    75A      0.201419    76A      0.202631  
      77A      0.213280    78A      0.220037    79A      0.220312  
      80A      0.234556    81A      0.247089    82A      0.254105  
      83A      0.254610    84A      0.259877    85A      0.261754  
      86A      0.261905    87A      0.269127    88A      0.269656  
      89A      0.281167    90A      0.298395    91A      0.299593  
      92A      0.308250    93A      0.309453    94A      0.317075  
      95A      0.317385    96A      0.319996    97A      0.328237  
      98A      0.328449    99A      0.331792   100A      0.339659  
     101A      0.339833   102A      0.341499   103A      0.343476  
     104A      0.347596   105A      0.352686   106A      0.356328  
     107A      0.363073   108A      0.364157   109A      0.365879  
     110A      0.368749   111A      0.378998   112A      0.382893  
     113A      0.386304   114A      0.393461   115A      0.395815  
     116A      0.398180   117A      0.404584   118A      0.405557  
     119A      0.419773   120A      0.435784   121A      0.436698  
     122A      0.437407   123A      0.441092   124A      0.442897  
     125A      0.445326   126A      0.448003   127A      0.450860  
     128A      0.464488   129A      0.472774   130A      0.473618  
     131A      0.483646   132A      0.484407   133A      0.493745  
     134A      0.514872   135A      0.516020   136A      0.518410  
     137A      0.540470   138A      0.540858   139A      0.546222  
     140A      0.548893   141A      0.549085   142A      0.553779  
     143A      0.570691   144A      0.571261   145A      0.571741  
     146A      0.576121   147A      0.576904   148A      0.577900  
     149A      0.581268   150A      0.581628   151A      0.597550  
     152A      0.598864   153A      0.600920   154A      0.602152  
     155A      0.603287   156A      0.608052   157A      0.625386  
     158A      0.630057   159A      0.631090   160A      0.636489  
     161A      0.651626   162A      0.653280   163A      0.670389  
     164A      0.675007   165A      0.678488   166A      0.681847  
     167A      0.684171   168A      0.687477   169A      0.689535  
     170A      0.700270   171A      0.701766   172A      0.708556  
     173A      0.717781   174A      0.737993   175A      0.739988  
     176A      0.740392   177A      0.776420   178A      0.787344  
     179A      0.800572   180A      0.801956   181A      0.813904  
     182A      0.814628   183A      0.816505   184A      0.844477  
     185A      0.857976   186A      0.863443   187A      0.863976  
     188A      0.873695   189A      0.877682   190A      0.879894  
     191A      0.883267   192A      0.888078   193A      0.895022  
     194A      0.898278   195A      0.903553   196A      0.909142  
     197A      0.916418   198A      0.931149   199A      0.934403  
     200A      0.934655   201A      0.939425   202A      0.940881  
     203A      0.945465   204A      0.945965   205A      0.955922  
     206A      0.956284   207A      0.976340   208A      0.979610  
     209A      0.985709   210A      0.998653   211A      0.999752  
     212A      1.000696   213A      1.016180   214A      1.016709  
     215A      1.019069   216A      1.019227   217A      1.030631  
     218A      1.040307   219A      1.041443   220A      1.049167  
     221A      1.054929   222A      1.063040   223A      1.063803  
     224A      1.071963   225A      1.072360   226A      1.075070  
     227A      1.076098   228A      1.082702   229A      1.085957  
     230A      1.095007   231A      1.098899   232A      1.101914  
     233A      1.104055   234A      1.104693   235A      1.110223  
     236A      1.124176   237A      1.127204   238A      1.128729  
     239A      1.131823   240A      1.134075   241A      1.141619  
     242A      1.143495   243A      1.154229   244A      1.158146  
     245A      1.171385   246A      1.172984   247A      1.178162  
     248A      1.183296   249A      1.183454   250A      1.184886  
     251A      1.197657   252A      1.197959   253A      1.204593  
     254A      1.212579   255A      1.215589   256A      1.219104  
     257A      1.219256   258A      1.226559   259A      1.228495  
     260A      1.234040   261A      1.248494   262A      1.249259  
     263A      1.255139   264A      1.264382   265A      1.269334  
     266A      1.275761   267A      1.284869   268A      1.288750  
     269A      1.292208   270A      1.294698   271A      1.299909  
     272A      1.311011   273A      1.318683   274A      1.320412  
     275A      1.322606   276A      1.331591   277A      1.352356  
     278A      1.367640   279A      1.373487   280A      1.378107  
     281A      1.411367   282A      1.412219   283A      1.438914  
     284A      1.446693   285A      1.449726   286A      1.469626  
     287A      1.497953   288A      1.501532   289A      1.535671  
     290A      1.598855   291A      1.599061   292A      1.620857  
     293A      1.633942   294A      1.650884   295A      1.651843  
     296A      1.662726   297A      1.663464   298A      1.668082  
     299A      1.670451   300A      1.673698   301A      1.675142  
     302A      1.698643   303A      1.700876   304A      1.707326  
     305A      1.727279   306A      1.729901   307A      1.737839  
     308A      1.770047   309A      1.770927   310A      1.775901  
     311A      1.784050   312A      1.785558   313A      1.787687  
     314A      1.794127   315A      1.794689   316A      1.798607  
     317A      1.809681   318A      1.816831   319A      1.834839  
     320A      1.845356   321A      1.845676   322A      1.851120  
     323A      1.861681   324A      1.892563   325A      1.894358  
     326A      1.904232   327A      1.914363   328A      1.915905  
     329A      1.919165   330A      1.926971   331A      1.927604  
     332A      1.942126   333A      1.942652   334A      1.947768  
     335A      1.948534   336A      1.955515   337A      1.960934  
     338A      1.962645   339A      1.977108   340A      1.977755  
     341A      1.996614   342A      1.997183   343A      2.005254  
     344A      2.020408   345A      2.021573   346A      2.025682  
     347A      2.026449   348A      2.030517   349A      2.033754  
     350A      2.034958   351A      2.039006   352A      2.046101  
     353A      2.050780   354A      2.066458   355A      2.081546  
     356A      2.082882   357A      2.102277   358A      2.104250  
     359A      2.104540   360A      2.120724   361A      2.122318  
     362A      2.125376   363A      2.131267   364A      2.132460  
     365A      2.134068   366A      2.190154   367A      2.190529  
     368A      2.194191   369A      2.206513   370A      2.214491  
     371A      2.215103   372A      2.220466   373A      2.226180  
     374A      2.231767   375A      2.233774   376A      2.235716  
     377A      2.240965   378A      2.241542   379A      2.250872  
     380A      2.251293   381A      2.256210   382A      2.257457  
     383A      2.262442   384A      2.277245   385A      2.277400  
     386A      2.277853   387A      2.279465   388A      2.279865  
     389A      2.280555   390A      2.304054   391A      2.304551  
     392A      2.314757   393A      2.321185   394A      2.322243  
     395A      2.339199   396A      2.344487   397A      2.345774  
[...]
     351A      1.780634   352A      1.780710   353A      1.785271  
     354A      1.788841   355A      1.789883   356A      1.795048  
     357A      1.797539   358A      1.798929   359A      1.800396  
     360A      1.807996   361A      1.811588   362A      1.815678  
     363A      1.827506   364A      1.829744   365A      1.848171  
     366A      1.851568   367A      1.856390   368A      1.859659  
     369A      1.861158   370A      1.877749   371A      1.884174  
     372A      1.887846   373A      1.909628   374A      1.910258  
     375A      1.921074   376A      1.925106   377A      1.936725  
     378A      1.937956   379A      1.939743   380A      1.943015  
     381A      1.944271   382A      1.946141   383A      1.954473  
     384A      1.956493   385A      1.959607   386A      1.960073  
     387A      1.974374   388A      1.979620   389A      1.997088  
     390A      1.998324   391A      2.013896   392A      2.016104  
     393A      2.023453   394A      2.023877   395A      2.030351  
     396A      2.033626   397A      2.035097   398A      2.047858  
     399A      2.052703   400A      2.056252   401A      2.061657  
     402A      2.063676   403A      2.065785   404A      2.083647  
     405A      2.088291   406A      2.094031   407A      2.096713  
     408A      2.098335   409A      2.100404   410A      2.104148  
     411A      2.104908   412A      2.107306   413A      2.113097  
     414A      2.116054   415A      2.119089   416A      2.124418  
     417A      2.125107   418A      2.129267   419A      2.129516  
     420A      2.134448   421A      2.152188   422A      2.158170  
     423A      2.162421   424A      2.170399   425A      2.188105  
     426A      2.191168   427A      2.192143   428A      2.201693  
     429A      2.215191   430A      2.222837   431A      2.224163  
     432A      2.225727   433A      2.228391   434A      2.231830  
     435A      2.233209   436A      2.233873   437A      2.235926  
     438A      2.236821   439A      2.245073   440A      2.246464  
     441A      2.260215   442A      2.263587   443A      2.264290  
     444A      2.273199   445A      2.273711   446A      2.273845  
     447A      2.275958   448A      2.276700   449A      2.277119  
     450A      2.278893   451A      2.295920   452A      2.298525  
     453A      2.314249   454A      2.315093   455A      2.315472  
     456A      2.323954   457A      2.330122   458A      2.330279  
     459A      2.342561   460A      2.346751   461A      2.349186  
     462A      2.351692   463A      2.388945   464A      2.391192  
     465A      2.404613   466A      2.412956   467A      2.417054  
     468A      2.459651   469A      2.463436   470A      2.468344  
     471A      2.472065   472A      2.473680   473A      2.474062  
     474A      2.480918   475A      2.482527   476A      2.484933  
     477A      2.498841   478A      2.498993   479A      2.503544  
     480A      2.520380   481A      2.526285   482A      2.527005  
     483A      2.531545   484A      2.531706   485A      2.532855  
     486A      2.533665   487A      2.534242   488A      2.539316  
     489A      2.552836   490A      2.554827   491A      2.577870  
     492A      2.586214   493A      2.594215   494A      2.598691  
     495A      2.600005   496A      2.645792   497A      2.648401  
     498A      2.648688   499A      2.650219   500A      2.653971  
     501A      2.656581   502A      2.657639   503A      2.658504  
     504A      2.658941   505A      2.672448   506A      2.678081  
     507A      2.679186   508A      2.681803   509A      2.801533  
     510A      2.802178   511A      2.828062   512A      2.828983  
     513A      2.853551   514A      2.857095   515A      2.873991  
     516A      2.889009   517A      2.891089   518A      2.899367  
     519A      2.902449   520A      2.903169   521A      2.914842  
     522A      2.915722   523A      2.969947   524A      2.970305  
     525A      2.978118   526A      2.978401   527A      2.979775  
     528A      2.980210   529A      2.982607   530A      2.990028  
     531A      3.001609   532A      3.006208   533A      3.235928  
     534A      3.238394   535A      3.239033   536A      3.240396  
     537A      3.240986   538A      3.242334   539A      3.242510  
     540A      3.243261   541A      3.246692   542A      3.252469  
     543A      3.252746   544A      3.290551   545A      3.408006  
     546A      3.408411   547A      3.426301   548A      3.427987  
     549A      3.435448   550A      3.436209   551A      3.440691  
     552A      3.441468   553A      3.441835   554A      3.458808  
     555A      3.459811   556A      3.462686   557A      3.463634  
     558A      3.480730   559A      3.523084   560A      3.523295  
     561A      3.534588   562A      3.535960   563A      3.549328  
     564A      3.555812   565A      3.579709   566A      3.586165  
     567A      3.589962   568A      3.594438   569A      3.602189  
     570A      3.604340   571A      3.613258   572A      3.615670  
     573A      3.729041   574A      3.757724   575A      3.972335  
     576A      3.972477   577A      3.978171   578A      3.982453  
     579A      3.982608   580A      4.030538   581A      4.224817  
     582A      4.254518   583A      4.358638   584A      4.359545  
     585A      4.379279   586A      4.381731   587A      4.456342  
     588A      4.457292   589A      4.458799   590A      4.459691  
     591A      4.469603   592A      4.470509   593A      4.480672  
     594A      4.480916   595A      4.496184   596A      4.497430  
     597A      4.502782   598A      4.505899   599A      4.508903  
     600A      4.537585   601A      4.553626   602A      4.568815  
     603A      4.616819   604A      4.618072   605A      4.619691  
     606A      4.622629   607A      4.624069   608A      4.640959  
     609A      4.680307   610A      4.680365   611A      4.687557  
     612A      4.690961   613A      4.693885   614A      4.695451  
     615A      4.703871   616A      4.705581   617A      4.706421  
     618A      4.707630   619A      4.709323   620A      4.710566  
     621A      4.714458   622A      4.714936   623A      4.724011  
     624A      4.735347   625A      4.737130   626A      4.739503  
     627A      4.740997   628A      4.749699   629A      4.749809  
     630A      4.749989   631A      4.750075   632A      4.752157  
     633A      4.754795   634A      4.764020   635A      4.768687  
     636A      4.769795   637A      4.772109   638A      4.772573  
     639A      4.773863   640A      4.779095   641A      4.779489  
     642A      4.781350   643A      4.782183   644A      4.782706  
     645A      4.785944   646A      4.791251   647A      4.792183  
     648A      4.792827   649A      4.793854   650A      4.795732  
     651A      4.801593   652A      4.808972   653A      4.814612  
     654A      4.822760   655A      4.823376   656A      4.829521  
     657A      4.851208   658A      4.853497   659A      4.853942  
     660A      4.858104   661A      4.859697   662A      4.860916  
     663A      4.862203   664A      4.862586   665A      4.866410  
     666A      4.869476   667A      4.872553   668A      4.877184  
     669A      4.877588   670A      4.883381   671A      4.886584  
     672A      4.886772   673A      4.900324   674A      4.901494  
     675A      4.909165   676A      4.917076   677A      4.917139  
     678A      4.931809   679A      4.931837   680A      4.938861  
     681A      4.945516   682A      4.948229   683A      4.948851  
     684A      4.952070   685A      4.952620   686A      4.953314  
     687A      4.957699   688A      4.958414   689A      4.959763  
     690A      4.970700   691A      4.974844   692A      4.975761  
     693A      4.976729   694A      4.977773   695A      4.994942  
     696A      4.995795   697A      4.996922   698A      5.006701  
     699A      5.008987   700A      5.019054   701A      5.051005  
     702A      5.051870   703A      5.054025   704A      5.059281  
     705A      5.066407   706A      5.068363   707A      5.072829  
     708A      5.081766   709A      5.096307   710A      5.097318  
     711A      5.098675   712A      5.100690   713A      5.102648  
     714A      5.132016   715A      5.172028   716A      5.172331  
     717A      5.190433   718A      5.192029   719A      5.289866  
     720A      5.294642   721A      5.295553   722A      5.297120  
     723A      5.307906   724A      5.308456   725A      5.317262  
     726A      5.345608   727A      5.356713   728A      5.366000  
     729A      5.367167   730A      5.368978   731A      5.376088  
     732A      5.377517   733A      5.422598   734A      5.423307  
     735A      5.431125   736A      5.431406   737A      5.445870  
     738A      5.451574   739A      5.453845   740A      5.464440  
     741A      5.466115   742A      5.513575   743A      5.602031  
     744A      5.610706   745A      5.613483   746A      5.614076  
     747A      5.621891   748A      5.624660   749A      5.802950  
     750A      5.836736   751A      6.608671   752A      6.627863  
     753A      6.658952   754A      6.660202   755A      6.664251  
     756A      6.664666   757A      6.667053   758A      6.686601  
     759A      6.686856   760A      6.687674   761A      6.689441  
     762A      6.690210   763A      6.693718   764A      6.694493  
     765A      6.764702   766A      6.765233   767A      6.768129  
     768A      6.768406   769A      6.830483   770A      6.830927  
     771A      6.835641   772A      6.836644   773A      6.846242  
     774A      6.862055   775A      6.869299   776A      6.874241  
     777A      6.878561   778A      6.879668   779A      6.900458  
     780A      6.901212   781A      7.113482   782A      7.113525  
     783A      7.119824   784A      7.120167   785A      7.207569  
     786A      7.207624   787A      7.216072   788A      7.216161  
     789A      7.227801   790A      7.247994   791A      7.286969  
     792A      7.287569   793A      7.293021   794A      7.293156  
     795A      7.305678   796A      7.317939   797A      7.338322  
     798A      7.339372   799A      7.367350   800A      7.372052  
     801A      7.555141   802A      7.555632   803A      7.743928  
     804A      7.744359   805A      7.751923   806A      7.752568  
     807A      7.755079   808A      7.799960   809A      7.824704  
     810A      7.829934   811A      7.835198   812A      7.836251  
     813A      7.837481   814A      7.838225   815A      8.522291  
     816A      8.522808   817A      8.526332   818A      8.527010  
     819A      8.536478   820A      8.547510   821A      8.744503  
     822A      8.792919   823A     24.755808   824A     24.828262  
     825A     26.681501   826A     26.683920   827A     26.732932  
     828A     26.739234   829A     26.743023   830A     26.839062  
     831A     26.840963   832A     26.978936  

    Final Occupation by Irrep:
              A 
    DOCC [    74 ]

  @DF-RHF Final Energy: -3751.86693549469510

   => Energetics <=

    Nuclear Repulsion Energy =           1348.6676364542304327
    One-Electron Energy =               -7874.6527773940306361
    Two-Electron Energy =                2774.1182054451046497
    Total Energy =                      -3751.8669354946950989

Computation Completed


Properties will be evaluated at  -0.000000,  -0.000000,   0.000000 [a0]

Properties computed using the SCF density matrix

  Nuclear Dipole Moment: [e a0]
     X:    -0.0002      Y:    -0.0002      Z:     0.0003

  Electronic Dipole Moment: [e a0]
     X:    -0.0211      Y:    -0.0167      Z:     0.0356

  Dipole Moment: [e a0]
     X:    -0.0213      Y:    -0.0169      Z:     0.0359     Total:     0.0450

  Dipole Moment: [D]
     X:    -0.0542      Y:    -0.0429      Z:     0.0911     Total:     0.1144


*** tstop() called on node37.bme.utexas.edu at Tue Feb 22 22:34:02 2022
Module time:
	user time   =     500.50 seconds =       8.34 minutes
	system time =      74.25 seconds =       1.24 minutes
	total time  =        195 seconds =       3.25 minutes
Total time:
	user time   =    2303.47 seconds =      38.39 minutes
	system time =     327.32 seconds =       5.46 minutes
	total time  =        920 seconds =      15.33 minutes

*** tstart() called on node37.bme.utexas.edu
*** at Tue Feb 22 22:34:02 2022


  //>>>>>>>>>>>>>>>>>>>>>>>>>>>>>>>>>>>//
  //               DFMP2               //
  //<<<<<<<<<<<<<<<<<<<<<<<<<<<<<<<<<<<//

   => Loading Basis Set <=

    Name: (AUG-CC-PVQZ AUX)
    Role: RIFIT
    Keyword: DF_BASIS_MP2
    atoms 1-4, 6-9 entry CL         line   914 file /home/bdw2292/miniconda3/envs/amoebamdpoltype/share/psi4/basis/aug-cc-pvqz-ri.gbs 
    atoms 5, 10    entry C          line   184 file /home/bdw2292/miniconda3/envs/amoebamdpoltype/share/psi4/basis/aug-cc-pvqz-ri.gbs 

	 --------------------------------------------------------
	                          DF-MP2                         
	      2nd-Order Density-Fitted Moller-Plesset Theory     
	              RMP2 Wavefunction,   4 Threads             
	                                                         
	        Rob Parrish, Justin Turney, Andy Simmonett,      
	           Ed Hohenstein, and C. David Sherrill          
	 --------------------------------------------------------

   => Auxiliary Basis Set <=

  Basis Set: (AUG-CC-PVQZ AUX)
    Blend: AUG-CC-PVQZ-RI
    Number of shells: 424
    Number of basis function: 1888
    Number of Cartesian functions: 2618
    Spherical Harmonics?: true
    Max angular momentum: 5

	 --------------------------------------------------------
	                 NBF =   832, NAUX =  1888
	 --------------------------------------------------------
	   CLASS    FOCC     OCC    AOCC    AVIR     VIR    FVIR
	   PAIRS      42      74      32     758     758       0
	 --------------------------------------------------------

	-----------------------------------------------------------
	 ==================> DF-MP2 Energies <==================== 
	-----------------------------------------------------------
	 Reference Energy          =   -3751.8669354946950989 [Eh]
	 Singles Energy            =      -0.0000000000000000 [Eh]
	 Same-Spin Energy          =      -0.5103685148971090 [Eh]
	 Opposite-Spin Energy      =      -1.5450495088581020 [Eh]
	 Correlation Energy        =      -2.0554180237552111 [Eh]
	 Total Energy              =   -3753.9223535184501088 [Eh]
	-----------------------------------------------------------
	 ================> DF-SCS-MP2 Energies <================== 
	-----------------------------------------------------------
	 SCS Same-Spin Scale       =       0.3333333333333333 [-]
	 SCS Opposite-Spin Scale   =       1.2000000000000000 [-]
	 SCS Same-Spin Energy      =      -0.1701228382990363 [Eh]
	 SCS Opposite-Spin Energy  =      -1.8540594106297223 [Eh]
	 SCS Correlation Energy    =      -2.0241822489287586 [Eh]
	 SCS Total Energy          =   -3753.8911177436239086 [Eh]
	-----------------------------------------------------------


*** tstop() called on node37.bme.utexas.edu at Tue Feb 22 22:35:02 2022
Module time:
	user time   =     183.69 seconds =       3.06 minutes
	system time =       8.88 seconds =       0.15 minutes
	total time  =         60 seconds =       1.00 minutes
Total time:
	user time   =    2487.16 seconds =      41.45 minutes
	system time =     336.20 seconds =       5.60 minutes
	total time  =        980 seconds =      16.33 minutes

  //>>>>>>>>>>>>>>>>>>>>>>>>>>>>>>>>>>>//
  //  CBS Results: mp2/aug-cc-pV[TQ]Z  //
  //<<<<<<<<<<<<<<<<<<<<<<<<<<<<<<<<<<<//


   ==> HF <==

   HI-zeta (4) Energy:               -3751.866935494695


   ==> Helgaker 2-point correlated extrapolation for method: MP2 <==

   LO-zeta (3) Energy:               -3753.736978500002
   HI-zeta (4) Energy:               -3753.922353518450
   Alpha (exponent) Value:             3.000000000000
   Extrapolated Energy:              -3754.057627180561

   @Extrapolated MP2/(T,Q):          -3754.057627180561



   ==> Helgaker 2-point correlated extrapolation for method: HF <==

   LO-zeta (3) Energy:               -3751.832401046953
   HI-zeta (4) Energy:               -3751.866935494695
   Alpha (exponent) Value:             3.000000000000
   Extrapolated Energy:              -3751.892136307912

   @Extrapolated HF/(T,Q):           -3751.892136307912


   ==> Components <==

  ---------------------------------------------------------------------------------------------------------
                          Method / Basis                      Rqd      Energy [Eh]   Variable
  ---------------------------------------------------------------------------------------------------------
                              hf / aug-cc-pvtz                  *   -3751.83240105   HF TOTAL ENERGY
                             mp2 / aug-cc-pvtz                  *   -3753.73697850   MP2 TOTAL ENERGY
                              hf / aug-cc-pvqz                  *   -3751.86693549   HF TOTAL ENERGY
                             mp2 / aug-cc-pvqz                  *   -3753.92235352   MP2 TOTAL ENERGY
  ---------------------------------------------------------------------------------------------------------

   ==> Stages <==

  ---------------------------------------------------------------------------------------------------------
      Stage               Method / Basis                       Wt      Energy [Eh]   Scheme
  ---------------------------------------------------------------------------------------------------------
        scf                   hf / aug-cc-pvqz                  1   -3751.86693549   xtpl_highest_1
       corl                  mp2 / aug-cc-pv[tq]z               1   -3754.05762718   corl_xtpl_helgaker_2
       corl                   hf / aug-cc-pv[tq]z              -1   -3751.89213631   corl_xtpl_helgaker_2
  ---------------------------------------------------------------------------------------------------------

   ==> CBS <==

  ---------------------------------------------------------------------------------------------------------
      Stage               Method / Basis                               Energy [Eh]   Scheme
  ---------------------------------------------------------------------------------------------------------
        scf                   hf / aug-cc-pvqz                      -3751.86693549   xtpl_highest_1
       corl                  mp2 / aug-cc-pv[tq]z                      -2.16549087   corl_xtpl_helgaker_2
      total                  CBS                                    -3754.03242637   
  ---------------------------------------------------------------------------------------------------------
   => Loading Basis Set <=

    Name: DEF2-SVP
    Role: ORBITAL
    Keyword: BASIS
    atoms 1-4, 6-9 entry CL         line   356 file /home/bdw2292/miniconda3/envs/amoebamdpoltype/share/psi4/basis/def2-svp.gbs 
    atoms 5, 10    entry C          line    90 file /home/bdw2292/miniconda3/envs/amoebamdpoltype/share/psi4/basis/def2-svp.gbs 


       N-Body: Complex Energy (fragments = (1, 2), basis = (1, 2): -3754.03242636734421)

   ==> N-Body: Counterpoise Corrected (CP) energies <==

   n-Body     Total Energy [Eh]       I.E. [kcal/mol]      Delta [kcal/mol]
        1    -3754.029715705526        0.000000000000        0.000000000000
        2    -3754.032333945309       -1.642970268331       -1.642970268331

   => Loading Basis Set <=

    Name: DEF2-SVP
    Role: ORBITAL
    Keyword: BASIS
    atoms 1-4, 6-9 entry CL         line   356 file /home/bdw2292/miniconda3/envs/amoebamdpoltype/share/psi4/basis/def2-svp.gbs 
    atoms 5, 10    entry C          line    90 file /home/bdw2292/miniconda3/envs/amoebamdpoltype/share/psi4/basis/def2-svp.gbs 

CP Energy =  -0.002618
    Psi4 stopped on: Tuesday, 22 February 2022 10:35PM
    Psi4 wall time for execution: 0:16:21.44

*** Psi4 exiting successfully. Buy a developer a beer!
