
    -----------------------------------------------------------------------
          Psi4: An Open-Source Ab Initio Electronic Structure Package
                               Psi4 1.3.2 release

                         Git: Rev {HEAD} ecbda83 


    R. M. Parrish, L. A. Burns, D. G. A. Smith, A. C. Simmonett,
    A. E. DePrince III, E. G. Hohenstein, U. Bozkaya, A. Yu. Sokolov,
    R. Di Remigio, R. M. Richard, J. F. Gonthier, A. M. James,
    H. R. McAlexander, A. Kumar, M. Saitow, X. Wang, B. P. Pritchard,
    P. Verma, H. F. Schaefer III, K. Patkowski, R. A. King, E. F. Valeev,
    F. A. Evangelista, J. M. Turney, T. D. Crawford, and C. D. Sherrill,
    J. Chem. Theory Comput. 13(7) pp 3185--3197 (2017).
    (doi: 10.1021/acs.jctc.7b00174)


                         Additional Contributions by
    P. Kraus, H. Kruse, M. H. Lechner, M. C. Schieber, R. A. Shaw,
    A. Alenaizan, R. Galvelis, Z. L. Glick, S. Lehtola, and J. P. Misiewicz

    -----------------------------------------------------------------------


    Psi4 started on: Tuesday, 22 February 2022 07:35PM

    Process ID: 42865
    Host:       node37.bme.utexas.edu
    PSIDATADIR: /home/bdw2292/miniconda3/envs/amoebamdpoltype/share/psi4
    Memory:     500.0 MiB
    Threads:    1
    
  ==> Input File <==

--------------------------------------------------------------------------
molecule { 
0 1
 Cl                 -0.9834540    -0.5863909     1.9222969
 Cl                 -1.0203298     1.3185487    -0.2497215
 Cl                 -0.3649296    -1.4476266    -0.7655753
 Cl                  1.4944115     0.2308771     0.6813521
  C                 -0.2163540    -0.1195090     0.3969557
--
0 1
  O                  1.3305394     0.6994534    -2.6015700
  H                  0.6158717     0.0661994    -2.5304573
  H                  1.2555936     1.1471104    -3.4441620
}
memory 15GB
set_num_threads(4)
psi4_io.set_default_path("/scratch/bdw2292/Psi4-CCl4")
set maxiter 500
set freeze_core True
set PROPERTIES_ORIGIN ["COM"]
e_dim= energy('mp2/aug-cc-pV[TQ]Z',bsse_type='cp')

psi4.print_out('CP Energy = %10.6f' % (e_dim))
clean()
--------------------------------------------------------------------------

  Memory set to  13.970 GiB by Python driver.
  Threads set to 4 by Python driver.


   ===> N-Body Interaction Abacus <===
        BSSE Treatment:                     cp
        Number of 1-body computations:     4
        Number of 2-body computations:     1

   ==> N-Body: Now computing 1-body complexes <==


       N-Body: Computing complex (1/4) with fragments (2,) in the basis of fragments (2,).


  //>>>>>>>>>>>>>>>>>>>>>>>>>>>>>>>>>>>//
  //   CBS Setup: mp2/aug-cc-pV[TQ]Z   //
  //<<<<<<<<<<<<<<<<<<<<<<<<<<<<<<<<<<<//

    Naive listing of computations required.
             hf / aug-cc-pvqz              for  HF TOTAL ENERGY
            mp2 / aug-cc-pvtz              for  MP2 TOTAL ENERGY
            mp2 / aug-cc-pvqz              for  MP2 TOTAL ENERGY
             hf / aug-cc-pvtz              for  HF TOTAL ENERGY
             hf / aug-cc-pvqz              for  HF TOTAL ENERGY

    Enlightened listing of computations required.
            mp2 / aug-cc-pvtz              for  MP2 TOTAL ENERGY
            mp2 / aug-cc-pvqz              for  MP2 TOTAL ENERGY

    Full listing of computations to be obtained (required and bonus).
             hf / aug-cc-pvtz              for  HF TOTAL ENERGY
            mp2 / aug-cc-pvtz              for  MP2 TOTAL ENERGY
             hf / aug-cc-pvqz              for  HF TOTAL ENERGY
            mp2 / aug-cc-pvqz              for  MP2 TOTAL ENERGY

  //>>>>>>>>>>>>>>>>>>>>>>>>>>>>>>>>>>>>//
  // CBS Computation: MP2 / AUG-CC-PVTZ //
  //<<<<<<<<<<<<<<<<<<<<<<<<<<<<<<<<<<<<//

    SCF Algorithm Type (re)set to DF.

*** tstart() called on node37.bme.utexas.edu
*** at Tue Feb 22 19:35:05 2022

   => Loading Basis Set <=

    Name: AUG-CC-PVTZ
    Role: ORBITAL
    Keyword: BASIS
    atoms 1   entry O          line   327 file /home/bdw2292/miniconda3/envs/amoebamdpoltype/share/psi4/basis/aug-cc-pvtz.gbs 
    atoms 2-3 entry H          line    36 file /home/bdw2292/miniconda3/envs/amoebamdpoltype/share/psi4/basis/aug-cc-pvtz.gbs 


         ---------------------------------------------------------
                                   SCF
               by Justin Turney, Rob Parrish, Andy Simmonett
                          and Daniel G. A. Smith
                              RHF Reference
                        4 Threads,  14305 MiB Core
         ---------------------------------------------------------

  ==> Geometry <==

    Molecular point group: c1
    Full point group: C1

    Geometry (in Angstrom), charge = 0, multiplicity = 1:

       Center              X                  Y                   Z               Mass       
    ------------   -----------------  -----------------  -----------------  -----------------
         O            1.389411879845     0.734590040044    -2.676167455986    15.994914619570
         H            0.674744179845     0.101336040044    -2.605054755986     1.007825032230
         H            1.314466079845     1.182247040044    -3.518759455986     1.007825032230

  Running in c1 symmetry.

  Rotational constants: A =     19.71517  B =      0.09558  C =      0.09536 [cm^-1]
  Rotational constants: A = 591045.80562  B =   2865.50830  C =   2858.83874 [MHz]
  Nuclear repulsion =    9.185325024041418

  Charge       = 0
  Multiplicity = 1
  Electrons    = 10
  Nalpha       = 5
  Nbeta        = 5

  ==> Algorithm <==

  SCF Algorithm Type is DF.
  DIIS enabled.
  MOM disabled.
  Fractional occupation disabled.
  Guess Type is SAD.
  Energy threshold   = 1.00e-08
  Density threshold  = 1.00e-08
  Integral threshold = 0.00e+00

  ==> Primary Basis <==

  Basis Set: AUG-CC-PVTZ
    Blend: AUG-CC-PVTZ
    Number of shells: 32
    Number of basis function: 92
    Number of Cartesian functions: 105
    Spherical Harmonics?: true
    Max angular momentum: 3

   => Loading Basis Set <=

    Name: (AUG-CC-PVTZ AUX)
    Role: JKFIT
    Keyword: DF_BASIS_SCF
    atoms 1   entry O          line   286 file /home/bdw2292/miniconda3/envs/amoebamdpoltype/share/psi4/basis/aug-cc-pvtz-jkfit.gbs 
    atoms 2-3 entry H          line    70 file /home/bdw2292/miniconda3/envs/amoebamdpoltype/share/psi4/basis/aug-cc-pvtz-jkfit.gbs 

  ==> Pre-Iterations <==

   -------------------------------------------------------
    Irrep   Nso     Nmo     Nalpha   Nbeta   Ndocc  Nsocc
   -------------------------------------------------------
     A         92      92       0       0       0       0
   -------------------------------------------------------
    Total      92      92       5       5       5       0
   -------------------------------------------------------

  ==> Integral Setup <==

  DFHelper Memory: AOs need 0.015 GiB; user supplied 10.477 GiB. Using in-core AOs.

  ==> MemDFJK: Density-Fitted J/K Matrices <==

    J tasked:                   Yes
    K tasked:                   Yes
    wK tasked:                   No
    OpenMP threads:               4
    Memory [MiB]:             10728
    Algorithm:                 Core
    Schwarz Cutoff:           1E-12
    Mask sparsity (%):       0.0000
    Fitting Condition:        1E-10

   => Auxiliary Basis Set <=

  Basis Set: (AUG-CC-PVTZ AUX)
    Blend: AUG-CC-PVTZ-JKFIT
    Number of shells: 58
    Number of basis function: 196
    Number of Cartesian functions: 241
    Spherical Harmonics?: true
    Max angular momentum: 4

  Minimum eigenvalue in the overlap matrix is 3.7704224696E-04.
  Using Symmetric Orthogonalization.

  SCF Guess: Superposition of Atomic Densities via on-the-fly atomic UHF.

  ==> Iterations <==

                           Total Energy        Delta E     RMS |[F,P]|

   @DF-RHF iter SAD:   -75.47414973303981   -7.54741e+01   0.00000e+00 
   @DF-RHF iter   1:   -75.97660608342935   -5.02456e-01   5.09429e-03 DIIS
   @DF-RHF iter   2:   -76.02902742194415   -5.24213e-02   3.45122e-03 DIIS
   @DF-RHF iter   3:   -76.06003431664104   -3.10069e-02   2.34361e-04 DIIS
   @DF-RHF iter   4:   -76.06042373089882   -3.89414e-04   5.59342e-05 DIIS
   @DF-RHF iter   5:   -76.06044763949400   -2.39086e-05   1.25883e-05 DIIS
   @DF-RHF iter   6:   -76.06044959151959   -1.95203e-06   2.80216e-06 DIIS
   @DF-RHF iter   7:   -76.06044969916616   -1.07647e-07   5.29965e-07 DIIS
   @DF-RHF iter   8:   -76.06044970258313   -3.41697e-09   8.78632e-08 DIIS
   @DF-RHF iter   9:   -76.06044970265749   -7.43654e-11   2.18273e-08 DIIS
   @DF-RHF iter  10:   -76.06044970266139   -3.89377e-12   2.97388e-09 DIIS
  Energy and wave function converged.


  ==> Post-Iterations <==

    Orbital Energies [Eh]
    ---------------------

    Doubly Occupied:                                                      

       1A    -20.565443     2A     -1.350805     3A     -0.725252  
       4A     -0.577292     5A     -0.509189  

    Virtual:                                                              

       6A      0.029676     7A      0.047443     8A      0.136486  
       9A      0.157846    10A      0.174267    11A      0.182027  
      12A      0.228874    13A      0.244462    14A      0.263836  
      15A      0.304771    16A      0.313257    17A      0.365229  
      18A      0.437996    19A      0.466834    20A      0.602274  
      21A      0.654249    22A      0.711167    23A      0.719262  
      24A      0.731233    25A      0.828058    26A      0.843769  
      27A      0.889955    28A      0.912937    29A      0.920649  
      30A      0.923938    31A      0.927928    32A      0.971414  
      33A      1.023092    34A      1.045408    35A      1.085206  
      36A      1.114234    37A      1.172759    38A      1.177401  
      39A      1.259528    40A      1.514582    41A      1.563771  
      42A      1.596170    43A      1.784903    44A      1.797016  
      45A      2.003921    46A      2.116092    47A      2.259652  
      48A      2.318725    49A      2.320894    50A      2.413268  
      51A      2.414498    52A      2.438478    53A      2.471354  
      54A      2.686827    55A      2.703217    56A      2.768302  
      57A      2.857683    58A      2.883951    59A      3.645532  
      60A      3.770323    61A      4.007426    62A      4.090522  
      63A      4.212315    64A      4.231424    65A      4.336462  
      66A      4.382067    67A      4.400894    68A      4.417015  
      69A      4.493231    70A      4.707759    71A      4.812738  
      72A      5.125156    73A      5.173530    74A      5.307253  
      75A      5.331228    76A      5.513982    77A      5.722634  
      78A      6.139746    79A      6.534561    80A      6.713412  
      81A      6.858713    82A      7.146590    83A      7.263122  
      84A      7.298486    85A      7.308246    86A      7.371237  
      87A      7.389583    88A      7.559604    89A      7.897908  
      90A      7.965277    91A      8.790180    92A     15.868582  

    Final Occupation by Irrep:
              A 
    DOCC [     5 ]

  @DF-RHF Final Energy:   -76.06044970266139

   => Energetics <=

    Nuclear Repulsion Energy =              9.1853250240414184
    One-Electron Energy =                -123.0355875985429748
    Two-Electron Energy =                  37.7898128718401622
    Total Energy =                        -76.0604497026614013

Computation Completed


Properties will be evaluated at   2.542111,   1.368548,  -5.138803 [a0]

Properties computed using the SCF density matrix

  Nuclear Dipole Moment: [e a0]
     X:    -0.6572      Y:    -0.1545      Z:    -0.6421

  Electronic Dipole Moment: [e a0]
     X:     0.1253      Y:     0.0295      Z:     0.1224

  Dipole Moment: [e a0]
     X:    -0.5319      Y:    -0.1250      Z:    -0.5197     Total:     0.7541

  Dipole Moment: [D]
     X:    -1.3519      Y:    -0.3177      Z:    -1.3210     Total:     1.9167


*** tstop() called on node37.bme.utexas.edu at Tue Feb 22 19:35:09 2022
Module time:
	user time   =       4.77 seconds =       0.08 minutes
	system time =       0.39 seconds =       0.01 minutes
	total time  =          4 seconds =       0.07 minutes
Total time:
	user time   =       4.77 seconds =       0.08 minutes
	system time =       0.39 seconds =       0.01 minutes
	total time  =          4 seconds =       0.07 minutes

*** tstart() called on node37.bme.utexas.edu
*** at Tue Feb 22 19:35:09 2022


  //>>>>>>>>>>>>>>>>>>>>>>>>>>>>>>>>>>>//
  //               DFMP2               //
  //<<<<<<<<<<<<<<<<<<<<<<<<<<<<<<<<<<<//

   => Loading Basis Set <=

    Name: (AUG-CC-PVTZ AUX)
    Role: RIFIT
    Keyword: DF_BASIS_MP2
    atoms 1   entry O          line   264 file /home/bdw2292/miniconda3/envs/amoebamdpoltype/share/psi4/basis/aug-cc-pvtz-ri.gbs 
    atoms 2-3 entry H          line    30 file /home/bdw2292/miniconda3/envs/amoebamdpoltype/share/psi4/basis/aug-cc-pvtz-ri.gbs 

	 --------------------------------------------------------
	                          DF-MP2                         
	      2nd-Order Density-Fitted Moller-Plesset Theory     
	              RMP2 Wavefunction,   4 Threads             
	                                                         
	        Rob Parrish, Justin Turney, Andy Simmonett,      
	           Ed Hohenstein, and C. David Sherrill          
	 --------------------------------------------------------

   => Auxiliary Basis Set <=

  Basis Set: (AUG-CC-PVTZ AUX)
    Blend: AUG-CC-PVTZ-RI
    Number of shells: 56
    Number of basis function: 198
    Number of Cartesian functions: 246
    Spherical Harmonics?: true
    Max angular momentum: 4

	 --------------------------------------------------------
	                 NBF =    92, NAUX =   198
	 --------------------------------------------------------
	   CLASS    FOCC     OCC    AOCC    AVIR     VIR    FVIR
	   PAIRS       1       5       4      87      87       0
	 --------------------------------------------------------

	-----------------------------------------------------------
	 ==================> DF-MP2 Energies <==================== 
	-----------------------------------------------------------
	 Reference Energy          =     -76.0604497026613871 [Eh]
	 Singles Energy            =      -0.0000000000000000 [Eh]
	 Same-Spin Energy          =      -0.0650895908597764 [Eh]
	 Opposite-Spin Energy      =      -0.2029598414701477 [Eh]
	 Correlation Energy        =      -0.2680494323299241 [Eh]
	 Total Energy              =     -76.3284991349913042 [Eh]
	-----------------------------------------------------------
	 ================> DF-SCS-MP2 Energies <================== 
	-----------------------------------------------------------
	 SCS Same-Spin Scale       =       0.3333333333333333 [-]
	 SCS Opposite-Spin Scale   =       1.2000000000000000 [-]
	 SCS Same-Spin Energy      =      -0.0216965302865921 [Eh]
	 SCS Opposite-Spin Energy  =      -0.2435518097641772 [Eh]
	 SCS Correlation Energy    =      -0.2652483400507693 [Eh]
	 SCS Total Energy          =     -76.3256980427121619 [Eh]
	-----------------------------------------------------------


*** tstop() called on node37.bme.utexas.edu at Tue Feb 22 19:35:09 2022
Module time:
	user time   =       1.54 seconds =       0.03 minutes
	system time =       0.11 seconds =       0.00 minutes
	total time  =          0 seconds =       0.00 minutes
Total time:
	user time   =       6.31 seconds =       0.11 minutes
	system time =       0.50 seconds =       0.01 minutes
	total time  =          4 seconds =       0.07 minutes

  //>>>>>>>>>>>>>>>>>>>>>>>>>>>>>>>>>>>>//
  // CBS Computation: MP2 / AUG-CC-PVQZ //
  //<<<<<<<<<<<<<<<<<<<<<<<<<<<<<<<<<<<<//

    SCF Algorithm Type (re)set to DF.

*** tstart() called on node37.bme.utexas.edu
*** at Tue Feb 22 19:35:09 2022

   => Loading Basis Set <=

    Name: AUG-CC-PVQZ
    Role: ORBITAL
    Keyword: BASIS
    atoms 1   entry O          line   419 file /home/bdw2292/miniconda3/envs/amoebamdpoltype/share/psi4/basis/aug-cc-pvqz.gbs 
    atoms 2-3 entry H          line    36 file /home/bdw2292/miniconda3/envs/amoebamdpoltype/share/psi4/basis/aug-cc-pvqz.gbs 


         ---------------------------------------------------------
                                   SCF
               by Justin Turney, Rob Parrish, Andy Simmonett
                          and Daniel G. A. Smith
                              RHF Reference
                        4 Threads,  14305 MiB Core
         ---------------------------------------------------------

  ==> Geometry <==

    Molecular point group: c1
    Full point group: C1

    Geometry (in Angstrom), charge = 0, multiplicity = 1:

       Center              X                  Y                   Z               Mass       
    ------------   -----------------  -----------------  -----------------  -----------------
         O            1.389411879845     0.734590040044    -2.676167455986    15.994914619570
         H            0.674744179845     0.101336040044    -2.605054755986     1.007825032230
         H            1.314466079845     1.182247040044    -3.518759455986     1.007825032230

  Running in c1 symmetry.

  Rotational constants: A =     19.71517  B =      0.09558  C =      0.09536 [cm^-1]
  Rotational constants: A = 591045.80562  B =   2865.50830  C =   2858.83874 [MHz]
  Nuclear repulsion =    9.185325024041418

  Charge       = 0
  Multiplicity = 1
  Electrons    = 10
  Nalpha       = 5
  Nbeta        = 5

  ==> Algorithm <==

  SCF Algorithm Type is DF.
  DIIS enabled.
  MOM disabled.
  Fractional occupation disabled.
  Guess Type is SAD.
  Energy threshold   = 1.00e-08
  Density threshold  = 1.00e-08
  Integral threshold = 0.00e+00

  ==> Primary Basis <==

  Basis Set: AUG-CC-PVQZ
    Blend: AUG-CC-PVQZ
    Number of shells: 48
    Number of basis function: 172
    Number of Cartesian functions: 215
    Spherical Harmonics?: true
    Max angular momentum: 4

   => Loading Basis Set <=

    Name: (AUG-CC-PVQZ AUX)
    Role: JKFIT
    Keyword: DF_BASIS_SCF
    atoms 1   entry O          line   318 file /home/bdw2292/miniconda3/envs/amoebamdpoltype/share/psi4/basis/aug-cc-pvqz-jkfit.gbs 
    atoms 2-3 entry H          line    70 file /home/bdw2292/miniconda3/envs/amoebamdpoltype/share/psi4/basis/aug-cc-pvqz-jkfit.gbs 

  ==> Pre-Iterations <==

   -------------------------------------------------------
    Irrep   Nso     Nmo     Nalpha   Nbeta   Ndocc  Nsocc
   -------------------------------------------------------
     A        172     172       0       0       0       0
   -------------------------------------------------------
    Total     172     172       5       5       5       0
   -------------------------------------------------------

  ==> Integral Setup <==

  DFHelper Memory: AOs need 0.074 GiB; user supplied 10.477 GiB. Using in-core AOs.

  ==> MemDFJK: Density-Fitted J/K Matrices <==

    J tasked:                   Yes
    K tasked:                   Yes
    wK tasked:                   No
    OpenMP threads:               4
    Memory [MiB]:             10728
    Algorithm:                 Core
    Schwarz Cutoff:           1E-12
    Mask sparsity (%):       0.0000
    Fitting Condition:        1E-10

   => Auxiliary Basis Set <=

  Basis Set: (AUG-CC-PVQZ AUX)
    Blend: AUG-CC-PVQZ-JKFIT
    Number of shells: 70
    Number of basis function: 294
    Number of Cartesian functions: 400
    Spherical Harmonics?: true
    Max angular momentum: 5

  Minimum eigenvalue in the overlap matrix is 8.5308068600E-05.
  Using Symmetric Orthogonalization.

  SCF Guess: Superposition of Atomic Densities via on-the-fly atomic UHF.

  ==> Iterations <==

                           Total Energy        Delta E     RMS |[F,P]|

   @DF-RHF iter SAD:   -75.47930648074663   -7.54793e+01   0.00000e+00 
   @DF-RHF iter   1:   -75.98168900548737   -5.02383e-01   2.73062e-03 DIIS
   @DF-RHF iter   2:   -76.03421482684477   -5.25258e-02   1.85424e-03 DIIS
   @DF-RHF iter   3:   -76.06541972858957   -3.12049e-02   1.26268e-04 DIIS
   @DF-RHF iter   4:   -76.06581119886785   -3.91470e-04   3.08358e-05 DIIS
   @DF-RHF iter   5:   -76.06583600501028   -2.48061e-05   6.91418e-06 DIIS
   @DF-RHF iter   6:   -76.06583803920358   -2.03419e-06   1.58033e-06 DIIS
   @DF-RHF iter   7:   -76.06583815807176   -1.18868e-07   3.08452e-07 DIIS
   @DF-RHF iter   8:   -76.06583816209739   -4.02564e-09   4.93377e-08 DIIS
   @DF-RHF iter   9:   -76.06583816218155   -8.41567e-11   1.19407e-08 DIIS
   @DF-RHF iter  10:   -76.06583816218544   -3.89377e-12   1.65814e-09 DIIS
  Energy and wave function converged.


  ==> Post-Iterations <==

    Orbital Energies [Eh]
    ---------------------

    Doubly Occupied:                                                      

       1A    -20.562987     2A     -1.350079     3A     -0.725218  
       4A     -0.577345     5A     -0.509318  

    Virtual:                                                              

       6A      0.027153     7A      0.042874     8A      0.114705  
       9A      0.132596    10A      0.150345    11A      0.157857  
      12A      0.185997    13A      0.197121    14A      0.208266  
      15A      0.241365    16A      0.258952    17A      0.290423  
      18A      0.358126    19A      0.390637    20A      0.471844  
      21A      0.506703    22A      0.543011    23A      0.545699  
      24A      0.554102    25A      0.613313    26A      0.634236  
      27A      0.649633    28A      0.662623    29A      0.665788  
      30A      0.690322    31A      0.705182    32A      0.714888  
      33A      0.769581    34A      0.787655    35A      0.803485  
      36A      0.810078    37A      0.846752    38A      0.855352  
      39A      0.967437    40A      1.134236    41A      1.141028  
      42A      1.216885    43A      1.329047    44A      1.417988  
      45A      1.480542    46A      1.506086    47A      1.521866  
      48A      1.525058    49A      1.555891    50A      1.595496  
      51A      1.618113    52A      1.636681    53A      1.659524  
      54A      1.672611    55A      1.685899    56A      1.702506  
      57A      1.719662    58A      1.763529    59A      1.781708  
      60A      1.794110    61A      1.828446    62A      1.862853  
      63A      1.881751    64A      1.900464    65A      1.953662  
      66A      2.013870    67A      2.021385    68A      2.029454  
      69A      2.098944    70A      2.219019    71A      2.225830  
      72A      2.307052    73A      2.493108    74A      2.642508  
      75A      2.643794    76A      2.891190    77A      2.962491  
      78A      3.010460    79A      3.023689    80A      3.061672  
      81A      3.088597    82A      3.252730    83A      3.283103  
      84A      3.311355    85A      3.530479    86A      3.591075  
      87A      3.658461    88A      3.681485    89A      3.741209  
      90A      3.741889    91A      3.920797    92A      4.066226  
      93A      4.159231    94A      4.170442    95A      4.174737  
      96A      4.181129    97A      4.250995    98A      4.344433  
      99A      4.418718   100A      4.566208   101A      4.663107  
     102A      4.761278   103A      4.803115   104A      4.807553  
     105A      4.840600   106A      4.875670   107A      4.998654  
     108A      5.276696   109A      5.315771   110A      5.513059  
     111A      5.548636   112A      5.878533   113A      5.883281  
     114A      6.080834   115A      6.231037   116A      6.835681  
     117A      6.859850   118A      6.861643   119A      6.956568  
     120A      7.714415   121A      7.779958   122A      7.829087  
     123A      7.846383   124A      7.880048   125A      7.919462  
     126A      7.947295   127A      8.006574   128A      8.197733  
     129A      8.341659   130A      8.537418   131A      8.590628  
     132A      8.707069   133A      8.759412   134A      8.800183  
     135A      8.876830   136A      8.981679   137A      9.064245  
     138A      9.142143   139A      9.527616   140A      9.842954  
     141A      9.963665   142A      9.967450   143A     10.014178  
     144A     10.442596   145A     10.478945   146A     10.653599  
     147A     10.993031   148A     11.037929   149A     11.077847  
     150A     11.259862   151A     11.369906   152A     11.439430  
     153A     11.697426   154A     11.796903   155A     11.834641  
     156A     12.013403   157A     12.175388   158A     12.226307  
     159A     12.531270   160A     12.737705   161A     12.877634  
     162A     12.895950   163A     13.211208   164A     14.000408  
     165A     14.040473   166A     14.489726   167A     14.848865  
     168A     14.878112   169A     15.304727   170A     16.930447  
     171A     17.268246   172A     45.494338  

    Final Occupation by Irrep:
              A 
    DOCC [     5 ]

  @DF-RHF Final Energy:   -76.06583816218544

   => Energetics <=

    Nuclear Repulsion Energy =              9.1853250240414184
    One-Electron Energy =                -123.0524322773314765
    Two-Electron Energy =                  37.8012690911046150
    Total Energy =                        -76.0658381621854431

Computation Completed


Properties will be evaluated at   2.542111,   1.368548,  -5.138803 [a0]

Properties computed using the SCF density matrix

  Nuclear Dipole Moment: [e a0]
     X:    -0.6572      Y:    -0.1545      Z:    -0.6421

  Electronic Dipole Moment: [e a0]
     X:     0.1259      Y:     0.0296      Z:     0.1229

  Dipole Moment: [e a0]
     X:    -0.5313      Y:    -0.1248      Z:    -0.5192     Total:     0.7532

  Dipole Moment: [D]
     X:    -1.3504      Y:    -0.3173      Z:    -1.3195     Total:     1.9145


*** tstop() called on node37.bme.utexas.edu at Tue Feb 22 19:35:14 2022
Module time:
	user time   =       8.43 seconds =       0.14 minutes
	system time =       0.56 seconds =       0.01 minutes
	total time  =          5 seconds =       0.08 minutes
Total time:
	user time   =      14.79 seconds =       0.25 minutes
	system time =       1.07 seconds =       0.02 minutes
	total time  =          9 seconds =       0.15 minutes

*** tstart() called on node37.bme.utexas.edu
*** at Tue Feb 22 19:35:14 2022


  //>>>>>>>>>>>>>>>>>>>>>>>>>>>>>>>>>>>//
  //               DFMP2               //
  //<<<<<<<<<<<<<<<<<<<<<<<<<<<<<<<<<<<//

   => Loading Basis Set <=

    Name: (AUG-CC-PVQZ AUX)
    Role: RIFIT
    Keyword: DF_BASIS_MP2
    atoms 1   entry O          line   332 file /home/bdw2292/miniconda3/envs/amoebamdpoltype/share/psi4/basis/aug-cc-pvqz-ri.gbs 
    atoms 2-3 entry H          line    30 file /home/bdw2292/miniconda3/envs/amoebamdpoltype/share/psi4/basis/aug-cc-pvqz-ri.gbs 

	 --------------------------------------------------------
	                          DF-MP2                         
	      2nd-Order Density-Fitted Moller-Plesset Theory     
	              RMP2 Wavefunction,   4 Threads             
	                                                         
	        Rob Parrish, Justin Turney, Andy Simmonett,      
	           Ed Hohenstein, and C. David Sherrill          
	 --------------------------------------------------------

   => Auxiliary Basis Set <=

  Basis Set: (AUG-CC-PVQZ AUX)
    Blend: AUG-CC-PVQZ-RI
    Number of shells: 76
    Number of basis function: 328
    Number of Cartesian functions: 447
    Spherical Harmonics?: true
    Max angular momentum: 5

	 --------------------------------------------------------
	                 NBF =   172, NAUX =   328
	 --------------------------------------------------------
	   CLASS    FOCC     OCC    AOCC    AVIR     VIR    FVIR
	   PAIRS       1       5       4     167     167       0
	 --------------------------------------------------------

	-----------------------------------------------------------
	 ==================> DF-MP2 Energies <==================== 
	-----------------------------------------------------------
	 Reference Energy          =     -76.0658381621854431 [Eh]
	 Singles Energy            =      -0.0000000000000000 [Eh]
	 Same-Spin Energy          =      -0.0671592144182410 [Eh]
	 Opposite-Spin Energy      =      -0.2185003998953067 [Eh]
	 Correlation Energy        =      -0.2856596143135477 [Eh]
	 Total Energy              =     -76.3514977764989879 [Eh]
	-----------------------------------------------------------
	 ================> DF-SCS-MP2 Energies <================== 
	-----------------------------------------------------------
	 SCS Same-Spin Scale       =       0.3333333333333333 [-]
	 SCS Opposite-Spin Scale   =       1.2000000000000000 [-]
	 SCS Same-Spin Energy      =      -0.0223864048060803 [Eh]
	 SCS Opposite-Spin Energy  =      -0.2622004798743681 [Eh]
	 SCS Correlation Energy    =      -0.2845868846804484 [Eh]
	 SCS Total Energy          =     -76.3504250468658938 [Eh]
	-----------------------------------------------------------


*** tstop() called on node37.bme.utexas.edu at Tue Feb 22 19:35:15 2022
Module time:
	user time   =       2.68 seconds =       0.04 minutes
	system time =       0.19 seconds =       0.00 minutes
	total time  =          1 seconds =       0.02 minutes
Total time:
	user time   =      17.48 seconds =       0.29 minutes
	system time =       1.26 seconds =       0.02 minutes
	total time  =         10 seconds =       0.17 minutes

  //>>>>>>>>>>>>>>>>>>>>>>>>>>>>>>>>>>>//
  //  CBS Results: mp2/aug-cc-pV[TQ]Z  //
  //<<<<<<<<<<<<<<<<<<<<<<<<<<<<<<<<<<<//


   ==> HF <==

   HI-zeta (4) Energy:               -76.065838162185


   ==> Helgaker 2-point correlated extrapolation for method: MP2 <==

   LO-zeta (3) Energy:               -76.328499134991
   HI-zeta (4) Energy:               -76.351497776499
   Alpha (exponent) Value:             3.000000000000
   Extrapolated Energy:              -76.368280568951

   @Extrapolated MP2/(T,Q):          -76.368280568951



   ==> Helgaker 2-point correlated extrapolation for method: HF <==

   LO-zeta (3) Energy:               -76.060449702661
   HI-zeta (4) Energy:               -76.065838162185
   Alpha (exponent) Value:             3.000000000000
   Extrapolated Energy:              -76.069770281298

   @Extrapolated HF/(T,Q):           -76.069770281298


   ==> Components <==

  ---------------------------------------------------------------------------------------------------------
                          Method / Basis                      Rqd      Energy [Eh]   Variable
  ---------------------------------------------------------------------------------------------------------
                              hf / aug-cc-pvtz                  *     -76.06044970   HF TOTAL ENERGY
                             mp2 / aug-cc-pvtz                  *     -76.32849913   MP2 TOTAL ENERGY
                              hf / aug-cc-pvqz                  *     -76.06583816   HF TOTAL ENERGY
                             mp2 / aug-cc-pvqz                  *     -76.35149778   MP2 TOTAL ENERGY
  ---------------------------------------------------------------------------------------------------------

   ==> Stages <==

  ---------------------------------------------------------------------------------------------------------
      Stage               Method / Basis                       Wt      Energy [Eh]   Scheme
  ---------------------------------------------------------------------------------------------------------
        scf                   hf / aug-cc-pvqz                  1     -76.06583816   xtpl_highest_1
       corl                  mp2 / aug-cc-pv[tq]z               1     -76.36828057   corl_xtpl_helgaker_2
       corl                   hf / aug-cc-pv[tq]z              -1     -76.06977028   corl_xtpl_helgaker_2
  ---------------------------------------------------------------------------------------------------------

   ==> CBS <==

  ---------------------------------------------------------------------------------------------------------
      Stage               Method / Basis                               Energy [Eh]   Scheme
  ---------------------------------------------------------------------------------------------------------
        scf                   hf / aug-cc-pvqz                        -76.06583816   xtpl_highest_1
       corl                  mp2 / aug-cc-pv[tq]z                      -0.29851029   corl_xtpl_helgaker_2
      total                  CBS                                      -76.36434845   
  ---------------------------------------------------------------------------------------------------------
   => Loading Basis Set <=

    Name: DEF2-SVP
    Role: ORBITAL
    Keyword: BASIS
    atoms 1   entry O          line   130 file /home/bdw2292/miniconda3/envs/amoebamdpoltype/share/psi4/basis/def2-svp.gbs 
    atoms 2-3 entry H          line    15 file /home/bdw2292/miniconda3/envs/amoebamdpoltype/share/psi4/basis/def2-svp.gbs 


       N-Body: Complex Energy (fragments = (2,), basis = (2,):   -76.36434844983840)

       N-Body: Computing complex (2/4) with fragments (2,) in the basis of fragments (1, 2).


  //>>>>>>>>>>>>>>>>>>>>>>>>>>>>>>>>>>>//
  //   CBS Setup: mp2/aug-cc-pV[TQ]Z   //
  //<<<<<<<<<<<<<<<<<<<<<<<<<<<<<<<<<<<//

    Naive listing of computations required.
             hf / aug-cc-pvqz              for  HF TOTAL ENERGY
            mp2 / aug-cc-pvtz              for  MP2 TOTAL ENERGY
            mp2 / aug-cc-pvqz              for  MP2 TOTAL ENERGY
             hf / aug-cc-pvtz              for  HF TOTAL ENERGY
             hf / aug-cc-pvqz              for  HF TOTAL ENERGY

    Enlightened listing of computations required.
            mp2 / aug-cc-pvtz              for  MP2 TOTAL ENERGY
            mp2 / aug-cc-pvqz              for  MP2 TOTAL ENERGY

    Full listing of computations to be obtained (required and bonus).
             hf / aug-cc-pvtz              for  HF TOTAL ENERGY
            mp2 / aug-cc-pvtz              for  MP2 TOTAL ENERGY
             hf / aug-cc-pvqz              for  HF TOTAL ENERGY
            mp2 / aug-cc-pvqz              for  MP2 TOTAL ENERGY

  //>>>>>>>>>>>>>>>>>>>>>>>>>>>>>>>>>>>>//
  // CBS Computation: MP2 / AUG-CC-PVTZ //
  //<<<<<<<<<<<<<<<<<<<<<<<<<<<<<<<<<<<<//

    SCF Algorithm Type (re)set to DF.

*** tstart() called on node37.bme.utexas.edu
*** at Tue Feb 22 19:35:16 2022

   => Loading Basis Set <=

    Name: AUG-CC-PVTZ
    Role: ORBITAL
    Keyword: BASIS
    atoms 1-4 entry CL         line   984 file /home/bdw2292/miniconda3/envs/amoebamdpoltype/share/psi4/basis/aug-cc-pvtz.gbs 
    atoms 5   entry C          line   235 file /home/bdw2292/miniconda3/envs/amoebamdpoltype/share/psi4/basis/aug-cc-pvtz.gbs 
    atoms 6   entry O          line   327 file /home/bdw2292/miniconda3/envs/amoebamdpoltype/share/psi4/basis/aug-cc-pvtz.gbs 
    atoms 7-8 entry H          line    36 file /home/bdw2292/miniconda3/envs/amoebamdpoltype/share/psi4/basis/aug-cc-pvtz.gbs 


         ---------------------------------------------------------
                                   SCF
               by Justin Turney, Rob Parrish, Andy Simmonett
                          and Daniel G. A. Smith
                              RHF Reference
                        4 Threads,  14305 MiB Core
         ---------------------------------------------------------

  ==> Geometry <==

    Molecular point group: c1
    Full point group: C1

    Geometry (in Angstrom), charge = 0, multiplicity = 1:

       Center              X                  Y                   Z               Mass       
    ------------   -----------------  -----------------  -----------------  -----------------
      Gh(CL)         -0.924581520155    -0.551254259956     1.847699444014    34.968852682000
      Gh(CL)         -0.961457320155     1.353685340044    -0.324318955986    34.968852682000
      Gh(CL)         -0.306057120155    -1.412489959956    -0.840172755986    34.968852682000
      Gh(CL)          1.553283979845     0.266013740044     0.606754644014    34.968852682000
      Gh(C)          -0.157481520155    -0.084372359956     0.322358244014    12.000000000000
         O            1.389411879845     0.734590040044    -2.676167455986    15.994914619570
         H            0.674744179845     0.101336040044    -2.605054755986     1.007825032230
         H            1.314466079845     1.182247040044    -3.518759455986     1.007825032230

  Running in c1 symmetry.

  Rotational constants: A =      0.05748  B =      0.03447  C =      0.03442 [cm^-1]
  Rotational constants: A =   1723.07946  B =   1033.50059  C =   1031.76118 [MHz]
  Nuclear repulsion =    9.185325024041418

  Charge       = 0
  Multiplicity = 1
  Electrons    = 10
  Nalpha       = 5
  Nbeta        = 5

  ==> Algorithm <==

  SCF Algorithm Type is DF.
  DIIS enabled.
  MOM disabled.
  Fractional occupation disabled.
  Guess Type is SAD.
  Energy threshold   = 1.00e-08
  Density threshold  = 1.00e-08
  Integral threshold = 0.00e+00

  ==> Primary Basis <==

  Basis Set: AUG-CC-PVTZ
    Blend: AUG-CC-PVTZ
    Number of shells: 110
    Number of basis function: 338
    Number of Cartesian functions: 396
    Spherical Harmonics?: true
    Max angular momentum: 3

   => Loading Basis Set <=

    Name: (AUG-CC-PVTZ AUX)
    Role: JKFIT
    Keyword: DF_BASIS_SCF
    atoms 1-4 entry CL         line   816 file /home/bdw2292/miniconda3/envs/amoebamdpoltype/share/psi4/basis/aug-cc-pvtz-jkfit.gbs 
    atoms 5   entry C          line   162 file /home/bdw2292/miniconda3/envs/amoebamdpoltype/share/psi4/basis/aug-cc-pvtz-jkfit.gbs 
    atoms 6   entry O          line   286 file /home/bdw2292/miniconda3/envs/amoebamdpoltype/share/psi4/basis/aug-cc-pvtz-jkfit.gbs 
    atoms 7-8 entry H          line    70 file /home/bdw2292/miniconda3/envs/amoebamdpoltype/share/psi4/basis/aug-cc-pvtz-jkfit.gbs 

  ==> Pre-Iterations <==

   -------------------------------------------------------
    Irrep   Nso     Nmo     Nalpha   Nbeta   Ndocc  Nsocc
   -------------------------------------------------------
     A        338     338       0       0       0       0
   -------------------------------------------------------
    Total     338     338       5       5       5       0
   -------------------------------------------------------

  ==> Integral Setup <==

  DFHelper Memory: AOs need 0.768 GiB; user supplied 10.477 GiB. Using in-core AOs.

  ==> MemDFJK: Density-Fitted J/K Matrices <==

    J tasked:                   Yes
    K tasked:                   Yes
    wK tasked:                   No
    OpenMP threads:               4
    Memory [MiB]:             10728
    Algorithm:                 Core
    Schwarz Cutoff:           1E-12
    Mask sparsity (%):       2.2688
    Fitting Condition:        1E-10

   => Auxiliary Basis Set <=

  Basis Set: (AUG-CC-PVTZ AUX)
    Blend: AUG-CC-PVTZ-JKFIT
    Number of shells: 256
    Number of basis function: 884
    Number of Cartesian functions: 1092
    Spherical Harmonics?: true
    Max angular momentum: 4

  Minimum eigenvalue in the overlap matrix is 6.4188883863E-05.
  Using Symmetric Orthogonalization.

  SCF Guess: Superposition of Atomic Densities via on-the-fly atomic UHF.

  ==> Iterations <==

                           Total Energy        Delta E     RMS |[F,P]|

   @DF-RHF iter SAD:   -75.47414972104548   -7.54741e+01   0.00000e+00 
   @DF-RHF iter   1:   -75.97664206510382   -5.02492e-01   1.38670e-03 DIIS
   @DF-RHF iter   2:   -76.02907173198813   -5.24297e-02   9.39507e-04 DIIS
   @DF-RHF iter   3:   -76.06008160952321   -3.10099e-02   6.37987e-05 DIIS
   @DF-RHF iter   4:   -76.06047110194184   -3.89492e-04   1.52315e-05 DIIS
   @DF-RHF iter   5:   -76.06049503311125   -2.39312e-05   3.42786e-06 DIIS
   @DF-RHF iter   6:   -76.06049698727449   -1.95416e-06   7.63259e-07 DIIS
   @DF-RHF iter   7:   -76.06049709517137   -1.07897e-07   1.44613e-07 DIIS
   @DF-RHF iter   8:   -76.06049709860952   -3.43815e-09   2.39783e-08 DIIS
   @DF-RHF iter   9:   -76.06049709868398   -7.44649e-11   5.95344e-09 DIIS
  Energy and wave function converged.


  ==> Post-Iterations <==

    Orbital Energies [Eh]
    ---------------------

    Doubly Occupied:                                                      

       1A    -20.565405     2A     -1.350772     3A     -0.725226  
       4A     -0.577266     5A     -0.509170  

    Virtual:                                                              

       6A      0.023500     7A      0.039783     8A      0.050432  
       9A      0.058623    10A      0.067455    11A      0.085029  
      12A      0.106584    13A      0.110080    14A      0.110931  
      15A      0.113884    16A      0.123397    17A      0.130102  
      18A      0.154304    19A      0.155618    20A      0.159436  
      21A      0.164782    22A      0.175832    23A      0.177639  
      24A      0.182362    25A      0.191483    26A      0.198250  
      27A      0.200784    28A      0.202084    29A      0.210935  
      30A      0.243519    31A      0.251942    32A      0.278992  
      33A      0.283782    34A      0.308649    35A      0.315715  
      36A      0.320142    37A      0.331466    38A      0.336271  
      39A      0.340589    40A      0.356485    41A      0.369553  
      42A      0.386344    43A      0.397674    44A      0.403429  
      45A      0.421045    46A      0.435948    47A      0.438414  
      48A      0.453245    49A      0.457162    50A      0.460376  
      51A      0.472631    52A      0.490379    53A      0.523628  
      54A      0.533060    55A      0.536166    56A      0.538823  
      57A      0.545088    58A      0.546330    59A      0.553878  
      60A      0.557066    61A      0.571449    62A      0.576292  
      63A      0.601009    64A      0.614151    65A      0.620891  
      66A      0.630775    67A      0.643630    68A      0.650363  
      69A      0.678307    70A      0.693758    71A      0.719463  
      72A      0.724735    73A      0.725630    74A      0.736319  
      75A      0.747306    76A      0.749496    77A      0.753674  
      78A      0.761315    79A      0.763832    80A      0.766469  
      81A      0.782154    82A      0.789716    83A      0.810830  
      84A      0.817914    85A      0.825853    86A      0.862339  
      87A      0.866348    88A      0.890097    89A      0.900310  
      90A      0.916025    91A      0.945155    92A      0.958121  
      93A      0.976010    94A      0.986693    95A      1.028537  
      96A      1.037895    97A      1.061853    98A      1.111642  
      99A      1.124748   100A      1.135369   101A      1.167726  
     102A      1.186401   103A      1.222044   104A      1.240110  
     105A      1.248616   106A      1.252296   107A      1.267381  
     108A      1.286934   109A      1.304540   110A      1.306662  
     111A      1.319845   112A      1.338077   113A      1.347216  
     114A      1.352205   115A      1.367517   116A      1.369347  
     117A      1.381019   118A      1.393387   119A      1.402337  
     120A      1.418970   121A      1.431165   122A      1.458831  
     123A      1.470291   124A      1.473166   125A      1.478270  
     126A      1.482513   127A      1.488579   128A      1.500695  
     129A      1.511153   130A      1.522847   131A      1.538470  
     132A      1.542218   133A      1.548606   134A      1.556469  
     135A      1.565602   136A      1.567418   137A      1.568581  
     138A      1.581305   139A      1.595284   140A      1.603946  
     141A      1.605857   142A      1.610285   143A      1.627571  
     144A      1.655120   145A      1.657980   146A      1.669108  
     147A      1.681271   148A      1.684717   149A      1.692569  
     150A      1.704886   151A      1.718551   152A      1.729023  
     153A      1.743670   154A      1.749698   155A      1.756695  
     156A      1.799576   157A      1.805442   158A      1.815791  
     159A      1.845209   160A      1.877033   161A      1.879518  
     162A      1.897013   163A      1.913498   164A      1.936561  
     165A      1.954802   166A      1.976270   167A      2.074568  
     168A      2.111058   169A      2.140481   170A      2.147404  
     171A      2.153231   172A      2.156817   173A      2.167651  
     174A      2.210616   175A      2.221587   176A      2.235590  
     177A      2.249076   178A      2.304584   179A      2.320232  
     180A      2.344789   181A      2.346801   182A      2.372373  
     183A      2.401403   184A      2.446225   185A      2.460561  
     186A      2.469517   187A      2.492859   188A      2.517840  
     189A      2.537000   190A      2.569960   191A      2.580065  
     192A      2.587300   193A      2.593782   194A      2.634179  
     195A      2.749074   196A      2.754560   197A      2.763481  
     198A      2.782520   199A      2.843818   200A      2.914119  
     201A      2.956548   202A      2.973171   203A      3.078744  
     204A      3.724648   205A      3.803475   206A      3.827393  
     207A      3.835396   208A      3.848045   209A      3.938104  
     210A      3.957686   211A      3.971897   212A      3.986316  
     213A      3.989070   214A      4.007476   215A      4.017992  
     216A      4.033818   217A      4.043931   218A      4.056255  
     219A      4.069652   220A      4.078147   221A      4.087360  
     222A      4.095589   223A      4.105277   224A      4.126972  
     225A      4.135553   226A      4.140987   227A      4.152174  
     228A      4.155613   229A      4.161219   230A      4.187979  
     231A      4.199304   232A      4.202823   233A      4.218738  
     234A      4.229333   235A      4.243637   236A      4.258175  
     237A      4.261583   238A      4.276422   239A      4.289453  
     240A      4.314533   241A      4.333441   242A      4.337349  
     243A      4.353656   244A      4.400585   245A      4.430677  
     246A      4.451000   247A      4.458665   248A      4.471553  
     249A      4.476214   250A      4.480633   251A      4.500122  
     252A      4.511690   253A      4.577568   254A      4.595620  
     255A      4.709985   256A      4.714207   257A      4.743169  
     258A      4.745151   259A      4.762000   260A      4.772592  
     261A      4.778965   262A      4.796649   263A      4.801640  
     264A      4.804213   265A      4.810004   266A      4.826305  
     267A      4.831792   268A      4.835268   269A      4.844267  
     270A      4.870998   271A      4.892610   272A      4.898084  
     273A      4.901575   274A      4.922032   275A      4.952033  
     276A      5.016556   277A      5.102026   278A      5.117434  
     279A      5.122464   280A      5.137794   281A      5.151566  
     282A      5.172428   283A      5.207117   284A      5.238843  
     285A      5.355627   286A      5.389621   287A      5.405550  
     288A      5.409717   289A      5.415377   290A      5.427262  
     291A      5.449765   292A      5.533317   293A      5.628451  
     294A      5.796254   295A      5.879795   296A      6.135818  
     297A      6.151935   298A      6.161804   299A      6.201773  
     300A      6.605175   301A      6.787854   302A      6.909468  
     303A      7.171636   304A      7.303396   305A      7.343920  
     306A      7.388056   307A      7.419051   308A      7.433687  
     309A      7.567774   310A      7.709501   311A      7.905635  
     312A      7.913585   313A      7.938901   314A      7.949478  
     315A      8.022159   316A      8.830751   317A     15.471472  
     318A     16.194924   319A     16.428034   320A     16.531208  
     321A     16.615363   322A     28.070101   323A     28.103078  
     324A     28.121579   325A     28.179613   326A     28.203405  
     327A     28.307711   328A     28.357846   329A     28.387073  
     330A     28.866211   331A     28.882301   332A     28.938647  
     333A     29.546180   334A     40.714779   335A    160.951282  
     336A    161.055021   337A    161.059113   338A    161.062996  

    Final Occupation by Irrep:
              A 
    DOCC [     5 ]

  @DF-RHF Final Energy:   -76.06049709868398

   => Energetics <=

    Nuclear Repulsion Energy =              9.1853250240414184
    One-Electron Energy =                -123.0359639726851384
    Two-Electron Energy =                  37.7901418499597526
    Total Energy =                        -76.0604970986839675

Computation Completed


Properties will be evaluated at   0.000000,   0.000000,  -0.000000 [a0]

Properties computed using the SCF density matrix

  Nuclear Dipole Moment: [e a0]
     X:    24.7639      Y:    13.5310      Z:   -52.0301

  Electronic Dipole Moment: [e a0]
     X:   -25.2958      Y:   -13.6561      Z:    51.5103

  Dipole Moment: [e a0]
     X:    -0.5319      Y:    -0.1251      Z:    -0.5198     Total:     0.7542

  Dipole Moment: [D]
     X:    -1.3519      Y:    -0.3180      Z:    -1.3213     Total:     1.9169


*** tstop() called on node37.bme.utexas.edu at Tue Feb 22 19:35:30 2022
Module time:
	user time   =      42.80 seconds =       0.71 minutes
	system time =       2.23 seconds =       0.04 minutes
	total time  =         14 seconds =       0.23 minutes
Total time:
	user time   =      61.79 seconds =       1.03 minutes
	system time =       3.53 seconds =       0.06 minutes
	total time  =         25 seconds =       0.42 minutes

*** tstart() called on node37.bme.utexas.edu
*** at Tue Feb 22 19:35:30 2022


  //>>>>>>>>>>>>>>>>>>>>>>>>>>>>>>>>>>>//
  //               DFMP2               //
  //<<<<<<<<<<<<<<<<<<<<<<<<<<<<<<<<<<<//

   => Loading Basis Set <=

    Name: (AUG-CC-PVTZ AUX)
    Role: RIFIT
    Keyword: DF_BASIS_MP2
    atoms 1-4 entry CL         line   742 file /home/bdw2292/miniconda3/envs/amoebamdpoltype/share/psi4/basis/aug-cc-pvtz-ri.gbs 
    atoms 5   entry C          line   148 file /home/bdw2292/miniconda3/envs/amoebamdpoltype/share/psi4/basis/aug-cc-pvtz-ri.gbs 
    atoms 6   entry O          line   264 file /home/bdw2292/miniconda3/envs/amoebamdpoltype/share/psi4/basis/aug-cc-pvtz-ri.gbs 
    atoms 7-8 entry H          line    30 file /home/bdw2292/miniconda3/envs/amoebamdpoltype/share/psi4/basis/aug-cc-pvtz-ri.gbs 

	 --------------------------------------------------------
	                          DF-MP2                         
	      2nd-Order Density-Fitted Moller-Plesset Theory     
	              RMP2 Wavefunction,   4 Threads             
	                                                         
	        Rob Parrish, Justin Turney, Andy Simmonett,      
	           Ed Hohenstein, and C. David Sherrill          
	 --------------------------------------------------------

   => Auxiliary Basis Set <=

  Basis Set: (AUG-CC-PVTZ AUX)
    Blend: AUG-CC-PVTZ-RI
    Number of shells: 232
    Number of basis function: 892
    Number of Cartesian functions: 1146
    Spherical Harmonics?: true
    Max angular momentum: 4

	 --------------------------------------------------------
	                 NBF =   338, NAUX =   892
	 --------------------------------------------------------
	   CLASS    FOCC     OCC    AOCC    AVIR     VIR    FVIR
	   PAIRS       1       5       4     333     333       0
	 --------------------------------------------------------

	-----------------------------------------------------------
	 ==================> DF-MP2 Energies <==================== 
	-----------------------------------------------------------
	 Reference Energy          =     -76.0604970986839817 [Eh]
	 Singles Energy            =      -0.0000000000000000 [Eh]
	 Same-Spin Energy          =      -0.0651085453031298 [Eh]
	 Opposite-Spin Energy      =      -0.2031575144573022 [Eh]
	 Correlation Energy        =      -0.2682660597604319 [Eh]
	 Total Energy              =     -76.3287631584444171 [Eh]
	-----------------------------------------------------------
	 ================> DF-SCS-MP2 Energies <================== 
	-----------------------------------------------------------
	 SCS Same-Spin Scale       =       0.3333333333333333 [-]
	 SCS Opposite-Spin Scale   =       1.2000000000000000 [-]
	 SCS Same-Spin Energy      =      -0.0217028484343766 [Eh]
	 SCS Opposite-Spin Energy  =      -0.2437890173487626 [Eh]
	 SCS Correlation Energy    =      -0.2654918657831392 [Eh]
	 SCS Total Energy          =     -76.3259889644671148 [Eh]
	-----------------------------------------------------------


*** tstop() called on node37.bme.utexas.edu at Tue Feb 22 19:35:36 2022
Module time:
	user time   =      17.42 seconds =       0.29 minutes
	system time =       1.23 seconds =       0.02 minutes
	total time  =          6 seconds =       0.10 minutes
Total time:
	user time   =      79.21 seconds =       1.32 minutes
	system time =       4.76 seconds =       0.08 minutes
	total time  =         31 seconds =       0.52 minutes

  //>>>>>>>>>>>>>>>>>>>>>>>>>>>>>>>>>>>>//
  // CBS Computation: MP2 / AUG-CC-PVQZ //
  //<<<<<<<<<<<<<<<<<<<<<<<<<<<<<<<<<<<<//

    SCF Algorithm Type (re)set to DF.

*** tstart() called on node37.bme.utexas.edu
*** at Tue Feb 22 19:35:36 2022

   => Loading Basis Set <=

    Name: AUG-CC-PVQZ
    Role: ORBITAL
    Keyword: BASIS
    atoms 1-4 entry CL         line  1218 file /home/bdw2292/miniconda3/envs/amoebamdpoltype/share/psi4/basis/aug-cc-pvqz.gbs 
    atoms 5   entry C          line   299 file /home/bdw2292/miniconda3/envs/amoebamdpoltype/share/psi4/basis/aug-cc-pvqz.gbs 
    atoms 6   entry O          line   419 file /home/bdw2292/miniconda3/envs/amoebamdpoltype/share/psi4/basis/aug-cc-pvqz.gbs 
    atoms 7-8 entry H          line    36 file /home/bdw2292/miniconda3/envs/amoebamdpoltype/share/psi4/basis/aug-cc-pvqz.gbs 


         ---------------------------------------------------------
                                   SCF
               by Justin Turney, Rob Parrish, Andy Simmonett
                          and Daniel G. A. Smith
                              RHF Reference
                        4 Threads,  14305 MiB Core
         ---------------------------------------------------------

  ==> Geometry <==

    Molecular point group: c1
    Full point group: C1

    Geometry (in Angstrom), charge = 0, multiplicity = 1:

       Center              X                  Y                   Z               Mass       
    ------------   -----------------  -----------------  -----------------  -----------------
      Gh(CL)         -0.924581520155    -0.551254259956     1.847699444014    34.968852682000
      Gh(CL)         -0.961457320155     1.353685340044    -0.324318955986    34.968852682000
      Gh(CL)         -0.306057120155    -1.412489959956    -0.840172755986    34.968852682000
      Gh(CL)          1.553283979845     0.266013740044     0.606754644014    34.968852682000
      Gh(C)          -0.157481520155    -0.084372359956     0.322358244014    12.000000000000
         O            1.389411879845     0.734590040044    -2.676167455986    15.994914619570
         H            0.674744179845     0.101336040044    -2.605054755986     1.007825032230
         H            1.314466079845     1.182247040044    -3.518759455986     1.007825032230

  Running in c1 symmetry.

  Rotational constants: A =      0.05748  B =      0.03447  C =      0.03442 [cm^-1]
  Rotational constants: A =   1723.07946  B =   1033.50059  C =   1031.76118 [MHz]
  Nuclear repulsion =    9.185325024041418

  Charge       = 0
  Multiplicity = 1
  Electrons    = 10
  Nalpha       = 5
  Nbeta        = 5

  ==> Algorithm <==

  SCF Algorithm Type is DF.
  DIIS enabled.
  MOM disabled.
  Fractional occupation disabled.
  Guess Type is SAD.
  Energy threshold   = 1.00e-08
  Density threshold  = 1.00e-08
  Integral threshold = 0.00e+00

  ==> Primary Basis <==

  Basis Set: AUG-CC-PVQZ
    Blend: AUG-CC-PVQZ
    Number of shells: 156
    Number of basis function: 588
    Number of Cartesian functions: 756
    Spherical Harmonics?: true
    Max angular momentum: 4

   => Loading Basis Set <=

    Name: (AUG-CC-PVQZ AUX)
    Role: JKFIT
    Keyword: DF_BASIS_SCF
    atoms 1-4 entry CL         line   904 file /home/bdw2292/miniconda3/envs/amoebamdpoltype/share/psi4/basis/aug-cc-pvqz-jkfit.gbs 
    atoms 5   entry C          line   178 file /home/bdw2292/miniconda3/envs/amoebamdpoltype/share/psi4/basis/aug-cc-pvqz-jkfit.gbs 
    atoms 6   entry O          line   318 file /home/bdw2292/miniconda3/envs/amoebamdpoltype/share/psi4/basis/aug-cc-pvqz-jkfit.gbs 
    atoms 7-8 entry H          line    70 file /home/bdw2292/miniconda3/envs/amoebamdpoltype/share/psi4/basis/aug-cc-pvqz-jkfit.gbs 

  ==> Pre-Iterations <==

   -------------------------------------------------------
    Irrep   Nso     Nmo     Nalpha   Nbeta   Ndocc  Nsocc
   -------------------------------------------------------
     A        588     588       0       0       0       0
   -------------------------------------------------------
    Total     588     588       5       5       5       0
   -------------------------------------------------------

  ==> Integral Setup <==

  DFHelper Memory: AOs need 2.966 GiB; user supplied 10.477 GiB. Using in-core AOs.

  ==> MemDFJK: Density-Fitted J/K Matrices <==

    J tasked:                   Yes
    K tasked:                   Yes
    wK tasked:                   No
    OpenMP threads:               4
    Memory [MiB]:             10728
    Algorithm:                 Disk
    Schwarz Cutoff:           1E-12
    Mask sparsity (%):       5.2623
    Fitting Condition:        1E-10

   => Auxiliary Basis Set <=

  Basis Set: (AUG-CC-PVQZ AUX)
    Blend: AUG-CC-PVQZ-JKFIT
    Number of shells: 288
    Number of basis function: 1172
    Number of Cartesian functions: 1586
    Spherical Harmonics?: true
    Max angular momentum: 5

  Minimum eigenvalue in the overlap matrix is 1.0614892316E-05.
  Using Symmetric Orthogonalization.

  SCF Guess: Superposition of Atomic Densities via on-the-fly atomic UHF.

  ==> Iterations <==

                           Total Energy        Delta E     RMS |[F,P]|

   @DF-RHF iter SAD:   -75.47930646891025   -7.54793e+01   0.00000e+00 
   @DF-RHF iter   1:   -75.98171232079571   -5.02406e-01   7.98772e-04 DIIS
   @DF-RHF iter   2:   -76.03424158510789   -5.25293e-02   5.42415e-04 DIIS
   @DF-RHF iter   3:   -76.06544563146548   -3.12040e-02   3.69388e-05 DIIS
   @DF-RHF iter   4:   -76.06583715386036   -3.91522e-04   9.02059e-06 DIIS
   @DF-RHF iter   5:   -76.06586196282127   -2.48090e-05   2.02302e-06 DIIS
   @DF-RHF iter   6:   -76.06586399814475   -2.03532e-06   4.62414e-07 DIIS
   @DF-RHF iter   7:   -76.06586411713589   -1.18991e-07   9.03466e-08 DIIS
   @DF-RHF iter   8:   -76.06586412117679   -4.04090e-09   1.44590e-08 DIIS
   @DF-RHF iter   9:   -76.06586412126167   -8.48814e-11   3.49812e-09 DIIS
  Energy and wave function converged.


  ==> Post-Iterations <==

    Orbital Energies [Eh]
    ---------------------

    Doubly Occupied:                                                      

       1A    -20.562959     2A     -1.350054     3A     -0.725197  
       4A     -0.577324     5A     -0.509308  

    Virtual:                                                              

       6A      0.020470     7A      0.035272     8A      0.044214  
       9A      0.050155    10A      0.059123    11A      0.075005  
      12A      0.089140    13A      0.092639    14A      0.093924  
      15A      0.095136    16A      0.104640    17A      0.111276  
      18A      0.130542    19A      0.132085    20A      0.135979  
      21A      0.140607    22A      0.148770    23A      0.150955  
      24A      0.155064    25A      0.159891    26A      0.169364  
      27A      0.171216    28A      0.173251    29A      0.179280  
      30A      0.211528    31A      0.215481    32A      0.233543  
      33A      0.236641    34A      0.249183    35A      0.256433  
      36A      0.258262    37A      0.259350    38A      0.263211  
      39A      0.273232    40A      0.280476    41A      0.295920  
      42A      0.311741    43A      0.320859    44A      0.328183  
      45A      0.331070    46A      0.335284    47A      0.346322  
      48A      0.346918    49A      0.358528    50A      0.365490  
      51A      0.372589    52A      0.388757    53A      0.400900  
      54A      0.407410    55A      0.418128    56A      0.421509  
      57A      0.427673    58A      0.431124    59A      0.436015  
      60A      0.440925    61A      0.444177    62A      0.447134  
      63A      0.457901    64A      0.468778    65A      0.471110  
      66A      0.479635    67A      0.487451    68A      0.497450  
      69A      0.519968    70A      0.525183    71A      0.536812  
      72A      0.540705    73A      0.543005    74A      0.551736  
      75A      0.555977    76A      0.565994    77A      0.570283  
      78A      0.572545    79A      0.583193    80A      0.590064  
      81A      0.595640    82A      0.605876    83A      0.625174  
      84A      0.629339    85A      0.637619    86A      0.671185  
      87A      0.676512    88A      0.684092    89A      0.699616  
      90A      0.705601    91A      0.725301    92A      0.727940  
      93A      0.758996    94A      0.772706    95A      0.780188  
      96A      0.792859    97A      0.818811    98A      0.831816  
      99A      0.840405   100A      0.868781   101A      0.870083  
     102A      0.875457   103A      0.890044   104A      0.892653  
     105A      0.913667   106A      0.922137   107A      0.929336  
     108A      0.939273   109A      0.943304   110A      0.946702  
     111A      0.951299   112A      0.964607   113A      0.973230  
     114A      0.976826   115A      0.986082   116A      0.998413  
     117A      1.008015   118A      1.016458   119A      1.017966  
     120A      1.021820   121A      1.026558   122A      1.034459  
     123A      1.037749   124A      1.046739   125A      1.050329  
     126A      1.056461   127A      1.065260   128A      1.070969  
     129A      1.078952   130A      1.084766   131A      1.089120  
     132A      1.110009   133A      1.113054   134A      1.121067  
     135A      1.128566   136A      1.143630   137A      1.147800  
     138A      1.160977   139A      1.168463   140A      1.180904  
     141A      1.191721   142A      1.203777   143A      1.204905  
     144A      1.212249   145A      1.213653   146A      1.216386  
     147A      1.226854   148A      1.248701   149A      1.256809  
     150A      1.265225   151A      1.274226   152A      1.278818  
     153A      1.290040   154A      1.296033   155A      1.304486  
     156A      1.316194   157A      1.341845   158A      1.358705  
     159A      1.372172   160A      1.376753   161A      1.400645  
     162A      1.413958   163A      1.418480   164A      1.428861  
     165A      1.473540   166A      1.489968   167A      1.553464  
     168A      1.557881   169A      1.580800   170A      1.587581  
     171A      1.602587   172A      1.612081   173A      1.618439  
     174A      1.634390   175A      1.646248   176A      1.651970  
     177A      1.656548   178A      1.664283   179A      1.669325  
     180A      1.672255   181A      1.692081   182A      1.704636  
     183A      1.707807   184A      1.713560   185A      1.739720  
     186A      1.753425   187A      1.759164   188A      1.767716  
     189A      1.785894   190A      1.805208   191A      1.810322  
     192A      1.824993   193A      1.843516   194A      1.848911  
     195A      1.873323   196A      1.881867   197A      1.886581  
     198A      1.905421   199A      1.918824   200A      1.926090  
     201A      1.935283   202A      1.950272   203A      1.952795  
     204A      1.966215   205A      1.970087   206A      1.981653  
     207A      1.995013   208A      1.998682   209A      2.006092  
     210A      2.027827   211A      2.041489   212A      2.059092  
     213A      2.071054   214A      2.093578   215A      2.104905  
     216A      2.132083   217A      2.150788   218A      2.171580  
     219A      2.185057   220A      2.205998   221A      2.234614  
     222A      2.242455   223A      2.244077   224A      2.251364  
     225A      2.261435   226A      2.272213   227A      2.279489  
     228A      2.299956   229A      2.310621   230A      2.325645  
     231A      2.347834   232A      2.357147   233A      2.365151  
     234A      2.375046   235A      2.395966   236A      2.407452  
     237A      2.419534   238A      2.431678   239A      2.446258  
     240A      2.454265   241A      2.461340   242A      2.472362  
     243A      2.483837   244A      2.493385   245A      2.505190  
     246A      2.508283   247A      2.518641   248A      2.526571  
     249A      2.543115   250A      2.551069   251A      2.555727  
     252A      2.561868   253A      2.565782   254A      2.573224  
     255A      2.585728   256A      2.588624   257A      2.592879  
     258A      2.604460   259A      2.611595   260A      2.631577  
     261A      2.633922   262A      2.641099   263A      2.654522  
     264A      2.662569   265A      2.677406   266A      2.682252  
     267A      2.685067   268A      2.687446   269A      2.712557  
     270A      2.726558   271A      2.732128   272A      2.741946  
     273A      2.772127   274A      2.788015   275A      2.799645  
     276A      2.812673   277A      2.819046   278A      2.826012  
     279A      2.836458   280A      2.859341   281A      2.873903  
     282A      2.884942   283A      2.891291   284A      2.936208  
     285A      2.955337   286A      2.965318   287A      2.984806  
     288A      3.003480   289A      3.017894   290A      3.025821  
     291A      3.034224   292A      3.063388   293A      3.071716  
     294A      3.109601   295A      3.122800   296A      3.146209  
     297A      3.155936   298A      3.167804   299A      3.185115  
     300A      3.190558   301A      3.206563   302A      3.214951  
     303A      3.232538   304A      3.238067   305A      3.250132  
     306A      3.256388   307A      3.266958   308A      3.289438  
     309A      3.303628   310A      3.330444   311A      3.339752  
     312A      3.385554   313A      3.392456   314A      3.407632  
     315A      3.435481   316A      3.471103   317A      3.494950  
     318A      3.512311   319A      3.518273   320A      3.566227  
     321A      3.581437   322A      3.583135   323A      3.593471  
     324A      3.597714   325A      3.609122   326A      3.622517  
     327A      3.638549   328A      3.645105   329A      3.670797  
     330A      3.748395   331A      3.772176   332A      3.788679  
     333A      3.812280   334A      3.819330   335A      3.840916  
     336A      3.871342   337A      3.873861   338A      3.894597  
     339A      3.899509   340A      3.912629   341A      3.933861  
     342A      3.945847   343A      3.963466   344A      4.089494  
     345A      4.116820   346A      4.133145   347A      4.134122  
     348A      4.166755   349A      4.175630   350A      4.201985  
     351A      4.212705   352A      4.232536   353A      4.243059  
     354A      4.257704   355A      4.281011   356A      4.297359  
     357A      4.309297   358A      4.317979   359A      4.380954  
     360A      4.435050   361A      4.447170   362A      4.452443  
     363A      4.502833   364A      4.566265   365A      4.643173  
     366A      4.690404   367A      4.808099   368A      4.831724  
     369A      4.863845   370A      4.877207   371A      4.880728  
     372A      4.909906   373A      4.925234   374A      4.964009  
     375A      5.004102   376A      5.062620   377A      5.130229  
     378A      5.389243   379A      5.422817   380A      5.459261  
     381A      5.462168   382A      5.501183   383A      5.530131  
     384A      5.534486   385A      5.540021   386A      5.549532  
     387A      5.575561   388A      5.601619   389A      5.611231  
     390A      5.626956   391A      5.653963   392A      5.664546  
     393A      5.677169   394A      5.681366   395A      5.690057  
     396A      5.707643   397A      5.714807   398A      5.741639  
     399A      5.752124   400A      5.761128   401A      5.784713  
     402A      5.793201   403A      5.814412   404A      5.821457  
     405A      5.850332   406A      5.876040   407A      5.892928  
     408A      5.905672   409A      5.949653   410A      5.966288  
     411A      5.997235   412A      6.017212   413A      6.053789  
     414A      6.104522   415A      6.125299   416A      6.149478  
     417A      6.157813   418A      6.172885   419A      6.184845  
     420A      6.252036   421A      6.328590   422A      6.342751  
     423A      6.358487   424A      6.373137   425A      6.397184  
     426A      6.409488   427A      6.421409   428A      6.428672  
     429A      6.435983   430A      6.439552   431A      6.454646  
     432A      6.470444   433A      6.493220   434A      6.496034  
     435A      6.502001   436A      6.529147   437A      6.549038  
     438A      6.585345   439A      6.597149   440A      6.617321  
     441A      6.621399   442A      6.629297   443A      6.632928  
     444A      6.655446   445A      6.665875   446A      6.689941  
     447A      6.707751   448A      6.721056   449A      6.887786  
     450A      6.915103   451A      6.972709   452A      7.008416  
     453A      7.082377   454A      7.361287   455A      7.397581  
     456A      7.407028   457A      7.424677   458A      7.441108  
     459A      7.502845   460A      7.511625   461A      7.530094  
     462A      7.538046   463A      7.720517   464A      7.729453  
     465A      7.751989   466A      7.754513   467A      7.784979  
     468A      7.804572   469A      7.846505   470A      7.860192  
     471A      7.874495   472A      7.875523   473A      7.905092  
     474A      7.917756   475A      7.941142   476A      7.975317  
     477A      7.999323   478A      8.034605   479A      8.048279  
     480A      8.052617   481A      8.061240   482A      8.090694  
     483A      8.093467   484A      8.103825   485A      8.120599  
     486A      8.134326   487A      8.139723   488A      8.143227  
     489A      8.177764   490A      8.213036   491A      8.276177  
     492A      8.293636   493A      8.303052   494A      8.322968  
     495A      8.416562   496A      8.425830   497A      8.454273  
     498A      8.474104   499A      8.481194   500A      8.543069  
     501A      8.650856   502A      8.663637   503A      8.669645  
     504A      8.685472   505A      8.705025   506A      8.731147  
     507A      8.845682   508A      8.852286   509A      8.857894  
     510A      8.866923   511A      8.890943   512A      8.955456  
     513A      9.003778   514A      9.070471   515A      9.147513  
     516A      9.218079   517A      9.272789   518A      9.276203  
     519A      9.277271   520A      9.288864   521A      9.292836  
     522A      9.320822   523A      9.330469   524A      9.339727  
     525A      9.405944   526A      9.615332   527A      9.932346  
     528A     10.045276   529A     10.089578   530A     10.112293  
     531A     10.149230   532A     10.521686   533A     10.551174  
     534A     10.799167   535A     10.801112   536A     10.836171  
     537A     10.863492   538A     11.049303   539A     11.085699  
     540A     11.268965   541A     11.362118   542A     11.414331  
     543A     11.510556   544A     11.757306   545A     11.902149  
     546A     11.911198   547A     12.059310   548A     12.242124  
     549A     12.295254   550A     12.667291   551A     12.788811  
     552A     12.912526   553A     12.942748   554A     13.017091  
     555A     13.260544   556A     13.428179   557A     13.432791  
     558A     13.558023   559A     14.021808   560A     14.170039  
     561A     14.499690   562A     14.859857   563A     14.908339  
     564A     15.347842   565A     17.078362   566A     17.395207  
     567A     31.098960   568A     31.111070   569A     31.117293  
     570A     31.128420   571A     31.143273   572A     31.144307  
     573A     31.189986   574A     31.202198   575A     31.304035  
     576A     31.313452   577A     31.318489   578A     31.386271  
     579A     42.624757   580A     43.558569   581A     43.634062  
     582A     43.881457   583A     45.782426   584A     68.528533  
     585A    160.348916   586A    160.455730   587A    160.469467  
     588A    160.483445  

    Final Occupation by Irrep:
              A 
    DOCC [     5 ]

  @DF-RHF Final Energy:   -76.06586412126167

   => Energetics <=

    Nuclear Repulsion Energy =              9.1853250240414184
    One-Electron Energy =                -123.0526918733624058
    Two-Electron Energy =                  37.8015027280593259
    Total Energy =                        -76.0658641212616544

Computation Completed


Properties will be evaluated at   0.000000,   0.000000,  -0.000000 [a0]

Properties computed using the SCF density matrix

  Nuclear Dipole Moment: [e a0]
     X:    24.7639      Y:    13.5310      Z:   -52.0301

  Electronic Dipole Moment: [e a0]
     X:   -25.2952      Y:   -13.6558      Z:    51.5110

  Dipole Moment: [e a0]
     X:    -0.5312      Y:    -0.1248      Z:    -0.5191     Total:     0.7532

  Dipole Moment: [D]
     X:    -1.3503      Y:    -0.3172      Z:    -1.3194     Total:     1.9143


*** tstop() called on node37.bme.utexas.edu at Tue Feb 22 19:37:06 2022
Module time:
	user time   =     183.02 seconds =       3.05 minutes
	system time =      43.73 seconds =       0.73 minutes
	total time  =         90 seconds =       1.50 minutes
Total time:
	user time   =     262.27 seconds =       4.37 minutes
	system time =      48.49 seconds =       0.81 minutes
	total time  =        121 seconds =       2.02 minutes

*** tstart() called on node37.bme.utexas.edu
*** at Tue Feb 22 19:37:06 2022


  //>>>>>>>>>>>>>>>>>>>>>>>>>>>>>>>>>>>//
  //               DFMP2               //
  //<<<<<<<<<<<<<<<<<<<<<<<<<<<<<<<<<<<//

   => Loading Basis Set <=

    Name: (AUG-CC-PVQZ AUX)
    Role: RIFIT
    Keyword: DF_BASIS_MP2
    atoms 1-4 entry CL         line   914 file /home/bdw2292/miniconda3/envs/amoebamdpoltype/share/psi4/basis/aug-cc-pvqz-ri.gbs 
    atoms 5   entry C          line   184 file /home/bdw2292/miniconda3/envs/amoebamdpoltype/share/psi4/basis/aug-cc-pvqz-ri.gbs 
    atoms 6   entry O          line   332 file /home/bdw2292/miniconda3/envs/amoebamdpoltype/share/psi4/basis/aug-cc-pvqz-ri.gbs 
    atoms 7-8 entry H          line    30 file /home/bdw2292/miniconda3/envs/amoebamdpoltype/share/psi4/basis/aug-cc-pvqz-ri.gbs 

	 --------------------------------------------------------
	                          DF-MP2                         
	      2nd-Order Density-Fitted Moller-Plesset Theory     
	              RMP2 Wavefunction,   4 Threads             
	                                                         
	        Rob Parrish, Justin Turney, Andy Simmonett,      
	           Ed Hohenstein, and C. David Sherrill          
	 --------------------------------------------------------

   => Auxiliary Basis Set <=

  Basis Set: (AUG-CC-PVQZ AUX)
    Blend: AUG-CC-PVQZ-RI
    Number of shells: 288
    Number of basis function: 1272
    Number of Cartesian functions: 1756
    Spherical Harmonics?: true
    Max angular momentum: 5

	 --------------------------------------------------------
	                 NBF =   588, NAUX =  1272
	 --------------------------------------------------------
	   CLASS    FOCC     OCC    AOCC    AVIR     VIR    FVIR
	   PAIRS       1       5       4     583     583       0
	 --------------------------------------------------------

	-----------------------------------------------------------
	 ==================> DF-MP2 Energies <==================== 
	-----------------------------------------------------------
	 Reference Energy          =     -76.0658641212616686 [Eh]
	 Singles Energy            =      -0.0000000000000000 [Eh]
	 Same-Spin Energy          =      -0.0671658231433827 [Eh]
	 Opposite-Spin Energy      =      -0.2185996964807204 [Eh]
	 Correlation Energy        =      -0.2857655196241031 [Eh]
	 Total Energy              =     -76.3516296408857755 [Eh]
	-----------------------------------------------------------
	 ================> DF-SCS-MP2 Energies <================== 
	-----------------------------------------------------------
	 SCS Same-Spin Scale       =       0.3333333333333333 [-]
	 SCS Opposite-Spin Scale   =       1.2000000000000000 [-]
	 SCS Same-Spin Energy      =      -0.0223886077144609 [Eh]
	 SCS Opposite-Spin Energy  =      -0.2623196357768645 [Eh]
	 SCS Correlation Energy    =      -0.2847082434913254 [Eh]
	 SCS Total Energy          =     -76.3505723647529919 [Eh]
	-----------------------------------------------------------


*** tstop() called on node37.bme.utexas.edu at Tue Feb 22 19:37:28 2022
Module time:
	user time   =      62.19 seconds =       1.04 minutes
	system time =       3.51 seconds =       0.06 minutes
	total time  =         22 seconds =       0.37 minutes
Total time:
	user time   =     324.46 seconds =       5.41 minutes
	system time =      52.00 seconds =       0.87 minutes
	total time  =        143 seconds =       2.38 minutes

  //>>>>>>>>>>>>>>>>>>>>>>>>>>>>>>>>>>>//
  //  CBS Results: mp2/aug-cc-pV[TQ]Z  //
  //<<<<<<<<<<<<<<<<<<<<<<<<<<<<<<<<<<<//


   ==> HF <==

   HI-zeta (4) Energy:               -76.065864121262


   ==> Helgaker 2-point correlated extrapolation for method: MP2 <==

   LO-zeta (3) Energy:               -76.328763158444
   HI-zeta (4) Energy:               -76.351629640886
   Alpha (exponent) Value:             3.000000000000
   Extrapolated Energy:              -76.368315992938

   @Extrapolated MP2/(T,Q):          -76.368315992938



   ==> Helgaker 2-point correlated extrapolation for method: HF <==

   LO-zeta (3) Energy:               -76.060497098684
   HI-zeta (4) Energy:               -76.065864121262
   Alpha (exponent) Value:             3.000000000000
   Extrapolated Energy:              -76.069780597197

   @Extrapolated HF/(T,Q):           -76.069780597197


   ==> Components <==

  ---------------------------------------------------------------------------------------------------------
                          Method / Basis                      Rqd      Energy [Eh]   Variable
  ---------------------------------------------------------------------------------------------------------
                              hf / aug-cc-pvtz                  *     -76.06049710   HF TOTAL ENERGY
                             mp2 / aug-cc-pvtz                  *     -76.32876316   MP2 TOTAL ENERGY
                              hf / aug-cc-pvqz                  *     -76.06586412   HF TOTAL ENERGY
                             mp2 / aug-cc-pvqz                  *     -76.35162964   MP2 TOTAL ENERGY
  ---------------------------------------------------------------------------------------------------------

   ==> Stages <==

  ---------------------------------------------------------------------------------------------------------
      Stage               Method / Basis                       Wt      Energy [Eh]   Scheme
  ---------------------------------------------------------------------------------------------------------
        scf                   hf / aug-cc-pvqz                  1     -76.06586412   xtpl_highest_1
       corl                  mp2 / aug-cc-pv[tq]z               1     -76.36831599   corl_xtpl_helgaker_2
       corl                   hf / aug-cc-pv[tq]z              -1     -76.06978060   corl_xtpl_helgaker_2
  ---------------------------------------------------------------------------------------------------------

   ==> CBS <==

  ---------------------------------------------------------------------------------------------------------
      Stage               Method / Basis                               Energy [Eh]   Scheme
  ---------------------------------------------------------------------------------------------------------
        scf                   hf / aug-cc-pvqz                        -76.06586412   xtpl_highest_1
[...]
     139A      0.761232   140A      0.771082   141A      0.776681  
     142A      0.781340   143A      0.790633   144A      0.795183  
     145A      0.809311   146A      0.813356   147A      0.818351  
     148A      0.837673   149A      0.860392   150A      0.863703  
     151A      0.877324   152A      0.883824   153A      0.886501  
     154A      0.891436   155A      0.902489   156A      0.911403  
     157A      0.919885   158A      0.936922   159A      0.945219  
     160A      0.957536   161A      0.973385   162A      1.007583  
     163A      1.015298   164A      1.039277   165A      1.055038  
     166A      1.056471   167A      1.073829   168A      1.084890  
     169A      1.088463   170A      1.094982   171A      1.107686  
     172A      1.109962   173A      1.114099   174A      1.129838  
     175A      1.144883   176A      1.151322   177A      1.157723  
     178A      1.161185   179A      1.170802   180A      1.175566  
     181A      1.179425   182A      1.182798   183A      1.190891  
     184A      1.200336   185A      1.204771   186A      1.208925  
     187A      1.210045   188A      1.216727   189A      1.230034  
     190A      1.232223   191A      1.254293   192A      1.261923  
     193A      1.276524   194A      1.280507   195A      1.292548  
     196A      1.301033   197A      1.312641   198A      1.321687  
     199A      1.331344   200A      1.336072   201A      1.353357  
     202A      1.368109   203A      1.404090   204A      1.423801  
     205A      1.436523   206A      1.452878   207A      1.461960  
     208A      1.476734   209A      1.485124   210A      1.541549  
     211A      1.554562   212A      1.578328   213A      1.594953  
     214A      1.601762   215A      1.623243   216A      1.638705  
     217A      1.658182   218A      1.670287   219A      1.673494  
     220A      1.688906   221A      1.708271   222A      1.717689  
     223A      1.726562   224A      1.730841   225A      1.749655  
     226A      1.755697   227A      1.769458   228A      1.772847  
     229A      1.782513   230A      1.787615   231A      1.793650  
     232A      1.801939   233A      1.807958   234A      1.813592  
     235A      1.818409   236A      1.826427   237A      1.836574  
     238A      1.842536   239A      1.849639   240A      1.862073  
     241A      1.874240   242A      1.883377   243A      1.901102  
     244A      1.907404   245A      1.916446   246A      1.924093  
     247A      1.946747   248A      1.954828   249A      1.956569  
     250A      1.971757   251A      1.979933   252A      1.996668  
     253A      2.000219   254A      2.011401   255A      2.016961  
     256A      2.035597   257A      2.043180   258A      2.046074  
     259A      2.058423   260A      2.060190   261A      2.084523  
     262A      2.095620   263A      2.100808   264A      2.107548  
     265A      2.110077   266A      2.118048   267A      2.121422  
     268A      2.127895   269A      2.134628   270A      2.139964  
     271A      2.152156   272A      2.155101   273A      2.173621  
     274A      2.179736   275A      2.198903   276A      2.206537  
     277A      2.228503   278A      2.229253   279A      2.234056  
     280A      2.237799   281A      2.240270   282A      2.247047  
     283A      2.248215   284A      2.260825   285A      2.265797  
     286A      2.275310   287A      2.285625   288A      2.294088  
     289A      2.307063   290A      2.311890   291A      2.318717  
     292A      2.334443   293A      2.337053   294A      2.350604  
     295A      2.363660   296A      2.382746   297A      2.393895  
     298A      2.399207   299A      2.422265   300A      2.433434  
     301A      2.451520   302A      2.460760   303A      2.465814  
     304A      2.477743   305A      2.485551   306A      2.487616  
     307A      2.493311   308A      2.504159   309A      2.522297  
     310A      2.528333   311A      2.539141   312A      2.552921  
     313A      2.567661   314A      2.580833   315A      2.584777  
     316A      2.615729   317A      2.626866   318A      2.630081  
     319A      2.656500   320A      2.673826   321A      2.676252  
     322A      2.680105   323A      2.708509   324A      2.726719  
     325A      2.741160   326A      2.763735   327A      2.790830  
     328A      2.806654   329A      2.848361   330A      2.874695  
     331A      2.893412   332A      2.907858   333A      2.919187  
     334A      2.936679   335A      2.945028   336A      2.971779  
     337A      2.975502   338A      2.991780   339A      2.993637  
     340A      3.018356   341A      3.026786   342A      3.068099  
     343A      3.118976   344A      3.152201   345A      3.189773  
     346A      3.205998   347A      3.240877   348A      3.243997  
     349A      3.253529   350A      3.255528   351A      3.261542  
     352A      3.286300   353A      3.342257   354A      3.379284  
     355A      3.399257   356A      3.425508   357A      3.438001  
     358A      3.445198   359A      3.446912   360A      3.470905  
     361A      3.486796   362A      3.537429   363A      3.542636  
     364A      3.552271   365A      3.560777   366A      3.597138  
     367A      3.599339   368A      3.604145   369A      3.624974  
     370A      3.647213   371A      3.679331   372A      3.755155  
     373A      3.761451   374A      3.803026   375A      3.851342  
     376A      3.890672   377A      3.986261   378A      4.007317  
     379A      4.030610   380A      4.069410   381A      4.102160  
     382A      4.184385   383A      4.196241   384A      4.221087  
     385A      4.245920   386A      4.262864   387A      4.273507  
     388A      4.345125   389A      4.405779   390A      4.437268  
     391A      4.466115   392A      4.480255   393A      4.486195  
     394A      4.502604   395A      4.512544   396A      4.531709  
     397A      4.564975   398A      4.590684   399A      4.595984  
     400A      4.621525   401A      4.640242   402A      4.643742  
     403A      4.657464   404A      4.687195   405A      4.706860  
     406A      4.712995   407A      4.713814   408A      4.727117  
     409A      4.731658   410A      4.741654   411A      4.745603  
     412A      4.752774   413A      4.757552   414A      4.759157  
     415A      4.761673   416A      4.770360   417A      4.778242  
     418A      4.784425   419A      4.788973   420A      4.791960  
     421A      4.799407   422A      4.813155   423A      4.822601  
     424A      4.831439   425A      4.839150   426A      4.848532  
     427A      4.851135   428A      4.862792   429A      4.869434  
     430A      4.877054   431A      4.880195   432A      4.883657  
     433A      4.885438   434A      4.896117   435A      4.900550  
     436A      4.905899   437A      4.924917   438A      4.927860  
     439A      4.933198   440A      4.936941   441A      4.948154  
     442A      4.958611   443A      4.962635   444A      4.966914  
     445A      4.973893   446A      4.980331   447A      4.987848  
     448A      4.994564   449A      5.008429   450A      5.027079  
     451A      5.032985   452A      5.040861   453A      5.068628  
     454A      5.072376   455A      5.080174   456A      5.097303  
     457A      5.105854   458A      5.114997   459A      5.126412  
     460A      5.149671   461A      5.153726   462A      5.169208  
     463A      5.191279   464A      5.204749   465A      5.235679  
     466A      5.293743   467A      5.301313   468A      5.312186  
     469A      5.340989   470A      5.363594   471A      5.387200  
     472A      5.394099   473A      5.415221   474A      5.424053  
     475A      5.428114   476A      5.443322   477A      5.476829  
     478A      5.499577   479A      5.546954   480A      5.555819  
     481A      5.616806   482A      5.627428   483A      5.668164  
     484A      5.674561   485A      5.719354   486A      5.837489  
     487A      5.958230   488A      6.077360   489A      6.204534  
     490A      6.449699   491A      6.677356   492A      6.688570  
     493A      6.691704   494A      6.694842   495A      6.703876  
     496A      6.722510   497A      6.741904   498A      6.778020  
     499A      6.786690   500A      6.839236   501A      6.851388  
     502A      6.873241   503A      6.895333   504A      6.906507  
     505A      6.941250   506A      6.977358   507A      7.005283  
     508A      7.038749   509A      7.093260   510A      7.117655  
     511A      7.127045   512A      7.213610   513A      7.218535  
     514A      7.267145   515A      7.308811   516A      7.315084  
     517A      7.348383   518A      7.362296   519A      7.400606  
     520A      7.562983   521A      7.752468   522A      7.759042  
     523A      7.768841   524A      7.793130   525A      7.831260  
     526A      7.838568   527A      7.841777   528A      7.870731  
     529A      7.882422   530A      7.915235   531A      7.944356  
     532A      7.990562   533A      8.087275   534A      8.119013  
     535A      8.239095   536A      8.512082   537A      8.521775  
     538A      8.531291   539A      8.581088   540A      8.698049  
     541A      8.709698   542A      8.794395   543A      8.841876  
     544A      8.864195   545A      8.949764   546A      8.984697  
     547A      9.066230   548A      9.141771   549A      9.224731  
     550A      9.614348   551A      9.931417   552A     10.047334  
     553A     10.100168   554A     10.126830   555A     10.522779  
     556A     10.553632   557A     10.852787   558A     11.052667  
     559A     11.088217   560A     11.267409   561A     11.365814  
     562A     11.416797   563A     11.512952   564A     11.760425  
     565A     11.904446   566A     11.914705   567A     12.062402  
     568A     12.246046   569A     12.297876   570A     12.669215  
     571A     12.793367   572A     12.918126   573A     12.947083  
     574A     13.264433   575A     14.025139   576A     14.173122  
     577A     14.503996   578A     14.864368   579A     14.912477  
     580A     15.351744   581A     17.081592   582A     17.398970  
     583A     24.915342   584A     26.803084   585A     26.825695  
     586A     26.981483   587A     27.193558   588A     45.785825  

    Final Occupation by Irrep:
              A 
    DOCC [    42 ]

  @DF-RHF Final Energy: -1951.99544333636436

   => Energetics <=

    Nuclear Repulsion Energy =            555.4014872364454050
    One-Electron Energy =               -3804.3013488639658135
    Two-Electron Energy =                1296.9044182911559346
    Total Energy =                      -1951.9954433363643602

Computation Completed


Properties will be evaluated at   0.000000,   0.000000,  -0.000000 [a0]

Properties computed using the SCF density matrix

  Nuclear Dipole Moment: [e a0]
     X:     2.4563      Y:     1.5218      Z:    -6.9346

  Electronic Dipole Moment: [e a0]
     X:    -2.8844      Y:    -1.5744      Z:     6.4723

  Dipole Moment: [e a0]
     X:    -0.4281      Y:    -0.0526      Z:    -0.4623     Total:     0.6323

  Dipole Moment: [D]
     X:    -1.0882      Y:    -0.1338      Z:    -1.1751     Total:     1.6071


*** tstop() called on node37.bme.utexas.edu at Tue Feb 22 19:42:40 2022
Module time:
	user time   =     248.33 seconds =       4.14 minutes
	system time =      46.57 seconds =       0.78 minutes
	total time  =        105 seconds =       1.75 minutes
Total time:
	user time   =    1137.44 seconds =      18.96 minutes
	system time =     159.57 seconds =       2.66 minutes
	total time  =        455 seconds =       7.58 minutes

*** tstart() called on node37.bme.utexas.edu
*** at Tue Feb 22 19:42:40 2022


  //>>>>>>>>>>>>>>>>>>>>>>>>>>>>>>>>>>>//
  //               DFMP2               //
  //<<<<<<<<<<<<<<<<<<<<<<<<<<<<<<<<<<<//

   => Loading Basis Set <=

    Name: (AUG-CC-PVQZ AUX)
    Role: RIFIT
    Keyword: DF_BASIS_MP2
    atoms 1-4 entry CL         line   914 file /home/bdw2292/miniconda3/envs/amoebamdpoltype/share/psi4/basis/aug-cc-pvqz-ri.gbs 
    atoms 5   entry C          line   184 file /home/bdw2292/miniconda3/envs/amoebamdpoltype/share/psi4/basis/aug-cc-pvqz-ri.gbs 
    atoms 6   entry O          line   332 file /home/bdw2292/miniconda3/envs/amoebamdpoltype/share/psi4/basis/aug-cc-pvqz-ri.gbs 
    atoms 7-8 entry H          line    30 file /home/bdw2292/miniconda3/envs/amoebamdpoltype/share/psi4/basis/aug-cc-pvqz-ri.gbs 

	 --------------------------------------------------------
	                          DF-MP2                         
	      2nd-Order Density-Fitted Moller-Plesset Theory     
	              RMP2 Wavefunction,   4 Threads             
	                                                         
	        Rob Parrish, Justin Turney, Andy Simmonett,      
	           Ed Hohenstein, and C. David Sherrill          
	 --------------------------------------------------------

   => Auxiliary Basis Set <=

  Basis Set: (AUG-CC-PVQZ AUX)
    Blend: AUG-CC-PVQZ-RI
    Number of shells: 288
    Number of basis function: 1272
    Number of Cartesian functions: 1756
    Spherical Harmonics?: true
    Max angular momentum: 5

	 --------------------------------------------------------
	                 NBF =   588, NAUX =  1272
	 --------------------------------------------------------
	   CLASS    FOCC     OCC    AOCC    AVIR     VIR    FVIR
	   PAIRS      22      42      20     546     546       0
	 --------------------------------------------------------

	-----------------------------------------------------------
	 ==================> DF-MP2 Energies <==================== 
	-----------------------------------------------------------
	 Reference Energy          =   -1951.9954433363643602 [Eh]
	 Singles Energy            =      -0.0000000000000000 [Eh]
	 Same-Spin Energy          =      -0.3243564145886334 [Eh]
	 Opposite-Spin Energy      =      -0.9934110382517439 [Eh]
	 Correlation Energy        =      -1.3177674528403773 [Eh]
	 Total Energy              =   -1953.3132107892047316 [Eh]
	-----------------------------------------------------------
	 ================> DF-SCS-MP2 Energies <================== 
	-----------------------------------------------------------
	 SCS Same-Spin Scale       =       0.3333333333333333 [-]
	 SCS Opposite-Spin Scale   =       1.2000000000000000 [-]
	 SCS Same-Spin Energy      =      -0.1081188048628778 [Eh]
	 SCS Opposite-Spin Energy  =      -1.1920932459020928 [Eh]
	 SCS Correlation Energy    =      -1.3002120507649706 [Eh]
	 SCS Total Energy          =   -1953.2956553871292726 [Eh]
	-----------------------------------------------------------


*** tstop() called on node37.bme.utexas.edu at Tue Feb 22 19:43:05 2022
Module time:
	user time   =      71.61 seconds =       1.19 minutes
	system time =       7.03 seconds =       0.12 minutes
	total time  =         25 seconds =       0.42 minutes
Total time:
	user time   =    1209.05 seconds =      20.15 minutes
	system time =     166.60 seconds =       2.78 minutes
	total time  =        480 seconds =       8.00 minutes

  //>>>>>>>>>>>>>>>>>>>>>>>>>>>>>>>>>>>//
  //  CBS Results: mp2/aug-cc-pV[TQ]Z  //
  //<<<<<<<<<<<<<<<<<<<<<<<<<<<<<<<<<<<//


   ==> HF <==

   HI-zeta (4) Energy:               -1951.995443336364


   ==> Helgaker 2-point correlated extrapolation for method: MP2 <==

   LO-zeta (3) Energy:               -1953.197709049272
   HI-zeta (4) Energy:               -1953.313210789205
   Alpha (exponent) Value:             3.000000000000
   Extrapolated Energy:              -1953.397495842669

   @Extrapolated MP2/(T,Q):          -1953.397495842669



   ==> Helgaker 2-point correlated extrapolation for method: HF <==

   LO-zeta (3) Energy:               -1951.972846485818
   HI-zeta (4) Energy:               -1951.995443336364
   Alpha (exponent) Value:             3.000000000000
   Extrapolated Energy:              -1952.011932930006

   @Extrapolated HF/(T,Q):           -1952.011932930006


   ==> Components <==

  ---------------------------------------------------------------------------------------------------------
                          Method / Basis                      Rqd      Energy [Eh]   Variable
  ---------------------------------------------------------------------------------------------------------
                              hf / aug-cc-pvtz                  *   -1951.97284649   HF TOTAL ENERGY
                             mp2 / aug-cc-pvtz                  *   -1953.19770905   MP2 TOTAL ENERGY
                              hf / aug-cc-pvqz                  *   -1951.99544334   HF TOTAL ENERGY
                             mp2 / aug-cc-pvqz                  *   -1953.31321079   MP2 TOTAL ENERGY
  ---------------------------------------------------------------------------------------------------------

   ==> Stages <==

  ---------------------------------------------------------------------------------------------------------
      Stage               Method / Basis                       Wt      Energy [Eh]   Scheme
  ---------------------------------------------------------------------------------------------------------
        scf                   hf / aug-cc-pvqz                  1   -1951.99544334   xtpl_highest_1
       corl                  mp2 / aug-cc-pv[tq]z               1   -1953.39749584   corl_xtpl_helgaker_2
       corl                   hf / aug-cc-pv[tq]z              -1   -1952.01193293   corl_xtpl_helgaker_2
  ---------------------------------------------------------------------------------------------------------

   ==> CBS <==

  ---------------------------------------------------------------------------------------------------------
      Stage               Method / Basis                               Energy [Eh]   Scheme
  ---------------------------------------------------------------------------------------------------------
        scf                   hf / aug-cc-pvqz                      -1951.99544334   xtpl_highest_1
       corl                  mp2 / aug-cc-pv[tq]z                      -1.38556291   corl_xtpl_helgaker_2
      total                  CBS                                    -1953.38100625   
  ---------------------------------------------------------------------------------------------------------
   => Loading Basis Set <=

    Name: DEF2-SVP
    Role: ORBITAL
    Keyword: BASIS
    atoms 1-4 entry CL         line   356 file /home/bdw2292/miniconda3/envs/amoebamdpoltype/share/psi4/basis/def2-svp.gbs 
    atoms 5   entry C          line    90 file /home/bdw2292/miniconda3/envs/amoebamdpoltype/share/psi4/basis/def2-svp.gbs 
    atoms 6   entry O          line   130 file /home/bdw2292/miniconda3/envs/amoebamdpoltype/share/psi4/basis/def2-svp.gbs 
    atoms 7-8 entry H          line    15 file /home/bdw2292/miniconda3/envs/amoebamdpoltype/share/psi4/basis/def2-svp.gbs 


       N-Body: Complex Energy (fragments = (1, 2), basis = (1, 2): -1953.38100624902700)

   ==> N-Body: Counterpoise Corrected (CP) energies <==

   n-Body     Total Energy [Eh]       I.E. [kcal/mol]      Delta [kcal/mol]
        1    -1953.379179633477        0.000000000000        0.000000000000
        2    -1953.380767088684       -0.996143181636       -0.996143181636

   => Loading Basis Set <=

    Name: DEF2-SVP
    Role: ORBITAL
    Keyword: BASIS
    atoms 1-4 entry CL         line   356 file /home/bdw2292/miniconda3/envs/amoebamdpoltype/share/psi4/basis/def2-svp.gbs 
    atoms 5   entry C          line    90 file /home/bdw2292/miniconda3/envs/amoebamdpoltype/share/psi4/basis/def2-svp.gbs 
    atoms 6   entry O          line   130 file /home/bdw2292/miniconda3/envs/amoebamdpoltype/share/psi4/basis/def2-svp.gbs 
    atoms 7-8 entry H          line    15 file /home/bdw2292/miniconda3/envs/amoebamdpoltype/share/psi4/basis/def2-svp.gbs 

CP Energy =  -0.001587
    Psi4 stopped on: Tuesday, 22 February 2022 07:43PM
    Psi4 wall time for execution: 0:08:01.13

*** Psi4 exiting successfully. Buy a developer a beer!
