
    -----------------------------------------------------------------------
          Psi4: An Open-Source Ab Initio Electronic Structure Package
                               Psi4 1.3.2 release

                         Git: Rev {HEAD} ecbda83 


    R. M. Parrish, L. A. Burns, D. G. A. Smith, A. C. Simmonett,
    A. E. DePrince III, E. G. Hohenstein, U. Bozkaya, A. Yu. Sokolov,
    R. Di Remigio, R. M. Richard, J. F. Gonthier, A. M. James,
    H. R. McAlexander, A. Kumar, M. Saitow, X. Wang, B. P. Pritchard,
    P. Verma, H. F. Schaefer III, K. Patkowski, R. A. King, E. F. Valeev,
    F. A. Evangelista, J. M. Turney, T. D. Crawford, and C. D. Sherrill,
    J. Chem. Theory Comput. 13(7) pp 3185--3197 (2017).
    (doi: 10.1021/acs.jctc.7b00174)


                         Additional Contributions by
    P. Kraus, H. Kruse, M. H. Lechner, M. C. Schieber, R. A. Shaw,
    A. Alenaizan, R. Galvelis, Z. L. Glick, S. Lehtola, and J. P. Misiewicz

    -----------------------------------------------------------------------


    Psi4 started on: Tuesday, 22 February 2022 09:09PM

    Process ID: 15858
    Host:       node37.bme.utexas.edu
    PSIDATADIR: /home/bdw2292/miniconda3/envs/amoebamdpoltype/share/psi4
    Memory:     500.0 MiB
    Threads:    1
    
  ==> Input File <==

--------------------------------------------------------------------------
molecule { 
0 1
 Cl                 -1.5149002    -0.4329419     0.6007099
 Cl                 -1.6714920     1.8711931    -1.1316761
 Cl                 -2.5967290    -0.7042083    -2.0629299
 Cl                  0.2287502    -0.2297564    -1.6989855
  C                 -1.3875751     0.1256205    -1.0727028
--
0 1
 Cl                  1.0886878    -1.8050323     3.9032094
 Cl                  2.6641326    -0.2921617     2.0083735
 Cl                  1.8754557    -3.0067691     1.3921703
 Cl                  3.8513829    -2.5033644     3.4377463
  C                  2.3681138    -1.9011782     2.6835479
}
memory 15GB
set_num_threads(4)
psi4_io.set_default_path("/scratch/bdw2292/Psi4-CCl4")
set maxiter 500
set freeze_core True
set PROPERTIES_ORIGIN ["COM"]
e_dim= energy('mp2/aug-cc-pV[TQ]Z',bsse_type='cp')

psi4.print_out('CP Energy = %10.6f' % (e_dim))
clean()
--------------------------------------------------------------------------

  Memory set to  13.970 GiB by Python driver.
  Threads set to 4 by Python driver.


   ===> N-Body Interaction Abacus <===
        BSSE Treatment:                     cp
        Number of 1-body computations:     4
        Number of 2-body computations:     1

   ==> N-Body: Now computing 1-body complexes <==


       N-Body: Computing complex (1/4) with fragments (2,) in the basis of fragments (2,).


  //>>>>>>>>>>>>>>>>>>>>>>>>>>>>>>>>>>>//
  //   CBS Setup: mp2/aug-cc-pV[TQ]Z   //
  //<<<<<<<<<<<<<<<<<<<<<<<<<<<<<<<<<<<//

    Naive listing of computations required.
             hf / aug-cc-pvqz              for  HF TOTAL ENERGY
            mp2 / aug-cc-pvtz              for  MP2 TOTAL ENERGY
            mp2 / aug-cc-pvqz              for  MP2 TOTAL ENERGY
             hf / aug-cc-pvtz              for  HF TOTAL ENERGY
             hf / aug-cc-pvqz              for  HF TOTAL ENERGY

    Enlightened listing of computations required.
            mp2 / aug-cc-pvtz              for  MP2 TOTAL ENERGY
            mp2 / aug-cc-pvqz              for  MP2 TOTAL ENERGY

    Full listing of computations to be obtained (required and bonus).
             hf / aug-cc-pvtz              for  HF TOTAL ENERGY
            mp2 / aug-cc-pvtz              for  MP2 TOTAL ENERGY
             hf / aug-cc-pvqz              for  HF TOTAL ENERGY
            mp2 / aug-cc-pvqz              for  MP2 TOTAL ENERGY

  //>>>>>>>>>>>>>>>>>>>>>>>>>>>>>>>>>>>>//
  // CBS Computation: MP2 / AUG-CC-PVTZ //
  //<<<<<<<<<<<<<<<<<<<<<<<<<<<<<<<<<<<<//

    SCF Algorithm Type (re)set to DF.

*** tstart() called on node37.bme.utexas.edu
*** at Tue Feb 22 21:09:17 2022

   => Loading Basis Set <=

    Name: AUG-CC-PVTZ
    Role: ORBITAL
    Keyword: BASIS
    atoms 1-4 entry CL         line   984 file /home/bdw2292/miniconda3/envs/amoebamdpoltype/share/psi4/basis/aug-cc-pvtz.gbs 
    atoms 5   entry C          line   235 file /home/bdw2292/miniconda3/envs/amoebamdpoltype/share/psi4/basis/aug-cc-pvtz.gbs 


         ---------------------------------------------------------
                                   SCF
               by Justin Turney, Rob Parrish, Andy Simmonett
                          and Daniel G. A. Smith
                              RHF Reference
                        4 Threads,  14305 MiB Core
         ---------------------------------------------------------

  ==> Geometry <==

    Molecular point group: c1
    Full point group: C1

    Geometry (in Angstrom), charge = 0, multiplicity = 1:

       Center              X                  Y                   Z               Mass       
    ------------   -----------------  -----------------  -----------------  -----------------
         CL           0.598057745101    -0.917160176954     3.097183890755    34.968852682000
         CL           2.173502545101     0.595710423046     1.202347990755    34.968852682000
         CL           1.384825645101    -2.118896976954     0.586144790755    34.968852682000
         CL           3.360752845101    -1.615492276954     2.631720790755    34.968852682000
         C            1.877483745101    -1.013306076954     1.877522390755    12.000000000000

  Running in c1 symmetry.

  Rotational constants: A =      0.05763  B =      0.01109  C =      0.01108 [cm^-1]
  Rotational constants: A =   1727.77666  B =    332.36592  C =    332.30720 [MHz]
  Nuclear repulsion =  439.464154281299670

  Charge       = 0
  Multiplicity = 1
  Electrons    = 74
  Nalpha       = 37
  Nbeta        = 37

  ==> Algorithm <==

  SCF Algorithm Type is DF.
  DIIS enabled.
  MOM disabled.
  Fractional occupation disabled.
  Guess Type is SAD.
  Energy threshold   = 1.00e-08
  Density threshold  = 1.00e-08
  Integral threshold = 0.00e+00

  ==> Primary Basis <==

  Basis Set: AUG-CC-PVTZ
    Blend: AUG-CC-PVTZ
    Number of shells: 78
    Number of basis function: 246
    Number of Cartesian functions: 291
    Spherical Harmonics?: true
    Max angular momentum: 3

   => Loading Basis Set <=

    Name: (AUG-CC-PVTZ AUX)
    Role: JKFIT
    Keyword: DF_BASIS_SCF
    atoms 1-4 entry CL         line   816 file /home/bdw2292/miniconda3/envs/amoebamdpoltype/share/psi4/basis/aug-cc-pvtz-jkfit.gbs 
    atoms 5   entry C          line   162 file /home/bdw2292/miniconda3/envs/amoebamdpoltype/share/psi4/basis/aug-cc-pvtz-jkfit.gbs 

  ==> Pre-Iterations <==

   -------------------------------------------------------
    Irrep   Nso     Nmo     Nalpha   Nbeta   Ndocc  Nsocc
   -------------------------------------------------------
     A        246     246       0       0       0       0
   -------------------------------------------------------
    Total     246     246      37      37      37       0
   -------------------------------------------------------

  ==> Integral Setup <==

  DFHelper Memory: AOs need 0.328 GiB; user supplied 10.477 GiB. Using in-core AOs.

  ==> MemDFJK: Density-Fitted J/K Matrices <==

    J tasked:                   Yes
    K tasked:                   Yes
    wK tasked:                   No
    OpenMP threads:               4
    Memory [MiB]:             10728
    Algorithm:                 Core
    Schwarz Cutoff:           1E-12
    Mask sparsity (%):       0.0000
    Fitting Condition:        1E-10

   => Auxiliary Basis Set <=

  Basis Set: (AUG-CC-PVTZ AUX)
    Blend: AUG-CC-PVTZ-JKFIT
    Number of shells: 198
    Number of basis function: 688
    Number of Cartesian functions: 851
    Spherical Harmonics?: true
    Max angular momentum: 4

  Minimum eigenvalue in the overlap matrix is 8.0653694344E-05.
  Using Symmetric Orthogonalization.

  SCF Guess: Superposition of Atomic Densities via on-the-fly atomic UHF.

  ==> Iterations <==

                           Total Energy        Delta E     RMS |[F,P]|

   @DF-RHF iter SAD: -1875.94739081311127   -1.87595e+03   0.00000e+00 
   @DF-RHF iter   1: -1875.79715760669910    1.50233e-01   1.87152e-03 DIIS
   @DF-RHF iter   2: -1875.83576534784470   -3.86077e-02   1.72633e-03 DIIS
   @DF-RHF iter   3: -1875.91353992336508   -7.77746e-02   1.84940e-04 DIIS
   @DF-RHF iter   4: -1875.91602064336621   -2.48072e-03   6.47784e-05 DIIS
   @DF-RHF iter   5: -1875.91635362300781   -3.32980e-04   1.31615e-05 DIIS
   @DF-RHF iter   6: -1875.91636982805903   -1.62051e-05   2.18486e-06 DIIS
   @DF-RHF iter   7: -1875.91637003778328   -2.09724e-07   2.46483e-07 DIIS
   @DF-RHF iter   8: -1875.91637004217387   -4.39059e-09   5.71606e-08 DIIS
   @DF-RHF iter   9: -1875.91637004239487   -2.21007e-10   1.87949e-08 DIIS
   @DF-RHF iter  10: -1875.91637004241056   -1.56888e-11   4.96382e-09 DIIS
  Energy and wave function converged.


  ==> Post-Iterations <==

    Orbital Energies [Eh]
    ---------------------

    Doubly Occupied:                                                      

       1A   -104.878877     2A   -104.878829     3A   -104.878715  
       4A   -104.878430     5A    -11.499720     6A    -10.603289  
       7A    -10.603245     8A    -10.603132     9A    -10.602885  
      10A     -8.070056    11A     -8.070013    12A     -8.069900  
      13A     -8.069652    14A     -8.067767    15A     -8.067767  
      16A     -8.067724    17A     -8.067724    18A     -8.067612  
      19A     -8.067612    20A     -8.067363    21A     -8.067363  
      22A     -1.282453    23A     -1.128490    24A     -1.128321  
      25A     -1.128008    26A     -0.834212    27A     -0.658325  
      28A     -0.658219    29A     -0.657991    30A     -0.532336  
      31A     -0.532274    32A     -0.489353    33A     -0.489212  
      34A     -0.488881    35A     -0.461024    36A     -0.460755  
      37A     -0.460677  

    Virtual:                                                              

      38A      0.047763    39A      0.070249    40A      0.070269  
      41A      0.070317    42A      0.086441    43A      0.107621  
      44A      0.107650    45A      0.107683    46A      0.120442  
      47A      0.120448    48A      0.161707    49A      0.161747  
      50A      0.161761    51A      0.181007    52A      0.181190  
      53A      0.181307    54A      0.192729    55A      0.192964  
      56A      0.193031    57A      0.211263    58A      0.260136  
      59A      0.260328    60A      0.260379    61A      0.267966  
      62A      0.318119    63A      0.318209    64A      0.318592  
      65A      0.351898    66A      0.351934    67A      0.393880  
      68A      0.394037    69A      0.394063    70A      0.414689  
      71A      0.414723    72A      0.430223    73A      0.430429  
      74A      0.430518    75A      0.498936    76A      0.499076  
      77A      0.499124    78A      0.518118    79A      0.518132  
      80A      0.518204    81A      0.521142    82A      0.523858  
      83A      0.523921    84A      0.572406    85A      0.572441  
      86A      0.572453    87A      0.734350    88A      0.745338  
      89A      0.745663    90A      0.745725    91A      0.785950  
      92A      0.786093    93A      0.786139    94A      0.817415  
      95A      0.817470    96A      0.819988    97A      0.820418  
      98A      0.820465    99A      0.830404   100A      0.831042  
     101A      0.831187   102A      0.845040   103A      0.872120  
     104A      0.872133   105A      0.872175   106A      0.904719  
     107A      0.904788   108A      0.904816   109A      0.940050  
     110A      0.940082   111A      0.957224   112A      0.957482  
     113A      0.957568   114A      1.048943   115A      1.050568  
     116A      1.051147   117A      1.051392   118A      1.081613  
     119A      1.081634   120A      1.126670   121A      1.126825  
     122A      1.127342   123A      1.128619   124A      1.161675  
     125A      1.161854   126A      1.161958   127A      1.210545  
     128A      1.211023   129A      1.211178   130A      1.314792  
     131A      1.314912   132A      1.315445   133A      1.322735  
     134A      1.322955   135A      1.342700   136A      1.511477  
     137A      1.511772   138A      1.518115   139A      1.518648  
     140A      1.518747   141A      1.564648   142A      1.564719  
     143A      1.564751   144A      1.661067   145A      1.661607  
     146A      1.663447   147A      1.673997   148A      1.746148  
     149A      1.746548   150A      1.746666   151A      1.759356  
     152A      1.759672   153A      1.759854   154A      1.874151  
     155A      1.874486   156A      1.875088   157A      1.875487  
     158A      1.888308   159A      1.889185   160A      1.889375  
     161A      1.906617   162A      1.906690   163A      1.992682  
     164A      1.992761   165A      1.993249   166A      2.274255  
     167A      2.500402   168A      2.500466   169A      2.579336  
     170A      2.580106   171A      2.580345   172A      2.586885  
     173A      2.586992   174A      2.587055   175A      2.611730  
     176A      2.611862   177A      2.613830   178A      2.613946  
     179A      2.614024   180A      2.685616   181A      2.697456  
     182A      2.697515   183A      2.697532   184A      2.717455  
     185A      2.719239   186A      2.719626   187A      2.904655  
     188A      2.904770   189A      2.905274   190A      2.984936  
     191A      2.985050   192A      2.985100   193A      3.029587  
     194A      3.035087   195A      3.035200   196A      3.073288  
     197A      3.073536   198A      3.074219   199A      3.084515  
     200A      3.085511   201A      3.088584   202A      3.096577  
     203A      3.096664   204A      3.096705   205A      3.122713  
     206A      3.140368   207A      3.148256   208A      3.148567  
     209A      3.149762   210A      3.206935   211A      3.207281  
     212A      3.207491   213A      3.215292   214A      3.215316  
     215A      3.242959   216A      3.243143   217A      3.243197  
     218A      3.348346   219A      3.349182   220A      3.349473  
     221A      3.427750   222A      3.427979   223A      3.428366  
     224A      3.535393   225A      3.535643   226A      3.771370  
     227A      3.771546   228A      3.771811   229A      3.873732  
     230A      4.006600   231A      4.007113   232A      4.008256  
     233A      4.107461   234A      4.108015   235A      4.297633  
     236A      4.297733   237A      4.297875   238A      4.723834  
     239A      4.724203   240A      4.724445   241A      4.848036  
     242A      6.591877   243A      7.634913   244A      7.636341  
     245A      7.642480   246A     10.773356  

    Final Occupation by Irrep:
              A 
    DOCC [    37 ]

  @DF-RHF Final Energy: -1875.91637004241056

   => Energetics <=

    Nuclear Repulsion Energy =            439.4641542812996704
    One-Electron Energy =               -3467.4846357278775031
    Two-Electron Energy =                1152.1041114041672699
    Total Energy =                      -1875.9163700424105627

Computation Completed


Properties will be evaluated at   3.551064,  -1.916009,   3.551183 [a0]

Properties computed using the SCF density matrix

  Nuclear Dipole Moment: [e a0]
     X:    -0.0005      Y:     0.0002      Z:    -0.0005

  Electronic Dipole Moment: [e a0]
     X:    -0.0005      Y:     0.0003      Z:    -0.0012

  Dipole Moment: [e a0]
     X:    -0.0011      Y:     0.0005      Z:    -0.0017     Total:     0.0021

  Dipole Moment: [D]
     X:    -0.0027      Y:     0.0013      Z:    -0.0044     Total:     0.0053


*** tstop() called on node37.bme.utexas.edu at Tue Feb 22 21:09:22 2022
Module time:
	user time   =      17.09 seconds =       0.28 minutes
	system time =       1.20 seconds =       0.02 minutes
	total time  =          5 seconds =       0.08 minutes
Total time:
	user time   =      17.09 seconds =       0.28 minutes
	system time =       1.20 seconds =       0.02 minutes
	total time  =          5 seconds =       0.08 minutes

*** tstart() called on node37.bme.utexas.edu
*** at Tue Feb 22 21:09:22 2022


  //>>>>>>>>>>>>>>>>>>>>>>>>>>>>>>>>>>>//
  //               DFMP2               //
  //<<<<<<<<<<<<<<<<<<<<<<<<<<<<<<<<<<<//

   => Loading Basis Set <=

    Name: (AUG-CC-PVTZ AUX)
    Role: RIFIT
    Keyword: DF_BASIS_MP2
    atoms 1-4 entry CL         line   742 file /home/bdw2292/miniconda3/envs/amoebamdpoltype/share/psi4/basis/aug-cc-pvtz-ri.gbs 
    atoms 5   entry C          line   148 file /home/bdw2292/miniconda3/envs/amoebamdpoltype/share/psi4/basis/aug-cc-pvtz-ri.gbs 

	 --------------------------------------------------------
	                          DF-MP2                         
	      2nd-Order Density-Fitted Moller-Plesset Theory     
	              RMP2 Wavefunction,   4 Threads             
	                                                         
	        Rob Parrish, Justin Turney, Andy Simmonett,      
	           Ed Hohenstein, and C. David Sherrill          
	 --------------------------------------------------------

   => Auxiliary Basis Set <=

  Basis Set: (AUG-CC-PVTZ AUX)
    Blend: AUG-CC-PVTZ-RI
    Number of shells: 176
    Number of basis function: 694
    Number of Cartesian functions: 900
    Spherical Harmonics?: true
    Max angular momentum: 4

	 --------------------------------------------------------
	                 NBF =   246, NAUX =   694
	 --------------------------------------------------------
	   CLASS    FOCC     OCC    AOCC    AVIR     VIR    FVIR
	   PAIRS      21      37      16     209     209       0
	 --------------------------------------------------------

	-----------------------------------------------------------
	 ==================> DF-MP2 Energies <==================== 
	-----------------------------------------------------------
	 Reference Energy          =   -1875.9163700424105627 [Eh]
	 Singles Energy            =      -0.0000000000000000 [Eh]
	 Same-Spin Energy          =      -0.2463651759131310 [Eh]
	 Opposite-Spin Energy      =      -0.7042355715088413 [Eh]
	 Correlation Energy        =      -0.9506007474219723 [Eh]
	 Total Energy              =   -1876.8669707898325214 [Eh]
	-----------------------------------------------------------
	 ================> DF-SCS-MP2 Energies <================== 
	-----------------------------------------------------------
	 SCS Same-Spin Scale       =       0.3333333333333333 [-]
	 SCS Opposite-Spin Scale   =       1.2000000000000000 [-]
	 SCS Same-Spin Energy      =      -0.0821217253043770 [Eh]
	 SCS Opposite-Spin Energy  =      -0.8450826858106095 [Eh]
	 SCS Correlation Energy    =      -0.9272044111149865 [Eh]
	 SCS Total Energy          =   -1876.8435744535256617 [Eh]
	-----------------------------------------------------------


*** tstop() called on node37.bme.utexas.edu at Tue Feb 22 21:09:25 2022
Module time:
	user time   =       8.07 seconds =       0.13 minutes
	system time =       0.48 seconds =       0.01 minutes
	total time  =          3 seconds =       0.05 minutes
Total time:
	user time   =      25.17 seconds =       0.42 minutes
	system time =       1.68 seconds =       0.03 minutes
	total time  =          8 seconds =       0.13 minutes

  //>>>>>>>>>>>>>>>>>>>>>>>>>>>>>>>>>>>>//
  // CBS Computation: MP2 / AUG-CC-PVQZ //
  //<<<<<<<<<<<<<<<<<<<<<<<<<<<<<<<<<<<<//

    SCF Algorithm Type (re)set to DF.

*** tstart() called on node37.bme.utexas.edu
*** at Tue Feb 22 21:09:25 2022

   => Loading Basis Set <=

    Name: AUG-CC-PVQZ
    Role: ORBITAL
    Keyword: BASIS
    atoms 1-4 entry CL         line  1218 file /home/bdw2292/miniconda3/envs/amoebamdpoltype/share/psi4/basis/aug-cc-pvqz.gbs 
    atoms 5   entry C          line   299 file /home/bdw2292/miniconda3/envs/amoebamdpoltype/share/psi4/basis/aug-cc-pvqz.gbs 


         ---------------------------------------------------------
                                   SCF
               by Justin Turney, Rob Parrish, Andy Simmonett
                          and Daniel G. A. Smith
                              RHF Reference
                        4 Threads,  14305 MiB Core
         ---------------------------------------------------------

  ==> Geometry <==

    Molecular point group: c1
    Full point group: C1

    Geometry (in Angstrom), charge = 0, multiplicity = 1:

       Center              X                  Y                   Z               Mass       
    ------------   -----------------  -----------------  -----------------  -----------------
         CL           0.598057745101    -0.917160176954     3.097183890755    34.968852682000
         CL           2.173502545101     0.595710423046     1.202347990755    34.968852682000
         CL           1.384825645101    -2.118896976954     0.586144790755    34.968852682000
         CL           3.360752845101    -1.615492276954     2.631720790755    34.968852682000
         C            1.877483745101    -1.013306076954     1.877522390755    12.000000000000

  Running in c1 symmetry.

  Rotational constants: A =      0.05763  B =      0.01109  C =      0.01108 [cm^-1]
  Rotational constants: A =   1727.77666  B =    332.36592  C =    332.30720 [MHz]
  Nuclear repulsion =  439.464154281299670

  Charge       = 0
  Multiplicity = 1
  Electrons    = 74
  Nalpha       = 37
  Nbeta        = 37

  ==> Algorithm <==

  SCF Algorithm Type is DF.
  DIIS enabled.
  MOM disabled.
  Fractional occupation disabled.
  Guess Type is SAD.
  Energy threshold   = 1.00e-08
  Density threshold  = 1.00e-08
  Integral threshold = 0.00e+00

  ==> Primary Basis <==

  Basis Set: AUG-CC-PVQZ
    Blend: AUG-CC-PVQZ
    Number of shells: 108
    Number of basis function: 416
    Number of Cartesian functions: 541
    Spherical Harmonics?: true
    Max angular momentum: 4

   => Loading Basis Set <=

    Name: (AUG-CC-PVQZ AUX)
    Role: JKFIT
    Keyword: DF_BASIS_SCF
    atoms 1-4 entry CL         line   904 file /home/bdw2292/miniconda3/envs/amoebamdpoltype/share/psi4/basis/aug-cc-pvqz-jkfit.gbs 
    atoms 5   entry C          line   178 file /home/bdw2292/miniconda3/envs/amoebamdpoltype/share/psi4/basis/aug-cc-pvqz-jkfit.gbs 

  ==> Pre-Iterations <==

   -------------------------------------------------------
    Irrep   Nso     Nmo     Nalpha   Nbeta   Ndocc  Nsocc
   -------------------------------------------------------
     A        416     416       0       0       0       0
   -------------------------------------------------------
    Total     416     416      37      37      37       0
   -------------------------------------------------------

  ==> Integral Setup <==

  DFHelper Memory: AOs need 1.181 GiB; user supplied 10.477 GiB. Using in-core AOs.

  ==> MemDFJK: Density-Fitted J/K Matrices <==

    J tasked:                   Yes
    K tasked:                   Yes
    wK tasked:                   No
    OpenMP threads:               4
    Memory [MiB]:             10728
    Algorithm:                 Core
    Schwarz Cutoff:           1E-12
    Mask sparsity (%):       0.4253
    Fitting Condition:        1E-10

   => Auxiliary Basis Set <=

  Basis Set: (AUG-CC-PVQZ AUX)
    Blend: AUG-CC-PVQZ-JKFIT
    Number of shells: 218
    Number of basis function: 878
    Number of Cartesian functions: 1186
    Spherical Harmonics?: true
    Max angular momentum: 5

  Minimum eigenvalue in the overlap matrix is 1.3117247669E-05.
  Using Symmetric Orthogonalization.

  SCF Guess: Superposition of Atomic Densities via on-the-fly atomic UHF.

  ==> Iterations <==

                           Total Energy        Delta E     RMS |[F,P]|

   @DF-RHF iter SAD: -1875.95817414121325   -1.87596e+03   0.00000e+00 
   @DF-RHF iter   1: -1875.81433950738142    1.43835e-01   1.13073e-03 DIIS
   @DF-RHF iter   2: -1875.85328984553666   -3.89503e-02   1.03612e-03 DIIS
   @DF-RHF iter   3: -1875.93068907876773   -7.73992e-02   1.16246e-04 DIIS
   @DF-RHF iter   4: -1875.93324063303589   -2.55155e-03   4.23326e-05 DIIS
   @DF-RHF iter   5: -1875.93365689214625   -4.16259e-04   8.49140e-06 DIIS
   @DF-RHF iter   6: -1875.93367537592985   -1.84838e-05   1.39750e-06 DIIS
   @DF-RHF iter   7: -1875.93367561291097   -2.36981e-07   1.74839e-07 DIIS
   @DF-RHF iter   8: -1875.93367561889022   -5.97925e-09   4.11585e-08 DIIS
   @DF-RHF iter   9: -1875.93367561920877   -3.18551e-10   1.29809e-08 DIIS
   @DF-RHF iter  10: -1875.93367561923969   -3.09228e-11   3.78640e-09 DIIS
  Energy and wave function converged.


  ==> Post-Iterations <==

    Orbital Energies [Eh]
    ---------------------

    Doubly Occupied:                                                      

       1A   -104.876387     2A   -104.876339     3A   -104.876226  
       4A   -104.875942     5A    -11.496963     6A    -10.602042  
       7A    -10.601998     8A    -10.601886     9A    -10.601639  
      10A     -8.069013    11A     -8.068970    12A     -8.068857  
      13A     -8.068610    14A     -8.066917    15A     -8.066916  
      16A     -8.066874    17A     -8.066874    18A     -8.066762  
      19A     -8.066761    20A     -8.066513    21A     -8.066513  
      22A     -1.281360    23A     -1.127772    24A     -1.127603  
      25A     -1.127291    26A     -0.833865    27A     -0.658094  
      28A     -0.657989    29A     -0.657760    30A     -0.532041  
      31A     -0.531979    32A     -0.489044    33A     -0.488903  
      34A     -0.488572    35A     -0.460758    36A     -0.460489  
      37A     -0.460410  

    Virtual:                                                              

      38A      0.040100    39A      0.057973    40A      0.057990  
      41A      0.058028    42A      0.083893    43A      0.091776  
      44A      0.091793    45A      0.091802    46A      0.096212  
      47A      0.096216    48A      0.136296    49A      0.136317  
      50A      0.136327    51A      0.159605    52A      0.159944  
      53A      0.160104    54A      0.168416    55A      0.168436  
      56A      0.168512    57A      0.177043    58A      0.215151  
      59A      0.215277    60A      0.215307    61A      0.230039  
      62A      0.255418    63A      0.255459    64A      0.255696  
      65A      0.295646    66A      0.295665    67A      0.316619  
      68A      0.316661    69A      0.326469    70A      0.326923  
      71A      0.327055    72A      0.350595    73A      0.350658  
      74A      0.350695    75A      0.360033    76A      0.360196  
      77A      0.360731    78A      0.369654    79A      0.369665  
      80A      0.369684    81A      0.383450    82A      0.433240  
      83A      0.433265    84A      0.449852    85A      0.449866  
      86A      0.449882    87A      0.552149    88A      0.558629  
      89A      0.558786    90A      0.559288    91A      0.578705  
      92A      0.578725    93A      0.581224    94A      0.581341  
      95A      0.581361    96A      0.600131    97A      0.600538  
      98A      0.600635    99A      0.604219   100A      0.604495  
     101A      0.604557   102A      0.634642   103A      0.648008  
     104A      0.648829   105A      0.649094   106A      0.683654  
     107A      0.683688   108A      0.683747   109A      0.685659  
     110A      0.685677   111A      0.737666   112A      0.738162  
     113A      0.738283   114A      0.790587   115A      0.790594  
     116A      0.802190   117A      0.809766   118A      0.810059  
     119A      0.810175   120A      0.874573   121A      0.874636  
     122A      0.874727   123A      0.879177   124A      0.880612  
     125A      0.880657   126A      0.880733   127A      0.931849  
     128A      0.931906   129A      0.932106   130A      1.025739  
     131A      1.039017   132A      1.039056   133A      1.039132  
     134A      1.087835   135A      1.087849   136A      1.106361  
     137A      1.106484   138A      1.106743   139A      1.121361  
     140A      1.121366   141A      1.131993   142A      1.154646  
     143A      1.154796   144A      1.154837   145A      1.173952  
     146A      1.174089   147A      1.174597   148A      1.198049  
     149A      1.198139   150A      1.198186   151A      1.241177  
     152A      1.241238   153A      1.241286   154A      1.271693  
     155A      1.272252   156A      1.272378   157A      1.272740  
     158A      1.295604   159A      1.296095   160A      1.296226  
     161A      1.363771   162A      1.430311   163A      1.430358  
     164A      1.430434   165A      1.458287   166A      1.458422  
     167A      1.643856   168A      1.643977   169A      1.644520  
     170A      1.675378   171A      1.675381   172A      1.766597  
     173A      1.766693   174A      1.766854   175A      1.771913  
     176A      1.772065   177A      1.772512   178A      1.772949  
     179A      1.773102   180A      1.784384   181A      1.784469  
     182A      1.784526   183A      1.794838   184A      1.848821  
     185A      1.849259   186A      1.849375   187A      1.899765  
     188A      1.899784   189A      1.899802   190A      1.929278  
     191A      1.929459   192A      1.955084   193A      1.955570  
     194A      1.955653   195A      1.992724   196A      1.992746  
     197A      2.020243   198A      2.020637   199A      2.021807  
     200A      2.026633   201A      2.050332   202A      2.050580  
     203A      2.050629   204A      2.096634   205A      2.096945  
     206A      2.097019   207A      2.099330   208A      2.112693  
     209A      2.112918   210A      2.122171   211A      2.122320  
     212A      2.122368   213A      2.184658   214A      2.184842  
     215A      2.185548   216A      2.192057   217A      2.224916  
     218A      2.225857   219A      2.226105   220A      2.238901  
     221A      2.239164   222A      2.240094   223A      2.273003  
     224A      2.273087   225A      2.273123   226A      2.276568  
     227A      2.277145   228A      2.277294   229A      2.311824  
     230A      2.311899   231A      2.311981   232A      2.370653  
     233A      2.380004   234A      2.380042   235A      2.468157  
     236A      2.468546   237A      2.469394   238A      2.469709  
     239A      2.471380   240A      2.471582   241A      2.471622  
     242A      2.516714   243A      2.522709   244A      2.522811  
     245A      2.523479   246A      2.530884   247A      2.530923  
     248A      2.588433   249A      2.643813   250A      2.644129  
     251A      2.644282   252A      2.655010   253A      2.655304  
     254A      2.656759   255A      2.800575   256A      2.801726  
     257A      2.802163   258A      2.856570   259A      2.886845  
     260A      2.888799   261A      2.889247   262A      2.969188  
     263A      2.969264   264A      2.971583   265A      2.972493  
     266A      2.972700   267A      3.236629   268A      3.237350  
     269A      3.237785   270A      3.238095   271A      3.238846  
     272A      3.239808   273A      3.403851   274A      3.403929  
     275A      3.431101   276A      3.431208   277A      3.431869  
     278A      3.454615   279A      3.454788   280A      3.500276  
     281A      3.521079   282A      3.521324   283A      3.521441  
     284A      3.591126   285A      3.591370   286A      3.591881  
     287A      3.725200   288A      3.968781   289A      3.969464  
     290A      3.972013   291A      4.187373   292A      4.355169  
     293A      4.355309   294A      4.455352   295A      4.456596  
     296A      4.456969   297A      4.479140   298A      4.479174  
     299A      4.488509   300A      4.489288   301A      4.489432  
     302A      4.617770   303A      4.617833   304A      4.618001  
     305A      4.679432   306A      4.679572   307A      4.679935  
     308A      4.701564   309A      4.702151   310A      4.702305  
     311A      4.709705   312A      4.709969   313A      4.710119  
     314A      4.740773   315A      4.741407   316A      4.741641  
     317A      4.747728   318A      4.752591   319A      4.769455  
     320A      4.769578   321A      4.777227   322A      4.777774  
     323A      4.777927   324A      4.784416   325A      4.784493  
     326A      4.784639   327A      4.797508   328A      4.797713  
     329A      4.832116   330A      4.851115   331A      4.852016  
     332A      4.852322   333A      4.857687   334A      4.858286  
     335A      4.858463   336A      4.875547   337A      4.876159  
     338A      4.878277   339A      4.909862   340A      4.909898  
     341A      4.946837   342A      4.946879   343A      4.946964  
     344A      4.950959   345A      4.950989   346A      4.951131  
     347A      4.975784   348A      4.975906   349A      4.976139  
     350A      4.998948   351A      5.038941   352A      5.039593  
     353A      5.039724   354A      5.057770   355A      5.089404  
     356A      5.090333   357A      5.090552   358A      5.167403  
     359A      5.167490   360A      5.268192   361A      5.293271  
     362A      5.293546   363A      5.293911   364A      5.356258  
     365A      5.359659   366A      5.360516   367A      5.421335  
     368A      5.421401   369A      5.421915   370A      5.447315  
     371A      5.447628   372A      5.603015   373A      5.604423  
     374A      5.608971   375A      5.799103   376A      6.595678  
     377A      6.649088   378A      6.649469   379A      6.651149  
     380A      6.686464   381A      6.687448   382A      6.687632  
     383A      6.763722   384A      6.763885   385A      6.823467  
     386A      6.823643   387A      6.823909   388A      6.870060  
     389A      6.870334   390A      6.870594   391A      7.113379  
     392A      7.113413   393A      7.204269   394A      7.204589  
     395A      7.204778   396A      7.282128   397A      7.282527  
     398A      7.282782   399A      7.336274   400A      7.336338  
     401A      7.545834   402A      7.740933   403A      7.741416  
     404A      7.742724   405A      7.825855   406A      7.826460  
     407A      7.827622   408A      8.521096   409A      8.522384  
     410A      8.522519   411A      8.660301   412A     24.674380  
     413A     26.675107   414A     26.676221   415A     26.682895  
     416A     26.803220  

    Final Occupation by Irrep:
              A 
    DOCC [    37 ]

  @DF-RHF Final Energy: -1875.93367561923969

   => Energetics <=

    Nuclear Repulsion Energy =            439.4641542812996704
    One-Electron Energy =               -3467.5897927888299819
    Two-Electron Energy =                1152.1919628882906181
    Total Energy =                      -1875.9336756192396933

Computation Completed


Properties will be evaluated at   3.551064,  -1.916009,   3.551183 [a0]

Properties computed using the SCF density matrix

  Nuclear Dipole Moment: [e a0]
     X:    -0.0005      Y:     0.0002      Z:    -0.0005

  Electronic Dipole Moment: [e a0]
     X:    -0.0005      Y:     0.0003      Z:    -0.0012

  Dipole Moment: [e a0]
     X:    -0.0011      Y:     0.0005      Z:    -0.0017     Total:     0.0021

  Dipole Moment: [D]
     X:    -0.0027      Y:     0.0013      Z:    -0.0044     Total:     0.0053


*** tstop() called on node37.bme.utexas.edu at Tue Feb 22 21:09:41 2022
Module time:
	user time   =      51.48 seconds =       0.86 minutes
	system time =       4.63 seconds =       0.08 minutes
	total time  =         16 seconds =       0.27 minutes
Total time:
	user time   =      76.68 seconds =       1.28 minutes
	system time =       6.32 seconds =       0.11 minutes
	total time  =         24 seconds =       0.40 minutes

*** tstart() called on node37.bme.utexas.edu
*** at Tue Feb 22 21:09:41 2022


  //>>>>>>>>>>>>>>>>>>>>>>>>>>>>>>>>>>>//
  //               DFMP2               //
  //<<<<<<<<<<<<<<<<<<<<<<<<<<<<<<<<<<<//

   => Loading Basis Set <=

    Name: (AUG-CC-PVQZ AUX)
    Role: RIFIT
    Keyword: DF_BASIS_MP2
    atoms 1-4 entry CL         line   914 file /home/bdw2292/miniconda3/envs/amoebamdpoltype/share/psi4/basis/aug-cc-pvqz-ri.gbs 
    atoms 5   entry C          line   184 file /home/bdw2292/miniconda3/envs/amoebamdpoltype/share/psi4/basis/aug-cc-pvqz-ri.gbs 

	 --------------------------------------------------------
	                          DF-MP2                         
	      2nd-Order Density-Fitted Moller-Plesset Theory     
	              RMP2 Wavefunction,   4 Threads             
	                                                         
	        Rob Parrish, Justin Turney, Andy Simmonett,      
	           Ed Hohenstein, and C. David Sherrill          
	 --------------------------------------------------------

   => Auxiliary Basis Set <=

  Basis Set: (AUG-CC-PVQZ AUX)
    Blend: AUG-CC-PVQZ-RI
    Number of shells: 212
    Number of basis function: 944
    Number of Cartesian functions: 1309
    Spherical Harmonics?: true
    Max angular momentum: 5

	 --------------------------------------------------------
	                 NBF =   416, NAUX =   944
	 --------------------------------------------------------
	   CLASS    FOCC     OCC    AOCC    AVIR     VIR    FVIR
	   PAIRS      21      37      16     379     379       0
	 --------------------------------------------------------

	-----------------------------------------------------------
	 ==================> DF-MP2 Energies <==================== 
	-----------------------------------------------------------
	 Reference Energy          =   -1875.9336756192396933 [Eh]
	 Singles Energy            =      -0.0000000000000000 [Eh]
	 Same-Spin Energy          =      -0.2544183619542946 [Eh]
	 Opposite-Spin Energy      =      -0.7716646445003238 [Eh]
	 Correlation Energy        =      -1.0260830064546185 [Eh]
	 Total Energy              =   -1876.9597586256943487 [Eh]
	-----------------------------------------------------------
	 ================> DF-SCS-MP2 Energies <================== 
	-----------------------------------------------------------
	 SCS Same-Spin Scale       =       0.3333333333333333 [-]
	 SCS Opposite-Spin Scale   =       1.2000000000000000 [-]
	 SCS Same-Spin Energy      =      -0.0848061206514315 [Eh]
	 SCS Opposite-Spin Energy  =      -0.9259975734003885 [Eh]
	 SCS Correlation Energy    =      -1.0108036940518199 [Eh]
	 SCS Total Energy          =   -1876.9444793132915947 [Eh]
	-----------------------------------------------------------


*** tstop() called on node37.bme.utexas.edu at Tue Feb 22 21:09:50 2022
Module time:
	user time   =      23.22 seconds =       0.39 minutes
	system time =       1.57 seconds =       0.03 minutes
	total time  =          9 seconds =       0.15 minutes
Total time:
	user time   =      99.91 seconds =       1.67 minutes
	system time =       7.89 seconds =       0.13 minutes
	total time  =         33 seconds =       0.55 minutes

  //>>>>>>>>>>>>>>>>>>>>>>>>>>>>>>>>>>>//
  //  CBS Results: mp2/aug-cc-pV[TQ]Z  //
  //<<<<<<<<<<<<<<<<<<<<<<<<<<<<<<<<<<<//


   ==> HF <==

   HI-zeta (4) Energy:               -1875.933675619240


   ==> Helgaker 2-point correlated extrapolation for method: MP2 <==

   LO-zeta (3) Energy:               -1876.866970789833
   HI-zeta (4) Energy:               -1876.959758625694
   Alpha (exponent) Value:             3.000000000000
   Extrapolated Energy:              -1877.027468668080

   @Extrapolated MP2/(T,Q):          -1877.027468668080



   ==> Helgaker 2-point correlated extrapolation for method: HF <==

   LO-zeta (3) Energy:               -1875.916370042411
   HI-zeta (4) Energy:               -1875.933675619240
   Alpha (exponent) Value:             3.000000000000
   Extrapolated Energy:              -1875.946304013142

   @Extrapolated HF/(T,Q):           -1875.946304013142


   ==> Components <==

  ---------------------------------------------------------------------------------------------------------
                          Method / Basis                      Rqd      Energy [Eh]   Variable
  ---------------------------------------------------------------------------------------------------------
                              hf / aug-cc-pvtz                  *   -1875.91637004   HF TOTAL ENERGY
                             mp2 / aug-cc-pvtz                  *   -1876.86697079   MP2 TOTAL ENERGY
                              hf / aug-cc-pvqz                  *   -1875.93367562   HF TOTAL ENERGY
                             mp2 / aug-cc-pvqz                  *   -1876.95975863   MP2 TOTAL ENERGY
  ---------------------------------------------------------------------------------------------------------

   ==> Stages <==

  ---------------------------------------------------------------------------------------------------------
      Stage               Method / Basis                       Wt      Energy [Eh]   Scheme
  ---------------------------------------------------------------------------------------------------------
        scf                   hf / aug-cc-pvqz                  1   -1875.93367562   xtpl_highest_1
       corl                  mp2 / aug-cc-pv[tq]z               1   -1877.02746867   corl_xtpl_helgaker_2
       corl                   hf / aug-cc-pv[tq]z              -1   -1875.94630401   corl_xtpl_helgaker_2
  ---------------------------------------------------------------------------------------------------------

   ==> CBS <==

  ---------------------------------------------------------------------------------------------------------
      Stage               Method / Basis                               Energy [Eh]   Scheme
  ---------------------------------------------------------------------------------------------------------
        scf                   hf / aug-cc-pvqz                      -1875.93367562   xtpl_highest_1
       corl                  mp2 / aug-cc-pv[tq]z                      -1.08116465   corl_xtpl_helgaker_2
      total                  CBS                                    -1877.01484027   
  ---------------------------------------------------------------------------------------------------------
   => Loading Basis Set <=

    Name: DEF2-SVP
    Role: ORBITAL
    Keyword: BASIS
    atoms 1-4 entry CL         line   356 file /home/bdw2292/miniconda3/envs/amoebamdpoltype/share/psi4/basis/def2-svp.gbs 
    atoms 5   entry C          line    90 file /home/bdw2292/miniconda3/envs/amoebamdpoltype/share/psi4/basis/def2-svp.gbs 


       N-Body: Complex Energy (fragments = (2,), basis = (2,): -1877.01484027417723)

       N-Body: Computing complex (2/4) with fragments (2,) in the basis of fragments (1, 2).


  //>>>>>>>>>>>>>>>>>>>>>>>>>>>>>>>>>>>//
  //   CBS Setup: mp2/aug-cc-pV[TQ]Z   //
  //<<<<<<<<<<<<<<<<<<<<<<<<<<<<<<<<<<<//

    Naive listing of computations required.
             hf / aug-cc-pvqz              for  HF TOTAL ENERGY
            mp2 / aug-cc-pvtz              for  MP2 TOTAL ENERGY
            mp2 / aug-cc-pvqz              for  MP2 TOTAL ENERGY
             hf / aug-cc-pvtz              for  HF TOTAL ENERGY
             hf / aug-cc-pvqz              for  HF TOTAL ENERGY

    Enlightened listing of computations required.
            mp2 / aug-cc-pvtz              for  MP2 TOTAL ENERGY
            mp2 / aug-cc-pvqz              for  MP2 TOTAL ENERGY

    Full listing of computations to be obtained (required and bonus).
             hf / aug-cc-pvtz              for  HF TOTAL ENERGY
            mp2 / aug-cc-pvtz              for  MP2 TOTAL ENERGY
             hf / aug-cc-pvqz              for  HF TOTAL ENERGY
            mp2 / aug-cc-pvqz              for  MP2 TOTAL ENERGY

  //>>>>>>>>>>>>>>>>>>>>>>>>>>>>>>>>>>>>//
  // CBS Computation: MP2 / AUG-CC-PVTZ //
  //<<<<<<<<<<<<<<<<<<<<<<<<<<<<<<<<<<<<//

    SCF Algorithm Type (re)set to DF.

*** tstart() called on node37.bme.utexas.edu
*** at Tue Feb 22 21:09:51 2022

   => Loading Basis Set <=

    Name: AUG-CC-PVTZ
    Role: ORBITAL
    Keyword: BASIS
    atoms 1-4, 6-9 entry CL         line   984 file /home/bdw2292/miniconda3/envs/amoebamdpoltype/share/psi4/basis/aug-cc-pvtz.gbs 
    atoms 5, 10    entry C          line   235 file /home/bdw2292/miniconda3/envs/amoebamdpoltype/share/psi4/basis/aug-cc-pvtz.gbs 


         ---------------------------------------------------------
                                   SCF
               by Justin Turney, Rob Parrish, Andy Simmonett
                          and Daniel G. A. Smith
                              RHF Reference
                        4 Threads,  14305 MiB Core
         ---------------------------------------------------------

  ==> Geometry <==

    Molecular point group: c1
    Full point group: C1

    Geometry (in Angstrom), charge = 0, multiplicity = 1:

       Center              X                  Y                   Z               Mass       
    ------------   -----------------  -----------------  -----------------  -----------------
      Gh(CL)         -2.005530254899     0.454930223046    -0.205315609245    34.968852682000
      Gh(CL)         -2.162122054899     2.759065223046    -1.937701609245    34.968852682000
      Gh(CL)         -3.087359054899     0.183663823046    -2.868955409245    34.968852682000
      Gh(CL)         -0.261879854899     0.658115723046    -2.505011009245    34.968852682000
      Gh(C)          -1.878205154899     1.013492623046    -1.878728309245    12.000000000000
         CL           0.598057745101    -0.917160176954     3.097183890755    34.968852682000
         CL           2.173502545101     0.595710423046     1.202347990755    34.968852682000
         CL           1.384825645101    -2.118896976954     0.586144790755    34.968852682000
         CL           3.360752845101    -1.615492276954     2.631720790755    34.968852682000
         C            1.877483745101    -1.013306076954     1.877522390755    12.000000000000

  Running in c1 symmetry.

  Rotational constants: A =      0.02882  B =      0.00554  C =      0.00554 [cm^-1]
  Rotational constants: A =    863.97469  B =    166.19135  C =    166.17453 [MHz]
  Nuclear repulsion =  439.464154281299670

  Charge       = 0
  Multiplicity = 1
  Electrons    = 74
  Nalpha       = 37
  Nbeta        = 37

  ==> Algorithm <==

  SCF Algorithm Type is DF.
  DIIS enabled.
  MOM disabled.
  Fractional occupation disabled.
  Guess Type is SAD.
  Energy threshold   = 1.00e-08
  Density threshold  = 1.00e-08
  Integral threshold = 0.00e+00

  ==> Primary Basis <==

  Basis Set: AUG-CC-PVTZ
    Blend: AUG-CC-PVTZ
    Number of shells: 156
    Number of basis function: 492
    Number of Cartesian functions: 582
    Spherical Harmonics?: true
    Max angular momentum: 3

   => Loading Basis Set <=

    Name: (AUG-CC-PVTZ AUX)
    Role: JKFIT
    Keyword: DF_BASIS_SCF
    atoms 1-4, 6-9 entry CL         line   816 file /home/bdw2292/miniconda3/envs/amoebamdpoltype/share/psi4/basis/aug-cc-pvtz-jkfit.gbs 
    atoms 5, 10    entry C          line   162 file /home/bdw2292/miniconda3/envs/amoebamdpoltype/share/psi4/basis/aug-cc-pvtz-jkfit.gbs 

  ==> Pre-Iterations <==

   -------------------------------------------------------
    Irrep   Nso     Nmo     Nalpha   Nbeta   Ndocc  Nsocc
   -------------------------------------------------------
     A        492     492       0       0       0       0
   -------------------------------------------------------
    Total     492     492      37      37      37       0
   -------------------------------------------------------

  ==> Integral Setup <==

  DFHelper Memory: AOs need 2.224 GiB; user supplied 10.477 GiB. Using in-core AOs.

  ==> MemDFJK: Density-Fitted J/K Matrices <==

    J tasked:                   Yes
    K tasked:                   Yes
    wK tasked:                   No
    OpenMP threads:               4
    Memory [MiB]:             10728
    Algorithm:                 Disk
    Schwarz Cutoff:           1E-12
    Mask sparsity (%):      13.1866
    Fitting Condition:        1E-10

   => Auxiliary Basis Set <=

  Basis Set: (AUG-CC-PVTZ AUX)
    Blend: AUG-CC-PVTZ-JKFIT
    Number of shells: 396
    Number of basis function: 1376
    Number of Cartesian functions: 1702
    Spherical Harmonics?: true
    Max angular momentum: 4

  Minimum eigenvalue in the overlap matrix is 6.1673526828E-05.
  Using Symmetric Orthogonalization.

  SCF Guess: Superposition of Atomic Densities via on-the-fly atomic UHF.

  ==> Iterations <==

                           Total Energy        Delta E     RMS |[F,P]|

   @DF-RHF iter SAD: -1875.94739153196292   -1.87595e+03   0.00000e+00 
   @DF-RHF iter   1: -1875.79720335821094    1.50188e-01   9.35812e-04 DIIS
   @DF-RHF iter   2: -1875.83581566875159   -3.86123e-02   8.63188e-04 DIIS
   @DF-RHF iter   3: -1875.91358724961333   -7.77716e-02   9.24903e-05 DIIS
   @DF-RHF iter   4: -1875.91606814918555   -2.48090e-03   3.24040e-05 DIIS
   @DF-RHF iter   5: -1875.91640143827772   -3.33289e-04   6.58221e-06 DIIS
   @DF-RHF iter   6: -1875.91641765011468   -1.62118e-05   1.09302e-06 DIIS
   @DF-RHF iter   7: -1875.91641786006244   -2.09948e-07   1.23337e-07 DIIS
   @DF-RHF iter   8: -1875.91641786446257   -4.40014e-09   2.86682e-08 DIIS
   @DF-RHF iter   9: -1875.91641786467790   -2.15323e-10   9.43172e-09 DIIS
  Energy and wave function converged.


  ==> Post-Iterations <==

    Orbital Energies [Eh]
    ---------------------

    Doubly Occupied:                                                      

       1A   -104.878870     2A   -104.878822     3A   -104.878711  
       4A   -104.878444     5A    -11.499701     6A    -10.603271  
       7A    -10.603227     8A    -10.603117     9A    -10.602882  
      10A     -8.070037    11A     -8.069994    12A     -8.069884  
      13A     -8.069648    14A     -8.067750    15A     -8.067750  
      16A     -8.067706    17A     -8.067706    18A     -8.067597  
      19A     -8.067596    20A     -8.067362    21A     -8.067362  
      22A     -1.282438    23A     -1.128471    24A     -1.128303  
      25A     -1.127997    26A     -0.834197    27A     -0.658308  
      28A     -0.658203    29A     -0.657984    30A     -0.532322  
      31A     -0.532260    32A     -0.489339    33A     -0.489198  
      34A     -0.488870    35A     -0.461007    36A     -0.460746  
      37A     -0.460667  

    Virtual:                                                              

      38A      0.028689    39A      0.050095    40A      0.053545  
      41A      0.055394    42A      0.067154    43A      0.075492  
      44A      0.076386    45A      0.080989    46A      0.090119  
      47A      0.100456    48A      0.100954    49A      0.109364  
      50A      0.111778    51A      0.114769    52A      0.119069  
      53A      0.122236    54A      0.133662    55A      0.137394  
      56A      0.143012    57A      0.152189    58A      0.156171  
      59A      0.161614    60A      0.165532    61A      0.168475  
      62A      0.171784    63A      0.176030    64A      0.179661  
      65A      0.181058    66A      0.181659    67A      0.192285  
      68A      0.194624    69A      0.196892    70A      0.198844  
      71A      0.210043    72A      0.211373    73A      0.217348  
      74A      0.221299    75A      0.230315    76A      0.240823  
      77A      0.255211    78A      0.256781    79A      0.270201  
      80A      0.272577    81A      0.295650    82A      0.311557  
      83A      0.318848    84A      0.322901    85A      0.330518  
      86A      0.331749    87A      0.332958    88A      0.343298  
      89A      0.347996    90A      0.355512    91A      0.367584  
      92A      0.374432    93A      0.390533    94A      0.393501  
      95A      0.394835    96A      0.397074    97A      0.399360  
      98A      0.409233    99A      0.414426   100A      0.420387  
     101A      0.425280   102A      0.427610   103A      0.428157  
     104A      0.443805   105A      0.456540   106A      0.460199  
     107A      0.465673   108A      0.471321   109A      0.482039  
     110A      0.489838   111A      0.503758   112A      0.504030  
     113A      0.510214   114A      0.517751   115A      0.524063  
     116A      0.527647   117A      0.531336   118A      0.534537  
     119A      0.536773   120A      0.538262   121A      0.546376  
     122A      0.550720   123A      0.552861   124A      0.561301  
     125A      0.564213   126A      0.574403   127A      0.576540  
     128A      0.591285   129A      0.603625   130A      0.608482  
     131A      0.610988   132A      0.622328   133A      0.640113  
     134A      0.644088   135A      0.649599   136A      0.678087  
     137A      0.720494   138A      0.723607   139A      0.731746  
     140A      0.742115   141A      0.744773   142A      0.751449  
     143A      0.753025   144A      0.757534   145A      0.759339  
     146A      0.759967   147A      0.764764   148A      0.767915  
     149A      0.773354   150A      0.778033   151A      0.784834  
     152A      0.806010   153A      0.810819   154A      0.819918  
     155A      0.821880   156A      0.822605   157A      0.826510  
     158A      0.834029   159A      0.835677   160A      0.841656  
     161A      0.848360   162A      0.854261   163A      0.868125  
     164A      0.870742   165A      0.883379   166A      0.885947  
     167A      0.894049   168A      0.897605   169A      0.906716  
     170A      0.911926   171A      0.930323   172A      0.940798  
     173A      0.958596   174A      0.973634   175A      0.980123  
     176A      0.981119   177A      0.987587   178A      1.014947  
     179A      1.058133   180A      1.063861   181A      1.071162  
     182A      1.076931   183A      1.094230   184A      1.103292  
     185A      1.130083   186A      1.131613   187A      1.137323  
     188A      1.146100   189A      1.161441   190A      1.161643  
     191A      1.163721   192A      1.185250   193A      1.205615  
     194A      1.213276   195A      1.225548   196A      1.229623  
     197A      1.236062   198A      1.236403   199A      1.242187  
     200A      1.271131   201A      1.281424   202A      1.284204  
     203A      1.291881   204A      1.303417   205A      1.313201  
     206A      1.314311   207A      1.315625   208A      1.328424  
     209A      1.331830   210A      1.340338   211A      1.349531  
     212A      1.354978   213A      1.367004   214A      1.369852  
     215A      1.374367   216A      1.375536   217A      1.384387  
     218A      1.385561   219A      1.397420   220A      1.414545  
     221A      1.422175   222A      1.437952   223A      1.477548  
     224A      1.479457   225A      1.483939   226A      1.486949  
     227A      1.488745   228A      1.496550   229A      1.499907  
     230A      1.515249   231A      1.516093   232A      1.519452  
     233A      1.522351   234A      1.531727   235A      1.534522  
     236A      1.540676   237A      1.556854   238A      1.561012  
     239A      1.567254   240A      1.569038   241A      1.571946  
     242A      1.577701   243A      1.583088   244A      1.590013  
     245A      1.596480   246A      1.605445   247A      1.613633  
     248A      1.648931   249A      1.659527   250A      1.662245  
     251A      1.664338   252A      1.665877   253A      1.669736  
     254A      1.675138   255A      1.676611   256A      1.692692  
     257A      1.700472   258A      1.711773   259A      1.714040  
     260A      1.721282   261A      1.731692   262A      1.750930  
     263A      1.755450   264A      1.761381   265A      1.764295  
     266A      1.767089   267A      1.776719   268A      1.782184  
     269A      1.792227   270A      1.804693   271A      1.853421  
     272A      1.865647   273A      1.877681   274A      1.883909  
     275A      1.885335   276A      1.894551   277A      1.896824  
     278A      1.898645   279A      1.900993   280A      1.906239  
     281A      1.909919   282A      1.916185   283A      1.932448  
     284A      1.944177   285A      1.978721   286A      2.004249  
     287A      2.007241   288A      2.008718   289A      2.136992  
     290A      2.143009   291A      2.144357   292A      2.149524  
     293A      2.150621   294A      2.160836   295A      2.230444  
     296A      2.232420   297A      2.233842   298A      2.295024  
     299A      2.319080   300A      2.324369   301A      2.329548  
     302A      2.462278   303A      2.465359   304A      2.471419  
     305A      2.523461   306A      2.524189   307A      2.565642  
     308A      2.572418   309A      2.581397   310A      2.587690  
     311A      2.589725   312A      2.598339   313A      2.607005  
     314A      2.616766   315A      2.621555   316A      2.630039  
     317A      2.633281   318A      2.646166   319A      2.661613  
     320A      2.682727   321A      2.712851   322A      2.713560  
     323A      2.719900   324A      2.722140   325A      2.726196  
     326A      2.745744   327A      2.749408   328A      2.758666  
     329A      2.762379   330A      2.770133   331A      2.912282  
     332A      2.912727   333A      2.918387   334A      2.985080  
     335A      2.987220   336A      2.990704   337A      2.992210  
     338A      3.043045   339A      3.050387   340A      3.057170  
     341A      3.079531   342A      3.083623   343A      3.086158  
     344A      3.086203   345A      3.089518   346A      3.093605  
     347A      3.099821   348A      3.101900   349A      3.121212  
     350A      3.137672   351A      3.142348   352A      3.150430  
     353A      3.155055   354A      3.164621   355A      3.209274  
     356A      3.210824   357A      3.222357   358A      3.225678  
     359A      3.235787   360A      3.249267   361A      3.252248  
     362A      3.272272   363A      3.351397   364A      3.352097  
     365A      3.354807   366A      3.429234   367A      3.430603  
     368A      3.431956   369A      3.539577   370A      3.544756  
     371A      3.772376   372A      3.773769   373A      3.782843  
     374A      3.802684   375A      3.806343   376A      3.807401  
     377A      3.875061   378A      3.893160   379A      3.956128  
     380A      3.958280   381A      3.960721   382A      3.982000  
     383A      3.985249   384A      3.989292   385A      3.993920  
     386A      4.008036   387A      4.015225   388A      4.017888  
     389A      4.022382   390A      4.025578   391A      4.033292  
     392A      4.045909   393A      4.085422   394A      4.087005  
     395A      4.090230   396A      4.109449   397A      4.111135  
     398A      4.127162   399A      4.135432   400A      4.140436  
     401A      4.141317   402A      4.145545   403A      4.153886  
     404A      4.161659   405A      4.189708   406A      4.190914  
     407A      4.198429   408A      4.241194   409A      4.243865  
     410A      4.262128   411A      4.268385   412A      4.277648  
     413A      4.279660   414A      4.303694   415A      4.305156  
     416A      4.317277   417A      4.341673   418A      4.466565  
     419A      4.467371   420A      4.469863   421A      4.478953  
     422A      4.499669   423A      4.707772   424A      4.712262  
     425A      4.719430   426A      4.726865   427A      4.729090  
     428A      4.732493   429A      4.738879   430A      4.755506  
     431A      4.774179   432A      4.775383   433A      4.775622  
     434A      4.784715   435A      4.816292   436A      4.822130  
     437A      4.827159   438A      4.829949   439A      4.833835  
     440A      4.836087   441A      4.864571   442A      4.884547  
     443A      4.889375   444A      4.891407   445A      4.902879  
     446A      4.944828   447A      5.094334   448A      5.099419  
     449A      5.104222   450A      5.117261   451A      5.123584  
     452A      5.124544   453A      5.404105   454A      5.406536  
     455A      5.409236   456A      5.412524   457A      5.422551  
     458A      5.624392   459A      5.856596   460A      6.134066  
     461A      6.141240   462A      6.151186   463A      6.677401  
     464A      7.545727   465A      7.672364   466A      7.677431  
     467A      7.724944   468A      7.909411   469A      7.914305  
     470A      7.921326   471A     10.814935   472A     15.395339  
     473A     16.410188   474A     16.436086   475A     16.478281  
     476A     28.060029   477A     28.061616   478A     28.078706  
     479A     28.177562   480A     28.180125   481A     28.185671  
     482A     28.326491   483A     28.353077   484A     28.851904  
     485A     28.854065   486A     28.864907   487A     29.532764  
     488A     40.636515   489A    160.935828   490A    161.046674  
     491A    161.050372   492A    161.052962  

    Final Occupation by Irrep:
              A 
    DOCC [    37 ]

  @DF-RHF Final Energy: -1875.91641786467790

   => Energetics <=

    Nuclear Repulsion Energy =            439.4641542812996704
    One-Electron Energy =               -3467.4856576790111831
    Two-Electron Energy =                1152.1050855330336162
    Total Energy =                      -1875.9164178646778964

Computation Completed


Properties will be evaluated at   0.000000,  -0.000000,   0.000000 [a0]

Properties computed using the SCF density matrix

  Nuclear Dipole Moment: [e a0]
     X:   262.7783      Y:  -141.7844      Z:   262.7870

  Electronic Dipole Moment: [e a0]
     X:  -262.7789      Y:   141.7847      Z:  -262.7883

  Dipole Moment: [e a0]
     X:    -0.0006      Y:     0.0003      Z:    -0.0013     Total:     0.0015

  Dipole Moment: [D]
     X:    -0.0015      Y:     0.0008      Z:    -0.0034     Total:     0.0038


*** tstop() called on node37.bme.utexas.edu at Tue Feb 22 21:10:49 2022
Module time:
	user time   =     143.88 seconds =       2.40 minutes
	system time =      26.69 seconds =       0.44 minutes
	total time  =         58 seconds =       0.97 minutes
Total time:
	user time   =     245.31 seconds =       4.09 minutes
	system time =      34.62 seconds =       0.58 minutes
	total time  =         92 seconds =       1.53 minutes

*** tstart() called on node37.bme.utexas.edu
*** at Tue Feb 22 21:10:49 2022


  //>>>>>>>>>>>>>>>>>>>>>>>>>>>>>>>>>>>//
  //               DFMP2               //
  //<<<<<<<<<<<<<<<<<<<<<<<<<<<<<<<<<<<//

   => Loading Basis Set <=

    Name: (AUG-CC-PVTZ AUX)
    Role: RIFIT
    Keyword: DF_BASIS_MP2
    atoms 1-4, 6-9 entry CL         line   742 file /home/bdw2292/miniconda3/envs/amoebamdpoltype/share/psi4/basis/aug-cc-pvtz-ri.gbs 
    atoms 5, 10    entry C          line   148 file /home/bdw2292/miniconda3/envs/amoebamdpoltype/share/psi4/basis/aug-cc-pvtz-ri.gbs 

	 --------------------------------------------------------
	                          DF-MP2                         
	      2nd-Order Density-Fitted Moller-Plesset Theory     
	              RMP2 Wavefunction,   4 Threads             
	                                                         
	        Rob Parrish, Justin Turney, Andy Simmonett,      
	           Ed Hohenstein, and C. David Sherrill          
	 --------------------------------------------------------

   => Auxiliary Basis Set <=

  Basis Set: (AUG-CC-PVTZ AUX)
    Blend: AUG-CC-PVTZ-RI
    Number of shells: 352
    Number of basis function: 1388
    Number of Cartesian functions: 1800
    Spherical Harmonics?: true
    Max angular momentum: 4

	 --------------------------------------------------------
	                 NBF =   492, NAUX =  1388
	 --------------------------------------------------------
	   CLASS    FOCC     OCC    AOCC    AVIR     VIR    FVIR
	   PAIRS      21      37      16     455     455       0
	 --------------------------------------------------------

	-----------------------------------------------------------
	 ==================> DF-MP2 Energies <==================== 
	-----------------------------------------------------------
	 Reference Energy          =   -1875.9164178646778964 [Eh]
	 Singles Energy            =      -0.0000000000000000 [Eh]
	 Same-Spin Energy          =      -0.2463953628634012 [Eh]
	 Opposite-Spin Energy      =      -0.7044341567327084 [Eh]
	 Correlation Energy        =      -0.9508295195961095 [Eh]
	 Total Energy              =   -1876.8672473842739237 [Eh]
	-----------------------------------------------------------
	 ================> DF-SCS-MP2 Energies <================== 
	-----------------------------------------------------------
	 SCS Same-Spin Scale       =       0.3333333333333333 [-]
	 SCS Opposite-Spin Scale   =       1.2000000000000000 [-]
	 SCS Same-Spin Energy      =      -0.0821317876211337 [Eh]
	 SCS Opposite-Spin Energy  =      -0.8453209880792500 [Eh]
	 SCS Correlation Energy    =      -0.9274527757003838 [Eh]
	 SCS Total Energy          =   -1876.8438706403783272 [Eh]
	-----------------------------------------------------------


*** tstop() called on node37.bme.utexas.edu at Tue Feb 22 21:11:05 2022
Module time:
	user time   =      48.32 seconds =       0.81 minutes
	system time =       2.46 seconds =       0.04 minutes
	total time  =         16 seconds =       0.27 minutes
Total time:
	user time   =     293.64 seconds =       4.89 minutes
	system time =      37.08 seconds =       0.62 minutes
	total time  =        108 seconds =       1.80 minutes

  //>>>>>>>>>>>>>>>>>>>>>>>>>>>>>>>>>>>>//
  // CBS Computation: MP2 / AUG-CC-PVQZ //
  //<<<<<<<<<<<<<<<<<<<<<<<<<<<<<<<<<<<<//

    SCF Algorithm Type (re)set to DF.

*** tstart() called on node37.bme.utexas.edu
*** at Tue Feb 22 21:11:05 2022

   => Loading Basis Set <=

    Name: AUG-CC-PVQZ
    Role: ORBITAL
    Keyword: BASIS
    atoms 1-4, 6-9 entry CL         line  1218 file /home/bdw2292/miniconda3/envs/amoebamdpoltype/share/psi4/basis/aug-cc-pvqz.gbs 
    atoms 5, 10    entry C          line   299 file /home/bdw2292/miniconda3/envs/amoebamdpoltype/share/psi4/basis/aug-cc-pvqz.gbs 


         ---------------------------------------------------------
                                   SCF
               by Justin Turney, Rob Parrish, Andy Simmonett
                          and Daniel G. A. Smith
                              RHF Reference
                        4 Threads,  14305 MiB Core
         ---------------------------------------------------------

  ==> Geometry <==

    Molecular point group: c1
    Full point group: C1

    Geometry (in Angstrom), charge = 0, multiplicity = 1:

       Center              X                  Y                   Z               Mass       
    ------------   -----------------  -----------------  -----------------  -----------------
      Gh(CL)         -2.005530254899     0.454930223046    -0.205315609245    34.968852682000
      Gh(CL)         -2.162122054899     2.759065223046    -1.937701609245    34.968852682000
      Gh(CL)         -3.087359054899     0.183663823046    -2.868955409245    34.968852682000
      Gh(CL)         -0.261879854899     0.658115723046    -2.505011009245    34.968852682000
      Gh(C)          -1.878205154899     1.013492623046    -1.878728309245    12.000000000000
         CL           0.598057745101    -0.917160176954     3.097183890755    34.968852682000
         CL           2.173502545101     0.595710423046     1.202347990755    34.968852682000
         CL           1.384825645101    -2.118896976954     0.586144790755    34.968852682000
         CL           3.360752845101    -1.615492276954     2.631720790755    34.968852682000
         C            1.877483745101    -1.013306076954     1.877522390755    12.000000000000

  Running in c1 symmetry.

  Rotational constants: A =      0.02882  B =      0.00554  C =      0.00554 [cm^-1]
  Rotational constants: A =    863.97469  B =    166.19135  C =    166.17453 [MHz]
  Nuclear repulsion =  439.464154281299670

  Charge       = 0
  Multiplicity = 1
  Electrons    = 74
  Nalpha       = 37
  Nbeta        = 37

  ==> Algorithm <==

  SCF Algorithm Type is DF.
  DIIS enabled.
  MOM disabled.
  Fractional occupation disabled.
  Guess Type is SAD.
  Energy threshold   = 1.00e-08
  Density threshold  = 1.00e-08
  Integral threshold = 0.00e+00

  ==> Primary Basis <==

  Basis Set: AUG-CC-PVQZ
    Blend: AUG-CC-PVQZ
    Number of shells: 216
    Number of basis function: 832
    Number of Cartesian functions: 1082
    Spherical Harmonics?: true
    Max angular momentum: 4

   => Loading Basis Set <=

    Name: (AUG-CC-PVQZ AUX)
    Role: JKFIT
    Keyword: DF_BASIS_SCF
    atoms 1-4, 6-9 entry CL         line   904 file /home/bdw2292/miniconda3/envs/amoebamdpoltype/share/psi4/basis/aug-cc-pvqz-jkfit.gbs 
    atoms 5, 10    entry C          line   178 file /home/bdw2292/miniconda3/envs/amoebamdpoltype/share/psi4/basis/aug-cc-pvqz-jkfit.gbs 

  ==> Pre-Iterations <==

   -------------------------------------------------------
    Irrep   Nso     Nmo     Nalpha   Nbeta   Ndocc  Nsocc
   -------------------------------------------------------
     A        832     832       0       0       0       0
   -------------------------------------------------------
    Total     832     832      37      37      37       0
   -------------------------------------------------------

  ==> Integral Setup <==

  DFHelper Memory: AOs need 7.686 GiB; user supplied 10.477 GiB. Using in-core AOs.

  ==> MemDFJK: Density-Fitted J/K Matrices <==

    J tasked:                   Yes
    K tasked:                   Yes
    wK tasked:                   No
    OpenMP threads:               4
    Memory [MiB]:             10728
    Algorithm:                 Disk
    Schwarz Cutoff:           1E-12
    Mask sparsity (%):      17.4891
    Fitting Condition:        1E-10

   => Auxiliary Basis Set <=

  Basis Set: (AUG-CC-PVQZ AUX)
    Blend: AUG-CC-PVQZ-JKFIT
    Number of shells: 436
    Number of basis function: 1756
    Number of Cartesian functions: 2372
    Spherical Harmonics?: true
    Max angular momentum: 5

  Minimum eigenvalue in the overlap matrix is 1.1366276244E-05.
  Using Symmetric Orthogonalization.

  SCF Guess: Superposition of Atomic Densities via on-the-fly atomic UHF.

  ==> Iterations <==

                           Total Energy        Delta E     RMS |[F,P]|

   @DF-RHF iter SAD: -1875.95817424140500   -1.87596e+03   0.00000e+00 
   @DF-RHF iter   1: -1875.81435783320649    1.43816e-01   5.65371e-04 DIIS
   @DF-RHF iter   2: -1875.85330944385078   -3.89516e-02   5.18066e-04 DIIS
   @DF-RHF iter   3: -1875.93070728600992   -7.73978e-02   5.81272e-05 DIIS
   @DF-RHF iter   4: -1875.93325893518158   -2.55165e-03   2.11683e-05 DIIS
   @DF-RHF iter   5: -1875.93367527297346   -4.16338e-04   4.24602e-06 DIIS
   @DF-RHF iter   6: -1875.93369375877251   -1.84858e-05   6.98901e-07 DIIS
   @DF-RHF iter   7: -1875.93369399582775   -2.37055e-07   8.74550e-08 DIIS
   @DF-RHF iter   8: -1875.93369400181791   -5.99016e-09   2.06223e-08 DIIS
   @DF-RHF iter   9: -1875.93369400214010   -3.22188e-10   6.51355e-09 DIIS
  Energy and wave function converged.


  ==> Post-Iterations <==

    Orbital Energies [Eh]
    ---------------------

    Doubly Occupied:                                                      

       1A   -104.876386     2A   -104.876338     3A   -104.876225  
       4A   -104.875943     5A    -11.496956     6A    -10.602038  
       7A    -10.601995     8A    -10.601883     9A    -10.601637  
      10A     -8.069010    11A     -8.068967    12A     -8.068854  
      13A     -8.068609    14A     -8.066914    15A     -8.066913  
      16A     -8.066871    17A     -8.066870    18A     -8.066759  
      19A     -8.066758    20A     -8.066512    21A     -8.066512  
      22A     -1.281355    23A     -1.127767    24A     -1.127598  
      25A     -1.127287    26A     -0.833862    27A     -0.658090  
      28A     -0.657985    29A     -0.657757    30A     -0.532038  
      31A     -0.531976    32A     -0.489042    33A     -0.488900  
      34A     -0.488570    35A     -0.460754    36A     -0.460488  
      37A     -0.460409  

    Virtual:                                                              

      38A      0.024824    39A      0.042628    40A      0.045360  
      41A      0.046897    42A      0.057054    43A      0.064094  
      44A      0.064974    45A      0.073777    46A      0.082555  
      47A      0.083698    48A      0.084478    49A      0.091862  
      50A      0.095618    51A      0.096656    52A      0.103194  
      53A      0.104150    54A      0.117134    55A      0.119003  
      56A      0.122052    57A      0.127877    58A      0.134766  
      59A      0.139755    60A      0.142271    61A      0.142910  
      62A      0.146945    63A      0.154547    64A      0.154706  
      65A      0.157357    66A      0.157393    67A      0.160582  
      68A      0.167481    69A      0.169665    70A      0.170409  
      71A      0.179619    72A      0.183660    73A      0.186944  
      74A      0.192510    75A      0.198517    76A      0.204977  
      77A      0.210572    78A      0.219630    79A      0.223672  
      80A      0.226860    81A      0.240029    82A      0.252117  
      83A      0.252930    84A      0.259493    85A      0.262760  
      86A      0.264928    87A      0.266939    88A      0.278509  
      89A      0.289892    90A      0.298164    91A      0.299784  
      92A      0.309027    93A      0.310348    94A      0.317467  
      95A      0.321647    96A      0.325960    97A      0.328887  
      98A      0.331505    99A      0.334707   100A      0.335635  
     101A      0.337576   102A      0.339871   103A      0.344852  
     104A      0.349782   105A      0.359079   106A      0.360756  
     107A      0.361722   108A      0.363616   109A      0.368035  
     110A      0.373959   111A      0.379776   112A      0.382801  
     113A      0.384062   114A      0.388683   115A      0.393412  
     116A      0.399092   117A      0.402031   118A      0.417633  
     119A      0.432739   120A      0.435376   121A      0.438725  
     122A      0.440245   123A      0.442384   124A      0.450401  
     125A      0.451438   126A      0.455274   127A      0.460627  
     128A      0.464688   129A      0.468853   130A      0.476757  
     131A      0.486472   132A      0.492216   133A      0.501231  
     134A      0.513811   135A      0.519301   136A      0.528169  
     137A      0.539902   138A      0.547121   139A      0.550495  
     140A      0.557163   141A      0.559752   142A      0.566213  
     143A      0.570485   144A      0.572825   145A      0.577010  
     146A      0.581417   147A      0.582420   148A      0.587029  
     149A      0.588602   150A      0.589534   151A      0.591740  
     152A      0.597902   153A      0.600275   154A      0.604171  
     155A      0.605630   156A      0.612662   157A      0.620818  
     158A      0.624448   159A      0.635792   160A      0.644579  
     161A      0.650589   162A      0.659683   163A      0.662703  
     164A      0.666438   165A      0.675527   166A      0.680776  
     167A      0.688664   168A      0.697728   169A      0.707672  
     170A      0.711421   171A      0.720761   172A      0.721955  
     173A      0.724067   174A      0.729469   175A      0.739437  
     176A      0.749994   177A      0.754862   178A      0.782609  
     179A      0.799560   180A      0.804684   181A      0.815918  
     182A      0.819112   183A      0.823984   184A      0.841414  
     185A      0.847609   186A      0.855397   187A      0.860004  
     188A      0.864337   189A      0.874863   190A      0.878681  
     191A      0.887884   192A      0.889312   193A      0.895426  
     194A      0.906191   195A      0.911098   196A      0.915219  
     197A      0.925967   198A      0.933935   199A      0.938609  
     200A      0.939635   201A      0.944727   202A      0.948699  
     203A      0.958561   204A      0.961910   205A      0.964521  
     206A      0.970668   207A      0.974325   208A      0.986219  
     209A      0.996069   210A      1.007507   211A      1.009302  
     212A      1.013093   213A      1.020889   214A      1.022524  
     215A      1.026580   216A      1.031753   217A      1.033116  
     218A      1.041390   219A      1.042688   220A      1.047674  
     221A      1.050873   222A      1.056649   223A      1.060069  
     224A      1.069380   225A      1.072431   226A      1.076621  
     227A      1.076873   228A      1.089168   229A      1.092987  
     230A      1.096632   231A      1.103148   232A      1.109283  
     233A      1.110672   234A      1.113118   235A      1.121018  
     236A      1.128753   237A      1.130746   238A      1.137654  
     239A      1.146937   240A      1.154395   241A      1.159336  
     242A      1.161047   243A      1.164832   244A      1.169354  
     245A      1.176415   246A      1.183613   247A      1.185147  
     248A      1.186963   249A      1.191145   250A      1.197079  
     251A      1.198284   252A      1.207924   253A      1.213281  
     254A      1.215531   255A      1.217850   256A      1.222141  
     257A      1.227826   258A      1.232291   259A      1.243332  
     260A      1.248783   261A      1.251525   262A      1.252278  
     263A      1.259411   264A      1.272177   265A      1.278236  
     266A      1.281962   267A      1.282595   268A      1.291751  
     269A      1.292688   270A      1.302020   271A      1.309031  
     272A      1.323492   273A      1.324180   274A      1.347713  
     275A      1.352021   276A      1.361261   277A      1.371172  
     278A      1.388017   279A      1.392477   280A      1.402576  
     281A      1.410108   282A      1.416729   283A      1.421712  
     284A      1.433789   285A      1.440148   286A      1.454806  
     287A      1.463475   288A      1.476564   289A      1.505966  
     290A      1.600268   291A      1.601716   292A      1.611446  
     293A      1.640422   294A      1.648834   295A      1.650279  
     296A      1.666864   297A      1.671293   298A      1.674845  
     299A      1.678093   300A      1.683244   301A      1.697448  
     302A      1.698710   303A      1.703189   304A      1.709403  
     305A      1.719125   306A      1.728722   307A      1.754440  
     308A      1.771300   309A      1.774578   310A      1.783655  
     311A      1.785988   312A      1.790355   313A      1.798624  
     314A      1.800491   315A      1.807390   316A      1.814879  
     317A      1.821972   318A      1.828033   319A      1.838842  
     320A      1.845026   321A      1.852555   322A      1.855075  
     323A      1.871884   324A      1.882946   325A      1.883687  
     326A      1.894922   327A      1.905769   328A      1.912301  
     329A      1.923669   330A      1.931534   331A      1.933733  
     332A      1.945917   333A      1.951418   334A      1.952331  
     335A      1.956492   336A      1.962159   337A      1.970681  
     338A      1.972329   339A      1.980844   340A      1.986600  
     341A      1.992605   342A      2.000944   343A      2.004363  
     344A      2.016179   345A      2.022056   346A      2.028554  
     347A      2.033729   348A      2.035128   349A      2.041807  
     350A      2.046881   351A      2.051228   352A      2.054388  
     353A      2.061519   354A      2.065036   355A      2.069969  
     356A      2.101327   357A      2.102182   358A      2.109112  
     359A      2.112090   360A      2.126039   361A      2.129080  
     362A      2.132885   363A      2.133554   364A      2.144364  
     365A      2.166194   366A      2.193083   367A      2.197315  
     368A      2.203563   369A      2.213186   370A      2.217914  
     371A      2.228170   372A      2.229168   373A      2.232105  
     374A      2.232893   375A      2.236494   376A      2.243619  
     377A      2.245145   378A      2.247700   379A      2.254690  
     380A      2.257918   381A      2.260654   382A      2.262845  
     383A      2.275919   384A      2.276562   385A      2.281151  
     386A      2.284602   387A      2.286729   388A      2.296489  
     389A      2.299918   390A      2.307600   391A      2.313965  
     392A      2.320200   393A      2.321879   394A      2.323252  
[...]
     351A      1.781717   352A      1.787743   353A      1.789079  
     354A      1.791245   355A      1.794797   356A      1.803393  
     357A      1.805350   358A      1.806888   359A      1.813070  
     360A      1.815205   361A      1.827034   362A      1.831340  
     363A      1.836482   364A      1.846438   365A      1.850825  
     366A      1.856281   367A      1.859534   368A      1.868408  
     369A      1.874534   370A      1.888492   371A      1.895484  
     372A      1.903436   373A      1.906977   374A      1.908213  
     375A      1.910504   376A      1.919303   377A      1.928899  
     378A      1.933296   379A      1.935439   380A      1.942562  
     381A      1.950618   382A      1.955353   383A      1.956245  
     384A      1.958562   385A      1.962082   386A      1.971510  
     387A      1.988056   388A      1.989430   389A      1.996419  
     390A      2.004717   391A      2.008860   392A      2.016516  
     393A      2.022190   394A      2.030463   395A      2.031922  
     396A      2.033181   397A      2.041989   398A      2.046667  
     399A      2.046957   400A      2.052891   401A      2.057076  
     402A      2.063868   403A      2.068296   404A      2.069122  
     405A      2.084819   406A      2.096556   407A      2.099206  
     408A      2.101071   409A      2.105927   410A      2.110280  
     411A      2.113418   412A      2.116394   413A      2.118073  
     414A      2.121608   415A      2.125766   416A      2.129823  
     417A      2.133257   418A      2.133576   419A      2.139204  
     420A      2.142450   421A      2.152477   422A      2.165250  
     423A      2.178468   424A      2.186167   425A      2.196338  
     426A      2.205902   427A      2.207529   428A      2.213265  
     429A      2.216570   430A      2.221864   431A      2.226800  
     432A      2.229441   433A      2.230350   434A      2.234226  
     435A      2.235675   436A      2.237506   437A      2.241723  
     438A      2.244899   439A      2.250744   440A      2.254884  
     441A      2.260219   442A      2.264276   443A      2.266827  
     444A      2.274489   445A      2.276280   446A      2.277299  
     447A      2.280651   448A      2.285869   449A      2.288468  
     450A      2.292358   451A      2.293970   452A      2.308245  
     453A      2.316082   454A      2.318692   455A      2.323999  
     456A      2.326932   457A      2.331233   458A      2.336804  
     459A      2.345349   460A      2.349580   461A      2.357856  
     462A      2.369631   463A      2.385724   464A      2.389440  
     465A      2.401206   466A      2.405387   467A      2.411213  
     468A      2.426142   469A      2.468240   470A      2.471327  
     471A      2.476467   472A      2.477566   473A      2.478909  
     474A      2.487319   475A      2.487668   476A      2.498463  
     477A      2.500220   478A      2.503407   479A      2.506817  
     480A      2.510779   481A      2.516967   482A      2.522613  
     483A      2.529641   484A      2.532093   485A      2.537580  
     486A      2.542995   487A      2.548902   488A      2.552627  
     489A      2.558933   490A      2.561125   491A      2.567164  
     492A      2.579390   493A      2.584805   494A      2.586636  
     495A      2.604328   496A      2.616401   497A      2.646744  
     498A      2.651752   499A      2.652838   500A      2.660651  
     501A      2.661988   502A      2.666781   503A      2.668453  
     504A      2.673346   505A      2.677481   506A      2.682150  
     507A      2.700650   508A      2.705001   509A      2.807507  
     510A      2.808131   511A      2.821154   512A      2.827623  
     513A      2.850146   514A      2.872682   515A      2.875881  
     516A      2.884444   517A      2.895517   518A      2.900557  
     519A      2.911441   520A      2.912878   521A      2.916219  
     522A      2.939571   523A      2.971130   524A      2.974394  
     525A      2.976680   526A      2.978642   527A      2.982627  
     528A      2.983407   529A      2.984515   530A      2.985204  
     531A      2.989784   532A      3.003655   533A      3.238108  
     534A      3.239179   535A      3.239836   536A      3.241071  
     537A      3.241946   538A      3.242806   539A      3.243748  
     540A      3.246917   541A      3.247052   542A      3.250899  
     543A      3.263040   544A      3.275380   545A      3.407782  
     546A      3.411105   547A      3.417742   548A      3.424495  
     549A      3.435265   550A      3.437842   551A      3.443105  
     552A      3.444407   553A      3.449128   554A      3.455680  
     555A      3.458713   556A      3.461670   557A      3.464307  
     558A      3.470374   559A      3.523651   560A      3.526023  
     561A      3.527910   562A      3.534713   563A      3.545165  
     564A      3.558460   565A      3.581490   566A      3.592398  
     567A      3.595842   568A      3.601417   569A      3.602628  
     570A      3.611347   571A      3.624270   572A      3.640030  
     573A      3.731214   574A      3.738034   575A      3.973017  
     576A      3.977692   577A      3.980854   578A      3.983351  
     579A      3.986953   580A      3.991531   581A      4.216842  
     582A      4.246874   583A      4.370487   584A      4.378894  
     585A      4.381366   586A      4.388127   587A      4.459568  
     588A      4.464736   589A      4.465912   590A      4.466613  
     591A      4.470695   592A      4.478601   593A      4.481414  
     594A      4.484544   595A      4.488570   596A      4.492643  
     597A      4.503803   598A      4.505616   599A      4.509775  
     600A      4.512539   601A      4.533698   602A      4.560909  
     603A      4.619948   604A      4.620892   605A      4.623214  
     606A      4.625287   607A      4.626783   608A      4.633763  
     609A      4.675759   610A      4.680838   611A      4.686906  
     612A      4.690363   613A      4.696874   614A      4.698994  
     615A      4.701436   616A      4.703666   617A      4.706285  
     618A      4.707630   619A      4.709901   620A      4.712348  
     621A      4.712948   622A      4.718224   623A      4.723257  
     624A      4.728707   625A      4.734979   626A      4.738975  
     627A      4.739583   628A      4.741667   629A      4.746849  
     630A      4.753180   631A      4.754136   632A      4.756115  
     633A      4.765480   634A      4.769031   635A      4.771089  
     636A      4.772724   637A      4.774343   638A      4.775892  
     639A      4.779261   640A      4.780103   641A      4.781375  
     642A      4.781701   643A      4.784400   644A      4.786735  
     645A      4.788067   646A      4.790614   647A      4.793292  
     648A      4.797493   649A      4.800435   650A      4.805372  
     651A      4.811657   652A      4.815897   653A      4.830555  
     654A      4.841851   655A      4.846169   656A      4.850741  
     657A      4.853308   658A      4.856627   659A      4.859056  
     660A      4.860762   661A      4.862517   662A      4.864172  
     663A      4.866642   664A      4.870677   665A      4.872207  
     666A      4.874824   667A      4.875802   668A      4.879308  
     669A      4.881461   670A      4.884580   671A      4.889997  
     672A      4.891596   673A      4.896508   674A      4.911183  
     675A      4.912632   676A      4.915590   677A      4.917688  
     678A      4.925779   679A      4.929951   680A      4.946549  
     681A      4.949653   682A      4.951319   683A      4.952316  
     684A      4.954434   685A      4.955191   686A      4.957278  
     687A      4.958336   688A      4.959525   689A      4.969516  
     690A      4.974665   691A      4.976130   692A      4.979896  
     693A      4.984882   694A      4.990973   695A      4.993779  
     696A      4.995497   697A      4.998341   698A      5.006999  
     699A      5.011699   700A      5.022067   701A      5.043358  
     702A      5.055787   703A      5.057711   704A      5.060678  
     705A      5.063320   706A      5.069677   707A      5.075780  
     708A      5.087472   709A      5.098719   710A      5.101542  
     711A      5.103474   712A      5.118244   713A      5.126632  
     714A      5.138234   715A      5.169953   716A      5.178529  
     717A      5.181652   718A      5.190821   719A      5.293076  
     720A      5.296850   721A      5.297171   722A      5.301537  
     723A      5.304942   724A      5.309972   725A      5.316755  
     726A      5.340945   727A      5.364543   728A      5.370041  
     729A      5.374013   730A      5.376642   731A      5.380124  
     732A      5.384012   733A      5.424520   734A      5.424997  
     735A      5.428668   736A      5.433603   737A      5.439976  
     738A      5.455869   739A      5.458267   740A      5.463796  
     741A      5.465804   742A      5.490237   743A      5.607783  
     744A      5.611767   745A      5.616770   746A      5.618492  
     747A      5.627842   748A      5.631893   749A      5.812541  
     750A      5.817915   751A      6.605242   752A      6.620414  
     753A      6.653511   754A      6.656679   755A      6.671237  
     756A      6.675823   757A      6.685072   758A      6.687000  
     759A      6.688576   760A      6.689763   761A      6.690854  
     762A      6.691862   763A      6.692582   764A      6.701396  
     765A      6.766349   766A      6.767110   767A      6.768374  
     768A      6.769549   769A      6.832401   770A      6.835319  
     771A      6.836021   772A      6.837866   773A      6.848580  
     774A      6.856915   775A      6.872085   776A      6.875135  
     777A      6.877763   778A      6.883322   779A      6.914467  
     780A      6.924277   781A      7.114585   782A      7.115726  
     783A      7.116465   784A      7.120140   785A      7.211768  
     786A      7.213446   787A      7.215797   788A      7.217642  
     789A      7.219992   790A      7.233523   791A      7.287714  
     792A      7.290859   793A      7.292769   794A      7.296607  
     795A      7.307947   796A      7.329192   797A      7.341000  
     798A      7.345202   799A      7.349344   800A      7.375178  
     801A      7.553456   802A      7.559196   803A      7.743196  
     804A      7.750392   805A      7.750493   806A      7.757236  
     807A      7.759022   808A      7.769486   809A      7.828549  
     810A      7.830854   811A      7.834094   812A      7.835937  
     813A      7.841221   814A      7.847292   815A      8.522895  
     816A      8.523731   817A      8.528240   818A      8.529821  
     819A      8.531883   820A      8.541312   821A      8.760226  
     822A      8.773702   823A     24.781470   824A     24.836444  
     825A     26.689128   826A     26.704989   827A     26.727646  
     828A     26.732654   829A     26.746096   830A     26.757706  
     831A     26.889872   832A     26.942047  

    Final Occupation by Irrep:
              A 
    DOCC [    74 ]

  @DF-RHF Final Energy: -3751.86689454873067

   => Energetics <=

    Nuclear Repulsion Energy =           1381.5077812921479108
    One-Electron Energy =               -7940.4303899741717032
    Two-Electron Energy =                2807.0557141332928950
    Total Energy =                      -3751.8668945487306701

Computation Completed


Properties will be evaluated at   0.000000,  -0.000000,   0.000000 [a0]

Properties computed using the SCF density matrix

  Nuclear Dipole Moment: [e a0]
     X:    -0.0002      Y:     0.0001      Z:    -0.0004

  Electronic Dipole Moment: [e a0]
     X:     0.0082      Y:    -0.0017      Z:    -0.0011

  Dipole Moment: [e a0]
     X:     0.0079      Y:    -0.0017      Z:    -0.0014     Total:     0.0082

  Dipole Moment: [D]
     X:     0.0202      Y:    -0.0042      Z:    -0.0037     Total:     0.0209


*** tstop() called on node37.bme.utexas.edu at Tue Feb 22 21:26:31 2022
Module time:
	user time   =     572.12 seconds =       9.54 minutes
	system time =     103.67 seconds =       1.73 minutes
	total time  =        232 seconds =       3.87 minutes
Total time:
	user time   =    2596.90 seconds =      43.28 minutes
	system time =     402.43 seconds =       6.71 minutes
	total time  =       1034 seconds =      17.23 minutes

*** tstart() called on node37.bme.utexas.edu
*** at Tue Feb 22 21:26:31 2022


  //>>>>>>>>>>>>>>>>>>>>>>>>>>>>>>>>>>>//
  //               DFMP2               //
  //<<<<<<<<<<<<<<<<<<<<<<<<<<<<<<<<<<<//

   => Loading Basis Set <=

    Name: (AUG-CC-PVQZ AUX)
    Role: RIFIT
    Keyword: DF_BASIS_MP2
    atoms 1-4, 6-9 entry CL         line   914 file /home/bdw2292/miniconda3/envs/amoebamdpoltype/share/psi4/basis/aug-cc-pvqz-ri.gbs 
    atoms 5, 10    entry C          line   184 file /home/bdw2292/miniconda3/envs/amoebamdpoltype/share/psi4/basis/aug-cc-pvqz-ri.gbs 

	 --------------------------------------------------------
	                          DF-MP2                         
	      2nd-Order Density-Fitted Moller-Plesset Theory     
	              RMP2 Wavefunction,   4 Threads             
	                                                         
	        Rob Parrish, Justin Turney, Andy Simmonett,      
	           Ed Hohenstein, and C. David Sherrill          
	 --------------------------------------------------------

   => Auxiliary Basis Set <=

  Basis Set: (AUG-CC-PVQZ AUX)
    Blend: AUG-CC-PVQZ-RI
    Number of shells: 424
    Number of basis function: 1888
    Number of Cartesian functions: 2618
    Spherical Harmonics?: true
    Max angular momentum: 5

	 --------------------------------------------------------
	                 NBF =   832, NAUX =  1888
	 --------------------------------------------------------
	   CLASS    FOCC     OCC    AOCC    AVIR     VIR    FVIR
	   PAIRS      42      74      32     758     758       0
	 --------------------------------------------------------

	-----------------------------------------------------------
	 ==================> DF-MP2 Energies <==================== 
	-----------------------------------------------------------
	 Reference Energy          =   -3751.8668945487306701 [Eh]
	 Singles Energy            =      -0.0000000000000000 [Eh]
	 Same-Spin Energy          =      -0.5105778377001513 [Eh]
	 Opposite-Spin Energy      =      -1.5452707645075083 [Eh]
	 Correlation Energy        =      -2.0558486022076599 [Eh]
	 Total Energy              =   -3753.9227431509384587 [Eh]
	-----------------------------------------------------------
	 ================> DF-SCS-MP2 Energies <================== 
	-----------------------------------------------------------
	 SCS Same-Spin Scale       =       0.3333333333333333 [-]
	 SCS Opposite-Spin Scale   =       1.2000000000000000 [-]
	 SCS Same-Spin Energy      =      -0.1701926125667171 [Eh]
	 SCS Opposite-Spin Energy  =      -1.8543249174090100 [Eh]
	 SCS Correlation Energy    =      -2.0245175299757272 [Eh]
	 SCS Total Energy          =   -3753.8914120787062529 [Eh]
	-----------------------------------------------------------


*** tstop() called on node37.bme.utexas.edu at Tue Feb 22 21:27:36 2022
Module time:
	user time   =     195.35 seconds =       3.26 minutes
	system time =       9.57 seconds =       0.16 minutes
	total time  =         65 seconds =       1.08 minutes
Total time:
	user time   =    2792.25 seconds =      46.54 minutes
	system time =     412.00 seconds =       6.87 minutes
	total time  =       1099 seconds =      18.32 minutes

  //>>>>>>>>>>>>>>>>>>>>>>>>>>>>>>>>>>>//
  //  CBS Results: mp2/aug-cc-pV[TQ]Z  //
  //<<<<<<<<<<<<<<<<<<<<<<<<<<<<<<<<<<<//


   ==> HF <==

   HI-zeta (4) Energy:               -3751.866894548731


   ==> Helgaker 2-point correlated extrapolation for method: MP2 <==

   LO-zeta (3) Energy:               -3753.737332548624
   HI-zeta (4) Energy:               -3753.922743150938
   Alpha (exponent) Value:             3.000000000000
   Extrapolated Energy:              -3754.058042779654

   @Extrapolated MP2/(T,Q):          -3754.058042779654



   ==> Helgaker 2-point correlated extrapolation for method: HF <==

   LO-zeta (3) Energy:               -3751.832345726112
   HI-zeta (4) Energy:               -3751.866894548731
   Alpha (exponent) Value:             3.000000000000
   Extrapolated Energy:              -3751.892105851723

   @Extrapolated HF/(T,Q):           -3751.892105851723


   ==> Components <==

  ---------------------------------------------------------------------------------------------------------
                          Method / Basis                      Rqd      Energy [Eh]   Variable
  ---------------------------------------------------------------------------------------------------------
                              hf / aug-cc-pvtz                  *   -3751.83234573   HF TOTAL ENERGY
                             mp2 / aug-cc-pvtz                  *   -3753.73733255   MP2 TOTAL ENERGY
                              hf / aug-cc-pvqz                  *   -3751.86689455   HF TOTAL ENERGY
                             mp2 / aug-cc-pvqz                  *   -3753.92274315   MP2 TOTAL ENERGY
  ---------------------------------------------------------------------------------------------------------

   ==> Stages <==

  ---------------------------------------------------------------------------------------------------------
      Stage               Method / Basis                       Wt      Energy [Eh]   Scheme
  ---------------------------------------------------------------------------------------------------------
        scf                   hf / aug-cc-pvqz                  1   -3751.86689455   xtpl_highest_1
       corl                  mp2 / aug-cc-pv[tq]z               1   -3754.05804278   corl_xtpl_helgaker_2
       corl                   hf / aug-cc-pv[tq]z              -1   -3751.89210585   corl_xtpl_helgaker_2
  ---------------------------------------------------------------------------------------------------------

   ==> CBS <==

  ---------------------------------------------------------------------------------------------------------
      Stage               Method / Basis                               Energy [Eh]   Scheme
  ---------------------------------------------------------------------------------------------------------
        scf                   hf / aug-cc-pvqz                      -3751.86689455   xtpl_highest_1
       corl                  mp2 / aug-cc-pv[tq]z                      -2.16593693   corl_xtpl_helgaker_2
      total                  CBS                                    -3754.03283148   
  ---------------------------------------------------------------------------------------------------------
   => Loading Basis Set <=

    Name: DEF2-SVP
    Role: ORBITAL
    Keyword: BASIS
    atoms 1-4, 6-9 entry CL         line   356 file /home/bdw2292/miniconda3/envs/amoebamdpoltype/share/psi4/basis/def2-svp.gbs 
    atoms 5, 10    entry C          line    90 file /home/bdw2292/miniconda3/envs/amoebamdpoltype/share/psi4/basis/def2-svp.gbs 


       N-Body: Complex Energy (fragments = (1, 2), basis = (1, 2): -3754.03283147666298)

   ==> N-Body: Counterpoise Corrected (CP) energies <==

   n-Body     Total Energy [Eh]       I.E. [kcal/mol]      Delta [kcal/mol]
        1    -3754.029707808962        0.000000000000        0.000000000000
        2    -3754.032703656580       -1.879922761983       -1.879922761983

   => Loading Basis Set <=

    Name: DEF2-SVP
    Role: ORBITAL
    Keyword: BASIS
    atoms 1-4, 6-9 entry CL         line   356 file /home/bdw2292/miniconda3/envs/amoebamdpoltype/share/psi4/basis/def2-svp.gbs 
    atoms 5, 10    entry C          line    90 file /home/bdw2292/miniconda3/envs/amoebamdpoltype/share/psi4/basis/def2-svp.gbs 

CP Energy =  -0.002996
    Psi4 stopped on: Tuesday, 22 February 2022 09:27PM
    Psi4 wall time for execution: 0:18:19.99

*** Psi4 exiting successfully. Buy a developer a beer!
