
    -----------------------------------------------------------------------
          Psi4: An Open-Source Ab Initio Electronic Structure Package
                               Psi4 1.3.2 release

                         Git: Rev {HEAD} ecbda83 


    R. M. Parrish, L. A. Burns, D. G. A. Smith, A. C. Simmonett,
    A. E. DePrince III, E. G. Hohenstein, U. Bozkaya, A. Yu. Sokolov,
    R. Di Remigio, R. M. Richard, J. F. Gonthier, A. M. James,
    H. R. McAlexander, A. Kumar, M. Saitow, X. Wang, B. P. Pritchard,
    P. Verma, H. F. Schaefer III, K. Patkowski, R. A. King, E. F. Valeev,
    F. A. Evangelista, J. M. Turney, T. D. Crawford, and C. D. Sherrill,
    J. Chem. Theory Comput. 13(7) pp 3185--3197 (2017).
    (doi: 10.1021/acs.jctc.7b00174)


                         Additional Contributions by
    P. Kraus, H. Kruse, M. H. Lechner, M. C. Schieber, R. A. Shaw,
    A. Alenaizan, R. Galvelis, Z. L. Glick, S. Lehtola, and J. P. Misiewicz

    -----------------------------------------------------------------------


    Psi4 started on: Tuesday, 22 February 2022 09:09PM

    Process ID: 15841
    Host:       node37.bme.utexas.edu
    PSIDATADIR: /home/bdw2292/miniconda3/envs/amoebamdpoltype/share/psi4
    Memory:     500.0 MiB
    Threads:    1
    
  ==> Input File <==

--------------------------------------------------------------------------
molecule { 
0 1
 Cl                 -1.5149002    -0.4329419     0.6007099
 Cl                 -1.6714920     1.8711931    -1.1316761
 Cl                 -2.5967290    -0.7042083    -2.0629299
 Cl                  0.2287502    -0.2297564    -1.6989855
  C                 -1.3875751     0.1256205    -1.0727028
--
0 1
 Cl                  0.8717221    -1.6906914     3.6280011
 Cl                  2.4471669    -0.1778208     1.7331652
 Cl                  1.6584900    -2.8924282     1.1169620
 Cl                  3.6344172    -2.3890236     3.1625380
  C                  2.1511481    -1.7868373     2.4083396
}
memory 15GB
set_num_threads(4)
psi4_io.set_default_path("/scratch/bdw2292/Psi4-CCl4")
set maxiter 500
set freeze_core True
set PROPERTIES_ORIGIN ["COM"]
e_dim= energy('mp2/aug-cc-pV[TQ]Z',bsse_type='cp')

psi4.print_out('CP Energy = %10.6f' % (e_dim))
clean()
--------------------------------------------------------------------------

  Memory set to  13.970 GiB by Python driver.
  Threads set to 4 by Python driver.


   ===> N-Body Interaction Abacus <===
        BSSE Treatment:                     cp
        Number of 1-body computations:     4
        Number of 2-body computations:     1

   ==> N-Body: Now computing 1-body complexes <==


       N-Body: Computing complex (1/4) with fragments (2,) in the basis of fragments (2,).


  //>>>>>>>>>>>>>>>>>>>>>>>>>>>>>>>>>>>//
  //   CBS Setup: mp2/aug-cc-pV[TQ]Z   //
  //<<<<<<<<<<<<<<<<<<<<<<<<<<<<<<<<<<<//

    Naive listing of computations required.
             hf / aug-cc-pvqz              for  HF TOTAL ENERGY
            mp2 / aug-cc-pvtz              for  MP2 TOTAL ENERGY
            mp2 / aug-cc-pvqz              for  MP2 TOTAL ENERGY
             hf / aug-cc-pvtz              for  HF TOTAL ENERGY
             hf / aug-cc-pvqz              for  HF TOTAL ENERGY

    Enlightened listing of computations required.
            mp2 / aug-cc-pvtz              for  MP2 TOTAL ENERGY
            mp2 / aug-cc-pvqz              for  MP2 TOTAL ENERGY

    Full listing of computations to be obtained (required and bonus).
             hf / aug-cc-pvtz              for  HF TOTAL ENERGY
            mp2 / aug-cc-pvtz              for  MP2 TOTAL ENERGY
             hf / aug-cc-pvqz              for  HF TOTAL ENERGY
            mp2 / aug-cc-pvqz              for  MP2 TOTAL ENERGY

  //>>>>>>>>>>>>>>>>>>>>>>>>>>>>>>>>>>>>//
  // CBS Computation: MP2 / AUG-CC-PVTZ //
  //<<<<<<<<<<<<<<<<<<<<<<<<<<<<<<<<<<<<//

    SCF Algorithm Type (re)set to DF.

*** tstart() called on node37.bme.utexas.edu
*** at Tue Feb 22 21:09:11 2022

   => Loading Basis Set <=

    Name: AUG-CC-PVTZ
    Role: ORBITAL
    Keyword: BASIS
    atoms 1-4 entry CL         line   984 file /home/bdw2292/miniconda3/envs/amoebamdpoltype/share/psi4/basis/aug-cc-pvtz.gbs 
    atoms 5   entry C          line   235 file /home/bdw2292/miniconda3/envs/amoebamdpoltype/share/psi4/basis/aug-cc-pvtz.gbs 


         ---------------------------------------------------------
                                   SCF
               by Justin Turney, Rob Parrish, Andy Simmonett
                          and Daniel G. A. Smith
                              RHF Reference
                        4 Threads,  14305 MiB Core
         ---------------------------------------------------------

  ==> Geometry <==

    Molecular point group: c1
    Full point group: C1

    Geometry (in Angstrom), charge = 0, multiplicity = 1:

       Center              X                  Y                   Z               Mass       
    ------------   -----------------  -----------------  -----------------  -----------------
         CL           0.489574895101    -0.859989715441     2.959579740755    34.968852682000
         CL           2.065019695101     0.652880884559     1.064743840755    34.968852682000
         CL           1.276342795101    -2.061726515441     0.448540640755    34.968852682000
         CL           3.252269995101    -1.558321915441     2.494116640755    34.968852682000
         C            1.769000895101    -0.956135615441     1.739918240755    12.000000000000

  Running in c1 symmetry.

  Rotational constants: A =      0.05763  B =      0.01233  C =      0.01232 [cm^-1]
  Rotational constants: A =   1727.75809  B =    369.52769  C =    369.45566 [MHz]
  Nuclear repulsion =  439.464152167103862

  Charge       = 0
  Multiplicity = 1
  Electrons    = 74
  Nalpha       = 37
  Nbeta        = 37

  ==> Algorithm <==

  SCF Algorithm Type is DF.
  DIIS enabled.
  MOM disabled.
  Fractional occupation disabled.
  Guess Type is SAD.
  Energy threshold   = 1.00e-08
  Density threshold  = 1.00e-08
  Integral threshold = 0.00e+00

  ==> Primary Basis <==

  Basis Set: AUG-CC-PVTZ
    Blend: AUG-CC-PVTZ
    Number of shells: 78
    Number of basis function: 246
    Number of Cartesian functions: 291
    Spherical Harmonics?: true
    Max angular momentum: 3

   => Loading Basis Set <=

    Name: (AUG-CC-PVTZ AUX)
    Role: JKFIT
    Keyword: DF_BASIS_SCF
    atoms 1-4 entry CL         line   816 file /home/bdw2292/miniconda3/envs/amoebamdpoltype/share/psi4/basis/aug-cc-pvtz-jkfit.gbs 
    atoms 5   entry C          line   162 file /home/bdw2292/miniconda3/envs/amoebamdpoltype/share/psi4/basis/aug-cc-pvtz-jkfit.gbs 

  ==> Pre-Iterations <==

   -------------------------------------------------------
    Irrep   Nso     Nmo     Nalpha   Nbeta   Ndocc  Nsocc
   -------------------------------------------------------
     A        246     246       0       0       0       0
   -------------------------------------------------------
    Total     246     246      37      37      37       0
   -------------------------------------------------------

  ==> Integral Setup <==

  DFHelper Memory: AOs need 0.328 GiB; user supplied 10.477 GiB. Using in-core AOs.

  ==> MemDFJK: Density-Fitted J/K Matrices <==

    J tasked:                   Yes
    K tasked:                   Yes
    wK tasked:                   No
    OpenMP threads:               4
    Memory [MiB]:             10728
    Algorithm:                 Core
    Schwarz Cutoff:           1E-12
    Mask sparsity (%):       0.0000
    Fitting Condition:        1E-10

   => Auxiliary Basis Set <=

  Basis Set: (AUG-CC-PVTZ AUX)
    Blend: AUG-CC-PVTZ-JKFIT
    Number of shells: 198
    Number of basis function: 688
    Number of Cartesian functions: 851
    Spherical Harmonics?: true
    Max angular momentum: 4

  Minimum eigenvalue in the overlap matrix is 8.0653697366E-05.
  Using Symmetric Orthogonalization.

  SCF Guess: Superposition of Atomic Densities via on-the-fly atomic UHF.

  ==> Iterations <==

                           Total Energy        Delta E     RMS |[F,P]|

   @DF-RHF iter SAD: -1875.94739075678058   -1.87595e+03   0.00000e+00 
   @DF-RHF iter   1: -1875.79715760310478    1.50233e-01   1.87152e-03 DIIS
   @DF-RHF iter   2: -1875.83576534337999   -3.86077e-02   1.72633e-03 DIIS
   @DF-RHF iter   3: -1875.91353992261884   -7.77746e-02   1.84940e-04 DIIS
   @DF-RHF iter   4: -1875.91602064264362   -2.48072e-03   6.47784e-05 DIIS
   @DF-RHF iter   5: -1875.91635362228726   -3.32980e-04   1.31615e-05 DIIS
   @DF-RHF iter   6: -1875.91636982733121   -1.62050e-05   2.18486e-06 DIIS
   @DF-RHF iter   7: -1875.91637003706205   -2.09731e-07   2.46483e-07 DIIS
   @DF-RHF iter   8: -1875.91637004145491   -4.39286e-09   5.71606e-08 DIIS
   @DF-RHF iter   9: -1875.91637004166546   -2.10548e-10   1.87949e-08 DIIS
   @DF-RHF iter  10: -1875.91637004169002   -2.45564e-11   4.96382e-09 DIIS
  Energy and wave function converged.


  ==> Post-Iterations <==

    Orbital Energies [Eh]
    ---------------------

    Doubly Occupied:                                                      

       1A   -104.878877     2A   -104.878829     3A   -104.878715  
       4A   -104.878430     5A    -11.499720     6A    -10.603289  
       7A    -10.603245     8A    -10.603132     9A    -10.602885  
      10A     -8.070056    11A     -8.070013    12A     -8.069900  
      13A     -8.069652    14A     -8.067767    15A     -8.067767  
      16A     -8.067724    17A     -8.067724    18A     -8.067612  
      19A     -8.067612    20A     -8.067363    21A     -8.067363  
      22A     -1.282453    23A     -1.128490    24A     -1.128321  
      25A     -1.128008    26A     -0.834212    27A     -0.658325  
      28A     -0.658219    29A     -0.657991    30A     -0.532336  
      31A     -0.532274    32A     -0.489353    33A     -0.489212  
      34A     -0.488881    35A     -0.461024    36A     -0.460755  
      37A     -0.460677  

    Virtual:                                                              

      38A      0.047763    39A      0.070249    40A      0.070269  
      41A      0.070317    42A      0.086441    43A      0.107621  
      44A      0.107650    45A      0.107683    46A      0.120442  
      47A      0.120448    48A      0.161707    49A      0.161747  
      50A      0.161761    51A      0.181007    52A      0.181190  
      53A      0.181307    54A      0.192729    55A      0.192964  
      56A      0.193031    57A      0.211263    58A      0.260136  
      59A      0.260328    60A      0.260379    61A      0.267966  
      62A      0.318119    63A      0.318209    64A      0.318592  
      65A      0.351898    66A      0.351934    67A      0.393880  
      68A      0.394037    69A      0.394063    70A      0.414689  
      71A      0.414723    72A      0.430223    73A      0.430429  
      74A      0.430518    75A      0.498936    76A      0.499076  
      77A      0.499124    78A      0.518118    79A      0.518132  
      80A      0.518204    81A      0.521142    82A      0.523858  
      83A      0.523921    84A      0.572406    85A      0.572441  
      86A      0.572453    87A      0.734350    88A      0.745338  
      89A      0.745663    90A      0.745725    91A      0.785950  
      92A      0.786093    93A      0.786139    94A      0.817415  
      95A      0.817470    96A      0.819988    97A      0.820418  
      98A      0.820465    99A      0.830404   100A      0.831042  
     101A      0.831187   102A      0.845040   103A      0.872120  
     104A      0.872133   105A      0.872175   106A      0.904719  
     107A      0.904788   108A      0.904816   109A      0.940050  
     110A      0.940082   111A      0.957224   112A      0.957482  
     113A      0.957568   114A      1.048943   115A      1.050568  
     116A      1.051147   117A      1.051392   118A      1.081613  
     119A      1.081634   120A      1.126670   121A      1.126825  
     122A      1.127342   123A      1.128619   124A      1.161675  
     125A      1.161854   126A      1.161958   127A      1.210545  
     128A      1.211023   129A      1.211178   130A      1.314792  
     131A      1.314912   132A      1.315445   133A      1.322735  
     134A      1.322955   135A      1.342700   136A      1.511477  
     137A      1.511772   138A      1.518115   139A      1.518648  
     140A      1.518747   141A      1.564648   142A      1.564719  
     143A      1.564751   144A      1.661067   145A      1.661607  
     146A      1.663447   147A      1.673997   148A      1.746148  
     149A      1.746548   150A      1.746666   151A      1.759356  
     152A      1.759672   153A      1.759854   154A      1.874151  
     155A      1.874486   156A      1.875088   157A      1.875487  
     158A      1.888308   159A      1.889185   160A      1.889375  
     161A      1.906617   162A      1.906690   163A      1.992682  
     164A      1.992761   165A      1.993249   166A      2.274255  
     167A      2.500402   168A      2.500466   169A      2.579336  
     170A      2.580106   171A      2.580345   172A      2.586885  
     173A      2.586992   174A      2.587055   175A      2.611730  
     176A      2.611862   177A      2.613830   178A      2.613946  
     179A      2.614024   180A      2.685616   181A      2.697456  
     182A      2.697515   183A      2.697532   184A      2.717455  
     185A      2.719239   186A      2.719626   187A      2.904655  
     188A      2.904770   189A      2.905274   190A      2.984936  
     191A      2.985050   192A      2.985100   193A      3.029587  
     194A      3.035086   195A      3.035200   196A      3.073288  
     197A      3.073536   198A      3.074219   199A      3.084515  
     200A      3.085511   201A      3.088584   202A      3.096577  
     203A      3.096664   204A      3.096705   205A      3.122713  
     206A      3.140368   207A      3.148256   208A      3.148567  
     209A      3.149762   210A      3.206935   211A      3.207281  
     212A      3.207491   213A      3.215292   214A      3.215316  
     215A      3.242959   216A      3.243143   217A      3.243197  
     218A      3.348346   219A      3.349182   220A      3.349473  
     221A      3.427750   222A      3.427979   223A      3.428366  
     224A      3.535393   225A      3.535643   226A      3.771370  
     227A      3.771546   228A      3.771811   229A      3.873732  
     230A      4.006600   231A      4.007113   232A      4.008256  
     233A      4.107461   234A      4.108015   235A      4.297633  
     236A      4.297733   237A      4.297875   238A      4.723834  
     239A      4.724203   240A      4.724445   241A      4.848036  
     242A      6.591877   243A      7.634913   244A      7.636341  
     245A      7.642480   246A     10.773356  

    Final Occupation by Irrep:
              A 
    DOCC [    37 ]

  @DF-RHF Final Energy: -1875.91637004169002

   => Energetics <=

    Nuclear Repulsion Energy =            439.4641521671038618
    One-Electron Energy =               -3467.4846315022418821
    Two-Electron Energy =                1152.1041092934481185
    Total Energy =                      -1875.9163700416900156

Computation Completed


Properties will be evaluated at   3.346062,  -1.807972,   3.291149 [a0]

Properties computed using the SCF density matrix

  Nuclear Dipole Moment: [e a0]
     X:    -0.0005      Y:     0.0002      Z:    -0.0005

  Electronic Dipole Moment: [e a0]
     X:    -0.0005      Y:     0.0003      Z:    -0.0012

  Dipole Moment: [e a0]
     X:    -0.0011      Y:     0.0005      Z:    -0.0017     Total:     0.0021

  Dipole Moment: [D]
     X:    -0.0027      Y:     0.0013      Z:    -0.0044     Total:     0.0053


*** tstop() called on node37.bme.utexas.edu at Tue Feb 22 21:09:17 2022
Module time:
	user time   =      16.68 seconds =       0.28 minutes
	system time =       1.32 seconds =       0.02 minutes
	total time  =          6 seconds =       0.10 minutes
Total time:
	user time   =      16.68 seconds =       0.28 minutes
	system time =       1.32 seconds =       0.02 minutes
	total time  =          6 seconds =       0.10 minutes

*** tstart() called on node37.bme.utexas.edu
*** at Tue Feb 22 21:09:17 2022


  //>>>>>>>>>>>>>>>>>>>>>>>>>>>>>>>>>>>//
  //               DFMP2               //
  //<<<<<<<<<<<<<<<<<<<<<<<<<<<<<<<<<<<//

   => Loading Basis Set <=

    Name: (AUG-CC-PVTZ AUX)
    Role: RIFIT
    Keyword: DF_BASIS_MP2
    atoms 1-4 entry CL         line   742 file /home/bdw2292/miniconda3/envs/amoebamdpoltype/share/psi4/basis/aug-cc-pvtz-ri.gbs 
    atoms 5   entry C          line   148 file /home/bdw2292/miniconda3/envs/amoebamdpoltype/share/psi4/basis/aug-cc-pvtz-ri.gbs 

	 --------------------------------------------------------
	                          DF-MP2                         
	      2nd-Order Density-Fitted Moller-Plesset Theory     
	              RMP2 Wavefunction,   4 Threads             
	                                                         
	        Rob Parrish, Justin Turney, Andy Simmonett,      
	           Ed Hohenstein, and C. David Sherrill          
	 --------------------------------------------------------

   => Auxiliary Basis Set <=

  Basis Set: (AUG-CC-PVTZ AUX)
    Blend: AUG-CC-PVTZ-RI
    Number of shells: 176
    Number of basis function: 694
    Number of Cartesian functions: 900
    Spherical Harmonics?: true
    Max angular momentum: 4

	 --------------------------------------------------------
	                 NBF =   246, NAUX =   694
	 --------------------------------------------------------
	   CLASS    FOCC     OCC    AOCC    AVIR     VIR    FVIR
	   PAIRS      21      37      16     209     209       0
	 --------------------------------------------------------

	-----------------------------------------------------------
	 ==================> DF-MP2 Energies <==================== 
	-----------------------------------------------------------
	 Reference Energy          =   -1875.9163700416900156 [Eh]
	 Singles Energy            =      -0.0000000000000000 [Eh]
	 Same-Spin Energy          =      -0.2463651756948791 [Eh]
	 Opposite-Spin Energy      =      -0.7042355718142608 [Eh]
	 Correlation Energy        =      -0.9506007475091399 [Eh]
	 Total Energy              =   -1876.8669707891990583 [Eh]
	-----------------------------------------------------------
	 ================> DF-SCS-MP2 Energies <================== 
	-----------------------------------------------------------
	 SCS Same-Spin Scale       =       0.3333333333333333 [-]
	 SCS Opposite-Spin Scale   =       1.2000000000000000 [-]
	 SCS Same-Spin Energy      =      -0.0821217252316264 [Eh]
	 SCS Opposite-Spin Energy  =      -0.8450826861771129 [Eh]
	 SCS Correlation Energy    =      -0.9272044114087393 [Eh]
	 SCS Total Energy          =   -1876.8435744530986540 [Eh]
	-----------------------------------------------------------


*** tstop() called on node37.bme.utexas.edu at Tue Feb 22 21:09:19 2022
Module time:
	user time   =       7.27 seconds =       0.12 minutes
	system time =       0.47 seconds =       0.01 minutes
	total time  =          2 seconds =       0.03 minutes
Total time:
	user time   =      23.95 seconds =       0.40 minutes
	system time =       1.79 seconds =       0.03 minutes
	total time  =          8 seconds =       0.13 minutes

  //>>>>>>>>>>>>>>>>>>>>>>>>>>>>>>>>>>>>//
  // CBS Computation: MP2 / AUG-CC-PVQZ //
  //<<<<<<<<<<<<<<<<<<<<<<<<<<<<<<<<<<<<//

    SCF Algorithm Type (re)set to DF.

*** tstart() called on node37.bme.utexas.edu
*** at Tue Feb 22 21:09:19 2022

   => Loading Basis Set <=

    Name: AUG-CC-PVQZ
    Role: ORBITAL
    Keyword: BASIS
    atoms 1-4 entry CL         line  1218 file /home/bdw2292/miniconda3/envs/amoebamdpoltype/share/psi4/basis/aug-cc-pvqz.gbs 
    atoms 5   entry C          line   299 file /home/bdw2292/miniconda3/envs/amoebamdpoltype/share/psi4/basis/aug-cc-pvqz.gbs 


         ---------------------------------------------------------
                                   SCF
               by Justin Turney, Rob Parrish, Andy Simmonett
                          and Daniel G. A. Smith
                              RHF Reference
                        4 Threads,  14305 MiB Core
         ---------------------------------------------------------

  ==> Geometry <==

    Molecular point group: c1
    Full point group: C1

    Geometry (in Angstrom), charge = 0, multiplicity = 1:

       Center              X                  Y                   Z               Mass       
    ------------   -----------------  -----------------  -----------------  -----------------
         CL           0.489574895101    -0.859989715441     2.959579740755    34.968852682000
         CL           2.065019695101     0.652880884559     1.064743840755    34.968852682000
         CL           1.276342795101    -2.061726515441     0.448540640755    34.968852682000
         CL           3.252269995101    -1.558321915441     2.494116640755    34.968852682000
         C            1.769000895101    -0.956135615441     1.739918240755    12.000000000000

  Running in c1 symmetry.

  Rotational constants: A =      0.05763  B =      0.01233  C =      0.01232 [cm^-1]
  Rotational constants: A =   1727.75809  B =    369.52769  C =    369.45566 [MHz]
  Nuclear repulsion =  439.464152167103862

  Charge       = 0
  Multiplicity = 1
  Electrons    = 74
  Nalpha       = 37
  Nbeta        = 37

  ==> Algorithm <==

  SCF Algorithm Type is DF.
  DIIS enabled.
  MOM disabled.
  Fractional occupation disabled.
  Guess Type is SAD.
  Energy threshold   = 1.00e-08
  Density threshold  = 1.00e-08
  Integral threshold = 0.00e+00

  ==> Primary Basis <==

  Basis Set: AUG-CC-PVQZ
    Blend: AUG-CC-PVQZ
    Number of shells: 108
    Number of basis function: 416
    Number of Cartesian functions: 541
    Spherical Harmonics?: true
    Max angular momentum: 4

   => Loading Basis Set <=

    Name: (AUG-CC-PVQZ AUX)
    Role: JKFIT
    Keyword: DF_BASIS_SCF
    atoms 1-4 entry CL         line   904 file /home/bdw2292/miniconda3/envs/amoebamdpoltype/share/psi4/basis/aug-cc-pvqz-jkfit.gbs 
    atoms 5   entry C          line   178 file /home/bdw2292/miniconda3/envs/amoebamdpoltype/share/psi4/basis/aug-cc-pvqz-jkfit.gbs 

  ==> Pre-Iterations <==

   -------------------------------------------------------
    Irrep   Nso     Nmo     Nalpha   Nbeta   Ndocc  Nsocc
   -------------------------------------------------------
     A        416     416       0       0       0       0
   -------------------------------------------------------
    Total     416     416      37      37      37       0
   -------------------------------------------------------

  ==> Integral Setup <==

  DFHelper Memory: AOs need 1.181 GiB; user supplied 10.477 GiB. Using in-core AOs.

  ==> MemDFJK: Density-Fitted J/K Matrices <==

    J tasked:                   Yes
    K tasked:                   Yes
    wK tasked:                   No
    OpenMP threads:               4
    Memory [MiB]:             10728
    Algorithm:                 Core
    Schwarz Cutoff:           1E-12
    Mask sparsity (%):       0.4253
    Fitting Condition:        1E-10

   => Auxiliary Basis Set <=

  Basis Set: (AUG-CC-PVQZ AUX)
    Blend: AUG-CC-PVQZ-JKFIT
    Number of shells: 218
    Number of basis function: 878
    Number of Cartesian functions: 1186
    Spherical Harmonics?: true
    Max angular momentum: 5

  Minimum eigenvalue in the overlap matrix is 1.3117248315E-05.
  Using Symmetric Orthogonalization.

  SCF Guess: Superposition of Atomic Densities via on-the-fly atomic UHF.

  ==> Iterations <==

                           Total Energy        Delta E     RMS |[F,P]|

   @DF-RHF iter SAD: -1875.95817408412040   -1.87596e+03   0.00000e+00 
   @DF-RHF iter   1: -1875.81433950294013    1.43835e-01   1.13073e-03 DIIS
   @DF-RHF iter   2: -1875.85328984020521   -3.89503e-02   1.03612e-03 DIIS
   @DF-RHF iter   3: -1875.93068907715906   -7.73992e-02   1.16246e-04 DIIS
   @DF-RHF iter   4: -1875.93324063144587   -2.55155e-03   4.23326e-05 DIIS
   @DF-RHF iter   5: -1875.93365689056191   -4.16259e-04   8.49140e-06 DIIS
   @DF-RHF iter   6: -1875.93367537434119   -1.84838e-05   1.39750e-06 DIIS
   @DF-RHF iter   7: -1875.93367561131868   -2.36977e-07   1.74839e-07 DIIS
   @DF-RHF iter   8: -1875.93367561729974   -5.98106e-09   4.11585e-08 DIIS
   @DF-RHF iter   9: -1875.93367561762216   -3.22416e-10   1.29809e-08 DIIS
   @DF-RHF iter  10: -1875.93367561764467   -2.25100e-11   3.78640e-09 DIIS
  Energy and wave function converged.


  ==> Post-Iterations <==

    Orbital Energies [Eh]
    ---------------------

    Doubly Occupied:                                                      

       1A   -104.876387     2A   -104.876339     3A   -104.876226  
       4A   -104.875942     5A    -11.496963     6A    -10.602042  
       7A    -10.601998     8A    -10.601886     9A    -10.601639  
      10A     -8.069013    11A     -8.068970    12A     -8.068857  
      13A     -8.068610    14A     -8.066917    15A     -8.066916  
      16A     -8.066874    17A     -8.066874    18A     -8.066762  
      19A     -8.066761    20A     -8.066513    21A     -8.066513  
      22A     -1.281360    23A     -1.127772    24A     -1.127603  
      25A     -1.127291    26A     -0.833865    27A     -0.658094  
      28A     -0.657989    29A     -0.657760    30A     -0.532041  
      31A     -0.531979    32A     -0.489044    33A     -0.488903  
      34A     -0.488572    35A     -0.460758    36A     -0.460489  
      37A     -0.460410  

    Virtual:                                                              

      38A      0.040100    39A      0.057973    40A      0.057990  
      41A      0.058028    42A      0.083893    43A      0.091776  
      44A      0.091793    45A      0.091802    46A      0.096212  
      47A      0.096216    48A      0.136296    49A      0.136317  
      50A      0.136327    51A      0.159605    52A      0.159944  
      53A      0.160104    54A      0.168416    55A      0.168436  
      56A      0.168512    57A      0.177043    58A      0.215151  
      59A      0.215277    60A      0.215307    61A      0.230039  
      62A      0.255418    63A      0.255459    64A      0.255696  
      65A      0.295646    66A      0.295665    67A      0.316619  
      68A      0.316661    69A      0.326469    70A      0.326923  
      71A      0.327055    72A      0.350595    73A      0.350658  
      74A      0.350695    75A      0.360033    76A      0.360196  
      77A      0.360731    78A      0.369654    79A      0.369665  
      80A      0.369684    81A      0.383450    82A      0.433240  
      83A      0.433265    84A      0.449852    85A      0.449866  
      86A      0.449882    87A      0.552149    88A      0.558629  
      89A      0.558786    90A      0.559288    91A      0.578705  
      92A      0.578725    93A      0.581224    94A      0.581341  
      95A      0.581362    96A      0.600131    97A      0.600538  
      98A      0.600635    99A      0.604219   100A      0.604495  
     101A      0.604557   102A      0.634642   103A      0.648008  
     104A      0.648829   105A      0.649094   106A      0.683654  
     107A      0.683688   108A      0.683747   109A      0.685659  
     110A      0.685677   111A      0.737666   112A      0.738162  
     113A      0.738283   114A      0.790587   115A      0.790594  
     116A      0.802190   117A      0.809766   118A      0.810059  
     119A      0.810175   120A      0.874573   121A      0.874636  
     122A      0.874727   123A      0.879177   124A      0.880612  
     125A      0.880657   126A      0.880733   127A      0.931849  
     128A      0.931906   129A      0.932106   130A      1.025739  
     131A      1.039017   132A      1.039056   133A      1.039132  
     134A      1.087835   135A      1.087849   136A      1.106361  
     137A      1.106484   138A      1.106743   139A      1.121361  
     140A      1.121366   141A      1.131993   142A      1.154646  
     143A      1.154796   144A      1.154837   145A      1.173952  
     146A      1.174089   147A      1.174597   148A      1.198049  
     149A      1.198139   150A      1.198186   151A      1.241177  
     152A      1.241238   153A      1.241286   154A      1.271693  
     155A      1.272252   156A      1.272378   157A      1.272740  
     158A      1.295604   159A      1.296095   160A      1.296226  
     161A      1.363771   162A      1.430311   163A      1.430358  
     164A      1.430434   165A      1.458287   166A      1.458422  
     167A      1.643856   168A      1.643977   169A      1.644520  
     170A      1.675378   171A      1.675381   172A      1.766597  
     173A      1.766693   174A      1.766854   175A      1.771913  
     176A      1.772065   177A      1.772512   178A      1.772949  
     179A      1.773102   180A      1.784384   181A      1.784469  
     182A      1.784526   183A      1.794838   184A      1.848821  
     185A      1.849259   186A      1.849375   187A      1.899765  
     188A      1.899784   189A      1.899802   190A      1.929278  
     191A      1.929459   192A      1.955084   193A      1.955570  
     194A      1.955653   195A      1.992724   196A      1.992746  
     197A      2.020243   198A      2.020637   199A      2.021807  
     200A      2.026633   201A      2.050332   202A      2.050580  
     203A      2.050629   204A      2.096634   205A      2.096945  
     206A      2.097019   207A      2.099330   208A      2.112693  
     209A      2.112918   210A      2.122171   211A      2.122320  
     212A      2.122368   213A      2.184658   214A      2.184842  
     215A      2.185548   216A      2.192057   217A      2.224916  
     218A      2.225857   219A      2.226105   220A      2.238901  
     221A      2.239164   222A      2.240094   223A      2.273003  
     224A      2.273087   225A      2.273123   226A      2.276568  
     227A      2.277145   228A      2.277294   229A      2.311824  
     230A      2.311899   231A      2.311981   232A      2.370653  
     233A      2.380004   234A      2.380042   235A      2.468157  
     236A      2.468546   237A      2.469394   238A      2.469709  
     239A      2.471380   240A      2.471582   241A      2.471622  
     242A      2.516714   243A      2.522709   244A      2.522811  
     245A      2.523479   246A      2.530884   247A      2.530923  
     248A      2.588433   249A      2.643813   250A      2.644129  
     251A      2.644282   252A      2.655010   253A      2.655304  
     254A      2.656759   255A      2.800575   256A      2.801726  
     257A      2.802163   258A      2.856570   259A      2.886845  
     260A      2.888799   261A      2.889247   262A      2.969188  
     263A      2.969264   264A      2.971583   265A      2.972493  
     266A      2.972700   267A      3.236629   268A      3.237350  
     269A      3.237785   270A      3.238095   271A      3.238846  
     272A      3.239808   273A      3.403851   274A      3.403929  
     275A      3.431101   276A      3.431208   277A      3.431869  
     278A      3.454615   279A      3.454788   280A      3.500276  
     281A      3.521079   282A      3.521324   283A      3.521441  
     284A      3.591126   285A      3.591370   286A      3.591881  
     287A      3.725200   288A      3.968781   289A      3.969464  
     290A      3.972013   291A      4.187373   292A      4.355169  
     293A      4.355309   294A      4.455352   295A      4.456596  
     296A      4.456969   297A      4.479140   298A      4.479174  
     299A      4.488509   300A      4.489288   301A      4.489432  
     302A      4.617770   303A      4.617833   304A      4.618001  
     305A      4.679432   306A      4.679572   307A      4.679935  
     308A      4.701564   309A      4.702151   310A      4.702305  
     311A      4.709705   312A      4.709969   313A      4.710119  
     314A      4.740773   315A      4.741407   316A      4.741641  
     317A      4.747728   318A      4.752591   319A      4.769455  
     320A      4.769578   321A      4.777227   322A      4.777774  
     323A      4.777927   324A      4.784416   325A      4.784493  
     326A      4.784639   327A      4.797508   328A      4.797713  
     329A      4.832116   330A      4.851115   331A      4.852016  
     332A      4.852322   333A      4.857687   334A      4.858286  
     335A      4.858463   336A      4.875547   337A      4.876159  
     338A      4.878277   339A      4.909862   340A      4.909898  
     341A      4.946837   342A      4.946879   343A      4.946964  
     344A      4.950959   345A      4.950989   346A      4.951131  
     347A      4.975784   348A      4.975906   349A      4.976139  
     350A      4.998948   351A      5.038941   352A      5.039593  
     353A      5.039724   354A      5.057770   355A      5.089404  
     356A      5.090333   357A      5.090552   358A      5.167403  
     359A      5.167490   360A      5.268192   361A      5.293271  
     362A      5.293546   363A      5.293911   364A      5.356258  
     365A      5.359659   366A      5.360516   367A      5.421335  
     368A      5.421401   369A      5.421915   370A      5.447315  
     371A      5.447628   372A      5.603015   373A      5.604423  
     374A      5.608971   375A      5.799103   376A      6.595678  
     377A      6.649088   378A      6.649469   379A      6.651149  
     380A      6.686464   381A      6.687448   382A      6.687632  
     383A      6.763722   384A      6.763885   385A      6.823467  
     386A      6.823643   387A      6.823909   388A      6.870060  
     389A      6.870334   390A      6.870594   391A      7.113378  
     392A      7.113413   393A      7.204269   394A      7.204589  
     395A      7.204778   396A      7.282128   397A      7.282527  
     398A      7.282782   399A      7.336274   400A      7.336338  
     401A      7.545834   402A      7.740933   403A      7.741416  
     404A      7.742724   405A      7.825855   406A      7.826460  
     407A      7.827622   408A      8.521096   409A      8.522384  
     410A      8.522519   411A      8.660301   412A     24.674380  
     413A     26.675107   414A     26.676221   415A     26.682895  
     416A     26.803220  

    Final Occupation by Irrep:
              A 
    DOCC [    37 ]

  @DF-RHF Final Energy: -1875.93367561764467

   => Energetics <=

    Nuclear Repulsion Energy =            439.4641521671038618
    One-Electron Energy =               -3467.5897885630079145
    Two-Electron Energy =                1152.1919607782594994
    Total Energy =                      -1875.9336756176446670

Computation Completed


Properties will be evaluated at   3.346062,  -1.807972,   3.291149 [a0]

Properties computed using the SCF density matrix

  Nuclear Dipole Moment: [e a0]
     X:    -0.0005      Y:     0.0002      Z:    -0.0005

  Electronic Dipole Moment: [e a0]
     X:    -0.0005      Y:     0.0003      Z:    -0.0012

  Dipole Moment: [e a0]
     X:    -0.0011      Y:     0.0005      Z:    -0.0017     Total:     0.0021

  Dipole Moment: [D]
     X:    -0.0027      Y:     0.0013      Z:    -0.0044     Total:     0.0053


*** tstop() called on node37.bme.utexas.edu at Tue Feb 22 21:09:35 2022
Module time:
	user time   =      48.82 seconds =       0.81 minutes
	system time =       3.12 seconds =       0.05 minutes
	total time  =         16 seconds =       0.27 minutes
Total time:
	user time   =      72.80 seconds =       1.21 minutes
	system time =       4.91 seconds =       0.08 minutes
	total time  =         24 seconds =       0.40 minutes

*** tstart() called on node37.bme.utexas.edu
*** at Tue Feb 22 21:09:35 2022


  //>>>>>>>>>>>>>>>>>>>>>>>>>>>>>>>>>>>//
  //               DFMP2               //
  //<<<<<<<<<<<<<<<<<<<<<<<<<<<<<<<<<<<//

   => Loading Basis Set <=

    Name: (AUG-CC-PVQZ AUX)
    Role: RIFIT
    Keyword: DF_BASIS_MP2
    atoms 1-4 entry CL         line   914 file /home/bdw2292/miniconda3/envs/amoebamdpoltype/share/psi4/basis/aug-cc-pvqz-ri.gbs 
    atoms 5   entry C          line   184 file /home/bdw2292/miniconda3/envs/amoebamdpoltype/share/psi4/basis/aug-cc-pvqz-ri.gbs 

	 --------------------------------------------------------
	                          DF-MP2                         
	      2nd-Order Density-Fitted Moller-Plesset Theory     
	              RMP2 Wavefunction,   4 Threads             
	                                                         
	        Rob Parrish, Justin Turney, Andy Simmonett,      
	           Ed Hohenstein, and C. David Sherrill          
	 --------------------------------------------------------

   => Auxiliary Basis Set <=

  Basis Set: (AUG-CC-PVQZ AUX)
    Blend: AUG-CC-PVQZ-RI
    Number of shells: 212
    Number of basis function: 944
    Number of Cartesian functions: 1309
    Spherical Harmonics?: true
    Max angular momentum: 5

	 --------------------------------------------------------
	                 NBF =   416, NAUX =   944
	 --------------------------------------------------------
	   CLASS    FOCC     OCC    AOCC    AVIR     VIR    FVIR
	   PAIRS      21      37      16     379     379       0
	 --------------------------------------------------------

	-----------------------------------------------------------
	 ==================> DF-MP2 Energies <==================== 
	-----------------------------------------------------------
	 Reference Energy          =   -1875.9336756176446670 [Eh]
	 Singles Energy            =      -0.0000000000000000 [Eh]
	 Same-Spin Energy          =      -0.2544183617068337 [Eh]
	 Opposite-Spin Energy      =      -0.7716646447429888 [Eh]
	 Correlation Energy        =      -1.0260830064498225 [Eh]
	 Total Energy              =   -1876.9597586240945475 [Eh]
	-----------------------------------------------------------
	 ================> DF-SCS-MP2 Energies <================== 
	-----------------------------------------------------------
	 SCS Same-Spin Scale       =       0.3333333333333333 [-]
	 SCS Opposite-Spin Scale   =       1.2000000000000000 [-]
	 SCS Same-Spin Energy      =      -0.0848061205689446 [Eh]
	 SCS Opposite-Spin Energy  =      -0.9259975736915865 [Eh]
	 SCS Correlation Energy    =      -1.0108036942605312 [Eh]
	 SCS Total Energy          =   -1876.9444793119052974 [Eh]
	-----------------------------------------------------------


*** tstop() called on node37.bme.utexas.edu at Tue Feb 22 21:09:42 2022
Module time:
	user time   =      20.21 seconds =       0.34 minutes
	system time =       1.40 seconds =       0.02 minutes
	total time  =          7 seconds =       0.12 minutes
Total time:
	user time   =      93.01 seconds =       1.55 minutes
	system time =       6.31 seconds =       0.11 minutes
	total time  =         31 seconds =       0.52 minutes

  //>>>>>>>>>>>>>>>>>>>>>>>>>>>>>>>>>>>//
  //  CBS Results: mp2/aug-cc-pV[TQ]Z  //
  //<<<<<<<<<<<<<<<<<<<<<<<<<<<<<<<<<<<//


   ==> HF <==

   HI-zeta (4) Energy:               -1875.933675617645


   ==> Helgaker 2-point correlated extrapolation for method: MP2 <==

   LO-zeta (3) Energy:               -1876.866970789199
   HI-zeta (4) Energy:               -1876.959758624095
   Alpha (exponent) Value:             3.000000000000
   Extrapolated Energy:              -1877.027468665775

   @Extrapolated MP2/(T,Q):          -1877.027468665775



   ==> Helgaker 2-point correlated extrapolation for method: HF <==

   LO-zeta (3) Energy:               -1875.916370041690
   HI-zeta (4) Energy:               -1875.933675617645
   Alpha (exponent) Value:             3.000000000000
   Extrapolated Energy:              -1875.946304010909

   @Extrapolated HF/(T,Q):           -1875.946304010909


   ==> Components <==

  ---------------------------------------------------------------------------------------------------------
                          Method / Basis                      Rqd      Energy [Eh]   Variable
  ---------------------------------------------------------------------------------------------------------
                              hf / aug-cc-pvtz                  *   -1875.91637004   HF TOTAL ENERGY
                             mp2 / aug-cc-pvtz                  *   -1876.86697079   MP2 TOTAL ENERGY
                              hf / aug-cc-pvqz                  *   -1875.93367562   HF TOTAL ENERGY
                             mp2 / aug-cc-pvqz                  *   -1876.95975862   MP2 TOTAL ENERGY
  ---------------------------------------------------------------------------------------------------------

   ==> Stages <==

  ---------------------------------------------------------------------------------------------------------
      Stage               Method / Basis                       Wt      Energy [Eh]   Scheme
  ---------------------------------------------------------------------------------------------------------
        scf                   hf / aug-cc-pvqz                  1   -1875.93367562   xtpl_highest_1
       corl                  mp2 / aug-cc-pv[tq]z               1   -1877.02746867   corl_xtpl_helgaker_2
       corl                   hf / aug-cc-pv[tq]z              -1   -1875.94630401   corl_xtpl_helgaker_2
  ---------------------------------------------------------------------------------------------------------

   ==> CBS <==

  ---------------------------------------------------------------------------------------------------------
      Stage               Method / Basis                               Energy [Eh]   Scheme
  ---------------------------------------------------------------------------------------------------------
        scf                   hf / aug-cc-pvqz                      -1875.93367562   xtpl_highest_1
       corl                  mp2 / aug-cc-pv[tq]z                      -1.08116465   corl_xtpl_helgaker_2
      total                  CBS                                    -1877.01484027   
  ---------------------------------------------------------------------------------------------------------
   => Loading Basis Set <=

    Name: DEF2-SVP
    Role: ORBITAL
    Keyword: BASIS
    atoms 1-4 entry CL         line   356 file /home/bdw2292/miniconda3/envs/amoebamdpoltype/share/psi4/basis/def2-svp.gbs 
    atoms 5   entry C          line    90 file /home/bdw2292/miniconda3/envs/amoebamdpoltype/share/psi4/basis/def2-svp.gbs 


       N-Body: Complex Energy (fragments = (2,), basis = (2,): -1877.01484027251081)

       N-Body: Computing complex (2/4) with fragments (2,) in the basis of fragments (1, 2).


  //>>>>>>>>>>>>>>>>>>>>>>>>>>>>>>>>>>>//
  //   CBS Setup: mp2/aug-cc-pV[TQ]Z   //
  //<<<<<<<<<<<<<<<<<<<<<<<<<<<<<<<<<<<//

    Naive listing of computations required.
             hf / aug-cc-pvqz              for  HF TOTAL ENERGY
            mp2 / aug-cc-pvtz              for  MP2 TOTAL ENERGY
            mp2 / aug-cc-pvqz              for  MP2 TOTAL ENERGY
             hf / aug-cc-pvtz              for  HF TOTAL ENERGY
             hf / aug-cc-pvqz              for  HF TOTAL ENERGY

    Enlightened listing of computations required.
            mp2 / aug-cc-pvtz              for  MP2 TOTAL ENERGY
            mp2 / aug-cc-pvqz              for  MP2 TOTAL ENERGY

    Full listing of computations to be obtained (required and bonus).
             hf / aug-cc-pvtz              for  HF TOTAL ENERGY
            mp2 / aug-cc-pvtz              for  MP2 TOTAL ENERGY
             hf / aug-cc-pvqz              for  HF TOTAL ENERGY
            mp2 / aug-cc-pvqz              for  MP2 TOTAL ENERGY

  //>>>>>>>>>>>>>>>>>>>>>>>>>>>>>>>>>>>>//
  // CBS Computation: MP2 / AUG-CC-PVTZ //
  //<<<<<<<<<<<<<<<<<<<<<<<<<<<<<<<<<<<<//

    SCF Algorithm Type (re)set to DF.

*** tstart() called on node37.bme.utexas.edu
*** at Tue Feb 22 21:09:44 2022

   => Loading Basis Set <=

    Name: AUG-CC-PVTZ
    Role: ORBITAL
    Keyword: BASIS
    atoms 1-4, 6-9 entry CL         line   984 file /home/bdw2292/miniconda3/envs/amoebamdpoltype/share/psi4/basis/aug-cc-pvtz.gbs 
    atoms 5, 10    entry C          line   235 file /home/bdw2292/miniconda3/envs/amoebamdpoltype/share/psi4/basis/aug-cc-pvtz.gbs 


         ---------------------------------------------------------
                                   SCF
               by Justin Turney, Rob Parrish, Andy Simmonett
                          and Daniel G. A. Smith
                              RHF Reference
                        4 Threads,  14305 MiB Core
         ---------------------------------------------------------

  ==> Geometry <==

    Molecular point group: c1
    Full point group: C1

    Geometry (in Angstrom), charge = 0, multiplicity = 1:

       Center              X                  Y                   Z               Mass       
    ------------   -----------------  -----------------  -----------------  -----------------
      Gh(CL)         -1.897047404899     0.397759784559    -0.067711459245    34.968852682000
      Gh(CL)         -2.053639204899     2.701894784559    -1.800097459245    34.968852682000
      Gh(CL)         -2.978876204899     0.126493384559    -2.731351259245    34.968852682000
      Gh(CL)         -0.153397004899     0.600945284559    -2.367406859245    34.968852682000
      Gh(C)          -1.769722304899     0.956322184559    -1.741124159245    12.000000000000
         CL           0.489574895101    -0.859989715441     2.959579740755    34.968852682000
         CL           2.065019695101     0.652880884559     1.064743840755    34.968852682000
         CL           1.276342795101    -2.061726515441     0.448540640755    34.968852682000
         CL           3.252269995101    -1.558321915441     2.494116640755    34.968852682000
         C            1.769000895101    -0.956135615441     1.739918240755    12.000000000000

  Running in c1 symmetry.

  Rotational constants: A =      0.02882  B =      0.00616  C =      0.00616 [cm^-1]
  Rotational constants: A =    863.96792  B =    184.77440  C =    184.75340 [MHz]
  Nuclear repulsion =  439.464152167103862

  Charge       = 0
  Multiplicity = 1
  Electrons    = 74
  Nalpha       = 37
  Nbeta        = 37

  ==> Algorithm <==

  SCF Algorithm Type is DF.
  DIIS enabled.
  MOM disabled.
  Fractional occupation disabled.
  Guess Type is SAD.
  Energy threshold   = 1.00e-08
  Density threshold  = 1.00e-08
  Integral threshold = 0.00e+00

  ==> Primary Basis <==

  Basis Set: AUG-CC-PVTZ
    Blend: AUG-CC-PVTZ
    Number of shells: 156
    Number of basis function: 492
    Number of Cartesian functions: 582
    Spherical Harmonics?: true
    Max angular momentum: 3

   => Loading Basis Set <=

    Name: (AUG-CC-PVTZ AUX)
    Role: JKFIT
    Keyword: DF_BASIS_SCF
    atoms 1-4, 6-9 entry CL         line   816 file /home/bdw2292/miniconda3/envs/amoebamdpoltype/share/psi4/basis/aug-cc-pvtz-jkfit.gbs 
    atoms 5, 10    entry C          line   162 file /home/bdw2292/miniconda3/envs/amoebamdpoltype/share/psi4/basis/aug-cc-pvtz-jkfit.gbs 

  ==> Pre-Iterations <==

   -------------------------------------------------------
    Irrep   Nso     Nmo     Nalpha   Nbeta   Ndocc  Nsocc
   -------------------------------------------------------
     A        492     492       0       0       0       0
   -------------------------------------------------------
    Total     492     492      37      37      37       0
   -------------------------------------------------------

  ==> Integral Setup <==

  DFHelper Memory: AOs need 2.284 GiB; user supplied 10.477 GiB. Using in-core AOs.

  ==> MemDFJK: Density-Fitted J/K Matrices <==

    J tasked:                   Yes
    K tasked:                   Yes
    wK tasked:                   No
    OpenMP threads:               4
    Memory [MiB]:             10728
    Algorithm:                 Disk
    Schwarz Cutoff:           1E-12
    Mask sparsity (%):      10.7971
    Fitting Condition:        1E-10

   => Auxiliary Basis Set <=

  Basis Set: (AUG-CC-PVTZ AUX)
    Blend: AUG-CC-PVTZ-JKFIT
    Number of shells: 396
    Number of basis function: 1376
    Number of Cartesian functions: 1702
    Spherical Harmonics?: true
    Max angular momentum: 4

  Minimum eigenvalue in the overlap matrix is 5.7605723251E-05.
  Using Symmetric Orthogonalization.

  SCF Guess: Superposition of Atomic Densities via on-the-fly atomic UHF.

  ==> Iterations <==

                           Total Energy        Delta E     RMS |[F,P]|

   @DF-RHF iter SAD: -1875.94739176806888   -1.87595e+03   0.00000e+00 
   @DF-RHF iter   1: -1875.79723929386000    1.50152e-01   9.35832e-04 DIIS
   @DF-RHF iter   2: -1875.83585444549294   -3.86152e-02   8.63180e-04 DIIS
   @DF-RHF iter   3: -1875.91362256718958   -7.77681e-02   9.25017e-05 DIIS
   @DF-RHF iter   4: -1875.91610360354662   -2.48104e-03   3.24116e-05 DIIS
   @DF-RHF iter   5: -1875.91643705859792   -3.33455e-04   6.58298e-06 DIIS
   @DF-RHF iter   6: -1875.91645327386868   -1.62153e-05   1.09332e-06 DIIS
   @DF-RHF iter   7: -1875.91645348392149   -2.10053e-07   1.23414e-07 DIIS
   @DF-RHF iter   8: -1875.91645348832344   -4.40195e-09   2.87728e-08 DIIS
   @DF-RHF iter   9: -1875.91645348854308   -2.19643e-10   9.46818e-09 DIIS
  Energy and wave function converged.


  ==> Post-Iterations <==

    Orbital Energies [Eh]
    ---------------------

    Doubly Occupied:                                                      

       1A   -104.878862     2A   -104.878814     3A   -104.878703  
       4A   -104.878452     5A    -11.499687     6A    -10.603256  
       7A    -10.603211     8A    -10.603104     9A    -10.602880  
      10A     -8.070023    11A     -8.069979    12A     -8.069871  
      13A     -8.069645    14A     -8.067735    15A     -8.067735  
      16A     -8.067691    17A     -8.067691    18A     -8.067584  
      19A     -8.067583    20A     -8.067361    21A     -8.067361  
      22A     -1.282425    23A     -1.128455    24A     -1.128288  
      25A     -1.127990    26A     -0.834184    27A     -0.658294  
      28A     -0.658190    29A     -0.657978    30A     -0.532311  
      31A     -0.532250    32A     -0.489328    33A     -0.489187  
      34A     -0.488861    35A     -0.460994    36A     -0.460743  
      37A     -0.460662  

    Virtual:                                                              

      38A      0.029245    39A      0.050874    40A      0.053619  
      41A      0.055858    42A      0.068359    43A      0.076507  
      44A      0.077538    45A      0.081234    46A      0.090575  
      47A      0.099821    48A      0.100519    49A      0.110589  
      50A      0.112638    51A      0.116482    52A      0.121609  
      53A      0.124383    54A      0.137636    55A      0.140213  
      56A      0.144894    57A      0.151551    58A      0.156320  
      59A      0.162894    60A      0.166036    61A      0.167922  
      62A      0.173439    63A      0.177825    64A      0.181341  
      65A      0.182424    66A      0.183651    67A      0.191674  
      68A      0.195713    69A      0.197734    70A      0.199068  
      71A      0.212846    72A      0.213952    73A      0.219660  
      74A      0.224464    75A      0.231784    76A      0.245112  
      77A      0.252908    78A      0.258389    79A      0.270808  
      80A      0.276986    81A      0.296950    82A      0.314015  
      83A      0.320358    84A      0.325151    85A      0.328753  
      86A      0.330365    87A      0.335440    88A      0.343088  
      89A      0.350719    90A      0.360486    91A      0.374840  
      92A      0.380410    93A      0.387985    94A      0.395606  
      95A      0.397122    96A      0.398886    97A      0.404276  
      98A      0.411153    99A      0.416180   100A      0.420394  
     101A      0.427633   102A      0.430588   103A      0.432539  
     104A      0.446429   105A      0.456004   106A      0.464449  
     107A      0.470938   108A      0.479142   109A      0.487846  
     110A      0.494775   111A      0.504185   112A      0.506831  
     113A      0.509983   114A      0.516124   115A      0.526639  
     116A      0.528076   117A      0.533676   118A      0.536603  
     119A      0.539600   120A      0.543774   121A      0.552073  
     122A      0.552840   123A      0.558535   124A      0.567187  
     125A      0.572724   126A      0.579291   127A      0.587206  
     128A      0.602819   129A      0.612076   130A      0.616724  
     131A      0.618844   132A      0.639005   133A      0.646299  
     134A      0.656877   135A      0.662624   136A      0.689471  
     137A      0.713154   138A      0.723673   139A      0.737734  
     140A      0.740808   141A      0.745073   142A      0.753221  
     143A      0.755203   144A      0.760177   145A      0.761523  
     146A      0.763763   147A      0.766272   148A      0.772516  
     149A      0.779607   150A      0.792876   151A      0.797826  
     152A      0.811844   153A      0.815663   154A      0.821312  
     155A      0.823510   156A      0.826098   157A      0.830914  
     158A      0.838468   159A      0.841185   160A      0.853216  
     161A      0.857144   162A      0.860795   163A      0.870212  
     164A      0.880099   165A      0.894257   166A      0.899876  
     167A      0.910496   168A      0.913874   169A      0.920440  
     170A      0.922438   171A      0.942519   172A      0.948406  
     173A      0.960413   174A      0.986272   175A      0.989285  
     176A      0.992092   177A      0.996336   178A      1.027488  
     179A      1.065197   180A      1.066898   181A      1.078984  
     182A      1.084626   183A      1.098920   184A      1.107082  
     185A      1.130421   186A      1.136263   187A      1.142353  
     188A      1.153920   189A      1.161212   190A      1.161625  
     191A      1.168509   192A      1.201421   193A      1.210572  
     194A      1.214425   195A      1.232539   196A      1.237385  
     197A      1.242147   198A      1.245153   199A      1.254520  
     200A      1.265984   201A      1.288383   202A      1.292629  
     203A      1.299002   204A      1.306531   205A      1.308626  
     206A      1.314307   207A      1.321708   208A      1.332183  
     209A      1.337249   210A      1.347533   211A      1.357572  
     212A      1.361364   213A      1.371620   214A      1.373786  
     215A      1.382721   216A      1.391549   217A      1.403781  
     218A      1.414723   219A      1.415250   220A      1.419772  
     221A      1.430621   222A      1.450166   223A      1.479742  
     224A      1.481967   225A      1.484992   226A      1.491485  
     227A      1.492552   228A      1.506683   229A      1.509124  
     230A      1.517292   231A      1.520973   232A      1.528954  
     233A      1.535276   234A      1.540208   235A      1.548369  
     236A      1.552132   237A      1.560385   238A      1.568669  
     239A      1.570896   240A      1.573643   241A      1.577929  
     242A      1.586098   243A      1.587505   244A      1.606286  
     245A      1.611449   246A      1.613492   247A      1.625594  
     248A      1.658556   249A      1.662345   250A      1.665671  
     251A      1.668687   252A      1.672996   253A      1.676767  
     254A      1.684052   255A      1.690990   256A      1.698377  
     257A      1.709700   258A      1.711269   259A      1.719540  
     260A      1.734365   261A      1.749572   262A      1.756475  
     263A      1.760867   264A      1.764010   265A      1.767082  
     266A      1.774947   267A      1.786846   268A      1.796023  
     269A      1.807506   270A      1.837190   271A      1.857288  
     272A      1.867474   273A      1.880873   274A      1.884495  
     275A      1.893443   276A      1.898931   277A      1.901542  
     278A      1.903935   279A      1.908439   280A      1.912905  
     281A      1.919553   282A      1.934912   283A      1.940583  
     284A      1.967320   285A      1.997276   286A      2.009743  
     287A      2.017487   288A      2.023364   289A      2.137563  
     290A      2.144911   291A      2.148061   292A      2.157405  
     293A      2.159355   294A      2.165727   295A      2.234765  
     296A      2.236075   297A      2.238489   298A      2.302999  
     299A      2.321518   300A      2.330422   301A      2.347388  
     302A      2.462845   303A      2.469947   304A      2.482101  
     305A      2.530658   306A      2.532594   307A      2.570220  
     308A      2.576021   309A      2.585478   310A      2.590614  
     311A      2.597390   312A      2.604057   313A      2.615197  
     314A      2.618935   315A      2.631622   316A      2.633012  
     317A      2.637330   318A      2.654721   319A      2.670562  
     320A      2.695940   321A      2.713147   322A      2.715050  
     323A      2.722099   324A      2.728885   325A      2.747419  
     326A      2.760001   327A      2.761728   328A      2.768110  
     329A      2.779956   330A      2.786955   331A      2.913973  
     332A      2.914428   333A      2.933336   334A      2.985285  
     335A      2.993127   336A      2.998438   337A      3.001453  
     338A      3.047397   339A      3.060096   340A      3.064717  
     341A      3.086158   342A      3.086357   343A      3.087229  
     344A      3.091868   345A      3.094614   346A      3.103992  
     347A      3.115095   348A      3.123775   349A      3.124020  
     350A      3.144800   351A      3.145411   352A      3.151614  
     353A      3.162896   354A      3.184125   355A      3.211116  
     356A      3.213256   357A      3.226782   358A      3.233302  
     359A      3.244652   360A      3.251456   361A      3.257463  
     362A      3.286500   363A      3.352284   364A      3.353089  
     365A      3.358805   366A      3.430019   367A      3.431445  
     368A      3.434080   369A      3.541599   370A      3.546696  
     371A      3.772975   372A      3.775256   373A      3.784103  
     374A      3.803585   375A      3.810746   376A      3.815491  
     377A      3.875596   378A      3.903298   379A      3.958737  
     380A      3.961571   381A      3.963477   382A      3.987644  
     383A      3.988882   384A      3.998474   385A      4.002494  
     386A      4.008190   387A      4.023667   388A      4.025434  
     389A      4.029531   390A      4.037697   391A      4.046404  
     392A      4.058529   393A      4.091822   394A      4.094991  
     395A      4.099778   396A      4.110651   397A      4.112682  
     398A      4.129541   399A      4.143496   400A      4.144706  
     401A      4.149077   402A      4.157037   403A      4.169061  
     404A      4.178924   405A      4.192451   406A      4.195720  
     407A      4.204434   408A      4.242250   409A      4.246014  
     410A      4.264184   411A      4.280221   412A      4.288918  
     413A      4.294412   414A      4.308668   415A      4.311644  
     416A      4.327827   417A      4.340430   418A      4.467536  
     419A      4.469344   420A      4.472600   421A      4.480647  
     422A      4.509898   423A      4.709990   424A      4.715807  
     425A      4.721875   426A      4.728336   427A      4.732611  
     428A      4.736071   429A      4.743069   430A      4.758681  
     431A      4.777563   432A      4.779841   433A      4.781704  
     434A      4.790736   435A      4.823295   436A      4.831319  
     437A      4.832200   438A      4.838481   439A      4.842984  
     440A      4.852563   441A      4.872522   442A      4.889025  
     443A      4.895348   444A      4.900214   445A      4.917261  
     446A      4.975572   447A      5.099510   448A      5.102180  
     449A      5.107376   450A      5.118473   451A      5.136934  
     452A      5.138428   453A      5.405479   454A      5.408012  
     455A      5.416414   456A      5.420816   457A      5.426975  
     458A      5.637033   459A      5.862573   460A      6.141849  
     461A      6.144174   462A      6.157231   463A      6.715494  
     464A      7.557484   465A      7.700272   466A      7.727966  
     467A      7.733450   468A      7.911337   469A      7.916989  
     470A      7.924248   471A     10.837692   472A     15.448963  
     473A     16.430055   474A     16.464108   475A     16.532629  
     476A     28.061773   477A     28.063633   478A     28.099602  
     479A     28.183767   480A     28.185460   481A     28.196792  
     482A     28.328597   483A     28.363175   484A     28.857344  
     485A     28.864554   486A     28.874083   487A     29.536468  
     488A     40.682697   489A    160.940780   490A    161.047931  
     491A    161.052705   492A    161.057779  

    Final Occupation by Irrep:
              A 
    DOCC [    37 ]

  @DF-RHF Final Energy: -1875.91645348854308

   => Energetics <=

    Nuclear Repulsion Energy =            439.4641521671038618
    One-Electron Energy =               -3467.4864829111779727
    Two-Electron Energy =                1152.1058772555311407
    Total Energy =                      -1875.9164534885430839

Computation Completed


Properties will be evaluated at  -0.000000,   0.000000,   0.000000 [a0]

Properties computed using the SCF density matrix

  Nuclear Dipole Moment: [e a0]
     X:   247.6080      Y:  -133.7898      Z:   243.5445

  Electronic Dipole Moment: [e a0]
     X:  -247.6088      Y:   133.7902      Z:  -243.5460

  Dipole Moment: [e a0]
     X:    -0.0008      Y:     0.0004      Z:    -0.0015     Total:     0.0018

  Dipole Moment: [D]
     X:    -0.0021      Y:     0.0010      Z:    -0.0039     Total:     0.0046


*** tstop() called on node37.bme.utexas.edu at Tue Feb 22 21:10:43 2022
Module time:
	user time   =     147.28 seconds =       2.45 minutes
	system time =      26.33 seconds =       0.44 minutes
	total time  =         59 seconds =       0.98 minutes
Total time:
	user time   =     241.72 seconds =       4.03 minutes
	system time =      32.69 seconds =       0.54 minutes
	total time  =         92 seconds =       1.53 minutes

*** tstart() called on node37.bme.utexas.edu
*** at Tue Feb 22 21:10:43 2022


  //>>>>>>>>>>>>>>>>>>>>>>>>>>>>>>>>>>>//
  //               DFMP2               //
  //<<<<<<<<<<<<<<<<<<<<<<<<<<<<<<<<<<<//

   => Loading Basis Set <=

    Name: (AUG-CC-PVTZ AUX)
    Role: RIFIT
    Keyword: DF_BASIS_MP2
    atoms 1-4, 6-9 entry CL         line   742 file /home/bdw2292/miniconda3/envs/amoebamdpoltype/share/psi4/basis/aug-cc-pvtz-ri.gbs 
    atoms 5, 10    entry C          line   148 file /home/bdw2292/miniconda3/envs/amoebamdpoltype/share/psi4/basis/aug-cc-pvtz-ri.gbs 

	 --------------------------------------------------------
	                          DF-MP2                         
	      2nd-Order Density-Fitted Moller-Plesset Theory     
	              RMP2 Wavefunction,   4 Threads             
	                                                         
	        Rob Parrish, Justin Turney, Andy Simmonett,      
	           Ed Hohenstein, and C. David Sherrill          
	 --------------------------------------------------------

   => Auxiliary Basis Set <=

  Basis Set: (AUG-CC-PVTZ AUX)
    Blend: AUG-CC-PVTZ-RI
    Number of shells: 352
    Number of basis function: 1388
    Number of Cartesian functions: 1800
    Spherical Harmonics?: true
    Max angular momentum: 4

	 --------------------------------------------------------
	                 NBF =   492, NAUX =  1388
	 --------------------------------------------------------
	   CLASS    FOCC     OCC    AOCC    AVIR     VIR    FVIR
	   PAIRS      21      37      16     455     455       0
	 --------------------------------------------------------

	-----------------------------------------------------------
	 ==================> DF-MP2 Energies <==================== 
	-----------------------------------------------------------
	 Reference Energy          =   -1875.9164534885430839 [Eh]
	 Singles Energy            =      -0.0000000000000000 [Eh]
	 Same-Spin Energy          =      -0.2464097142018174 [Eh]
	 Opposite-Spin Energy      =      -0.7045367182485853 [Eh]
	 Correlation Energy        =      -0.9509464324504028 [Eh]
	 Total Energy              =   -1876.8673999209934209 [Eh]
	-----------------------------------------------------------
	 ================> DF-SCS-MP2 Energies <================== 
	-----------------------------------------------------------
	 SCS Same-Spin Scale       =       0.3333333333333333 [-]
	 SCS Opposite-Spin Scale   =       1.2000000000000000 [-]
	 SCS Same-Spin Energy      =      -0.0821365714006058 [Eh]
	 SCS Opposite-Spin Energy  =      -0.8454440618983023 [Eh]
	 SCS Correlation Energy    =      -0.9275806332989082 [Eh]
	 SCS Total Energy          =   -1876.8440341218420144 [Eh]
	-----------------------------------------------------------


*** tstop() called on node37.bme.utexas.edu at Tue Feb 22 21:10:59 2022
Module time:
	user time   =      46.90 seconds =       0.78 minutes
	system time =       2.62 seconds =       0.04 minutes
	total time  =         16 seconds =       0.27 minutes
Total time:
	user time   =     288.63 seconds =       4.81 minutes
	system time =      35.31 seconds =       0.59 minutes
	total time  =        108 seconds =       1.80 minutes

  //>>>>>>>>>>>>>>>>>>>>>>>>>>>>>>>>>>>>//
  // CBS Computation: MP2 / AUG-CC-PVQZ //
  //<<<<<<<<<<<<<<<<<<<<<<<<<<<<<<<<<<<<//

    SCF Algorithm Type (re)set to DF.

*** tstart() called on node37.bme.utexas.edu
*** at Tue Feb 22 21:10:59 2022

   => Loading Basis Set <=

    Name: AUG-CC-PVQZ
    Role: ORBITAL
    Keyword: BASIS
    atoms 1-4, 6-9 entry CL         line  1218 file /home/bdw2292/miniconda3/envs/amoebamdpoltype/share/psi4/basis/aug-cc-pvqz.gbs 
    atoms 5, 10    entry C          line   299 file /home/bdw2292/miniconda3/envs/amoebamdpoltype/share/psi4/basis/aug-cc-pvqz.gbs 


         ---------------------------------------------------------
                                   SCF
               by Justin Turney, Rob Parrish, Andy Simmonett
                          and Daniel G. A. Smith
                              RHF Reference
                        4 Threads,  14305 MiB Core
         ---------------------------------------------------------

  ==> Geometry <==

    Molecular point group: c1
    Full point group: C1

    Geometry (in Angstrom), charge = 0, multiplicity = 1:

       Center              X                  Y                   Z               Mass       
    ------------   -----------------  -----------------  -----------------  -----------------
      Gh(CL)         -1.897047404899     0.397759784559    -0.067711459245    34.968852682000
      Gh(CL)         -2.053639204899     2.701894784559    -1.800097459245    34.968852682000
      Gh(CL)         -2.978876204899     0.126493384559    -2.731351259245    34.968852682000
      Gh(CL)         -0.153397004899     0.600945284559    -2.367406859245    34.968852682000
      Gh(C)          -1.769722304899     0.956322184559    -1.741124159245    12.000000000000
         CL           0.489574895101    -0.859989715441     2.959579740755    34.968852682000
         CL           2.065019695101     0.652880884559     1.064743840755    34.968852682000
         CL           1.276342795101    -2.061726515441     0.448540640755    34.968852682000
         CL           3.252269995101    -1.558321915441     2.494116640755    34.968852682000
         C            1.769000895101    -0.956135615441     1.739918240755    12.000000000000

  Running in c1 symmetry.

  Rotational constants: A =      0.02882  B =      0.00616  C =      0.00616 [cm^-1]
  Rotational constants: A =    863.96792  B =    184.77440  C =    184.75340 [MHz]
  Nuclear repulsion =  439.464152167103862

  Charge       = 0
  Multiplicity = 1
  Electrons    = 74
  Nalpha       = 37
  Nbeta        = 37

  ==> Algorithm <==

  SCF Algorithm Type is DF.
  DIIS enabled.
  MOM disabled.
  Fractional occupation disabled.
  Guess Type is SAD.
  Energy threshold   = 1.00e-08
  Density threshold  = 1.00e-08
  Integral threshold = 0.00e+00

  ==> Primary Basis <==

  Basis Set: AUG-CC-PVQZ
    Blend: AUG-CC-PVQZ
    Number of shells: 216
    Number of basis function: 832
    Number of Cartesian functions: 1082
    Spherical Harmonics?: true
    Max angular momentum: 4

   => Loading Basis Set <=

    Name: (AUG-CC-PVQZ AUX)
    Role: JKFIT
    Keyword: DF_BASIS_SCF
    atoms 1-4, 6-9 entry CL         line   904 file /home/bdw2292/miniconda3/envs/amoebamdpoltype/share/psi4/basis/aug-cc-pvqz-jkfit.gbs 
    atoms 5, 10    entry C          line   178 file /home/bdw2292/miniconda3/envs/amoebamdpoltype/share/psi4/basis/aug-cc-pvqz-jkfit.gbs 

  ==> Pre-Iterations <==

   -------------------------------------------------------
    Irrep   Nso     Nmo     Nalpha   Nbeta   Ndocc  Nsocc
   -------------------------------------------------------
     A        832     832       0       0       0       0
   -------------------------------------------------------
    Total     832     832      37      37      37       0
   -------------------------------------------------------

  ==> Integral Setup <==

  DFHelper Memory: AOs need 7.905 GiB; user supplied 10.477 GiB. Using in-core AOs.

  ==> MemDFJK: Density-Fitted J/K Matrices <==

    J tasked:                   Yes
    K tasked:                   Yes
    wK tasked:                   No
    OpenMP threads:               4
    Memory [MiB]:             10728
    Algorithm:                 Disk
    Schwarz Cutoff:           1E-12
    Mask sparsity (%):      15.0714
    Fitting Condition:        1E-10

   => Auxiliary Basis Set <=

  Basis Set: (AUG-CC-PVQZ AUX)
    Blend: AUG-CC-PVQZ-JKFIT
    Number of shells: 436
    Number of basis function: 1756
    Number of Cartesian functions: 2372
    Spherical Harmonics?: true
    Max angular momentum: 5

  Minimum eigenvalue in the overlap matrix is 1.0944125449E-05.
  Using Symmetric Orthogonalization.

  SCF Guess: Superposition of Atomic Densities via on-the-fly atomic UHF.

  ==> Iterations <==

                           Total Energy        Delta E     RMS |[F,P]|

   @DF-RHF iter SAD: -1875.95817425694463   -1.87596e+03   0.00000e+00 
   @DF-RHF iter   1: -1875.81436299222241    1.43811e-01   5.65373e-04 DIIS
   @DF-RHF iter   2: -1875.85331527223548   -3.89523e-02   5.18066e-04 DIIS
   @DF-RHF iter   3: -1875.93071260840679   -7.73973e-02   5.81288e-05 DIIS
   @DF-RHF iter   4: -1875.93326429511308   -2.55169e-03   2.11690e-05 DIIS
   @DF-RHF iter   5: -1875.93368066418384   -4.16369e-04   4.24615e-06 DIIS
   @DF-RHF iter   6: -1875.93369915085646   -1.84867e-05   6.98948e-07 DIIS
   @DF-RHF iter   7: -1875.93369938793967   -2.37083e-07   8.74622e-08 DIIS
   @DF-RHF iter   8: -1875.93369939392824   -5.98857e-09   2.06295e-08 DIIS
   @DF-RHF iter   9: -1875.93369939425202   -3.23780e-10   6.51727e-09 DIIS
  Energy and wave function converged.


  ==> Post-Iterations <==

    Orbital Energies [Eh]
    ---------------------

    Doubly Occupied:                                                      

       1A   -104.876388     2A   -104.876340     3A   -104.876226  
       4A   -104.875942     5A    -11.496955     6A    -10.602038  
       7A    -10.601995     8A    -10.601882     9A    -10.601636  
      10A     -8.069010    11A     -8.068967    12A     -8.068854  
      13A     -8.068607    14A     -8.066914    15A     -8.066913  
      16A     -8.066871    17A     -8.066870    18A     -8.066759  
      19A     -8.066758    20A     -8.066511    21A     -8.066511  
      22A     -1.281354    23A     -1.127767    24A     -1.127598  
      25A     -1.127286    26A     -0.833861    27A     -0.658089  
      28A     -0.657984    29A     -0.657757    30A     -0.532037  
      31A     -0.531975    32A     -0.489041    33A     -0.488900  
      34A     -0.488570    35A     -0.460754    36A     -0.460487  
      37A     -0.460408  

    Virtual:                                                              

      38A      0.025270    39A      0.043189    40A      0.045533  
      41A      0.047308    42A      0.058129    43A      0.064965  
      44A      0.065999    45A      0.074446    46A      0.082435  
      47A      0.083537    48A      0.084211    49A      0.093147  
      50A      0.096241    51A      0.098129    52A      0.104770  
      53A      0.106220    54A      0.120475    55A      0.121874  
      56A      0.123503    57A      0.127262    58A      0.134816  
      59A      0.140285    60A      0.142339    61A      0.143703  
      62A      0.148728    63A      0.155701    64A      0.156729  
      65A      0.158029    66A      0.159135    67A      0.159562  
      68A      0.168578    69A      0.170552    70A      0.171421  
      71A      0.179870    72A      0.185015    73A      0.188903  
      74A      0.195135    75A      0.199808    76A      0.206785  
      77A      0.211603    78A      0.220908    79A      0.224690  
      80A      0.230276    81A      0.244329    82A      0.251675  
      83A      0.252569    84A      0.260515    85A      0.265429  
      86A      0.267535    87A      0.269648    88A      0.283013  
      89A      0.295978    90A      0.300885    91A      0.302337  
      92A      0.313447    93A      0.313874    94A      0.319349  
      95A      0.322374    96A      0.329616    97A      0.330222  
      98A      0.336404    99A      0.336819   100A      0.339054  
     101A      0.341969   102A      0.343113   103A      0.346682  
     104A      0.353530   105A      0.358191   106A      0.361583  
     107A      0.363622   108A      0.364869   109A      0.371441  
     110A      0.377096   111A      0.383736   112A      0.386109  
     113A      0.389459   114A      0.394878   115A      0.397252  
     116A      0.399839   117A      0.410454   118A      0.427969  
     119A      0.437993   120A      0.440425   121A      0.441876  
     122A      0.443441   123A      0.443982   124A      0.453015  
     125A      0.457004   126A      0.458540   127A      0.472624  
     128A      0.473960   129A      0.477630   130A      0.479945  
     131A      0.491702   132A      0.498817   133A      0.510522  
     134A      0.522093   135A      0.528104   136A      0.531837  
     137A      0.547530   138A      0.550145   139A      0.557726  
     140A      0.560174   141A      0.565217   142A      0.572297  
     143A      0.572523   144A      0.578634   145A      0.580259  
     146A      0.584589   147A      0.585951   148A      0.588935  
     149A      0.592403   150A      0.594481   151A      0.597716  
     152A      0.601403   153A      0.606548   154A      0.609423  
     155A      0.610822   156A      0.614991   157A      0.624942  
     158A      0.635168   159A      0.639999   160A      0.656593  
     161A      0.657429   162A      0.669769   163A      0.672443  
     164A      0.675575   165A      0.684357   166A      0.686341  
     167A      0.694808   168A      0.699119   169A      0.707753  
     170A      0.719021   171A      0.720280   172A      0.724479  
     173A      0.730498   174A      0.739892   175A      0.745827  
     176A      0.751152   177A      0.756001   178A      0.788735  
     179A      0.793154   180A      0.806817   181A      0.818087  
     182A      0.820058   183A      0.835471   184A      0.839433  
     185A      0.847538   186A      0.861947   187A      0.866695  
     188A      0.875257   189A      0.879033   190A      0.880273  
     191A      0.891499   192A      0.900095   193A      0.906193  
     194A      0.908326   195A      0.911876   196A      0.920219  
     197A      0.933272   198A      0.944395   199A      0.945388  
     200A      0.947458   201A      0.950319   202A      0.959727  
     203A      0.963280   204A      0.971771   205A      0.976443  
     206A      0.977776   207A      0.982850   208A      0.999149  
     209A      1.001746   210A      1.009328   211A      1.010850  
     212A      1.017877   213A      1.023241   214A      1.025813  
     215A      1.028927   216A      1.031668   217A      1.041144  
     218A      1.048739   219A      1.052055   220A      1.054541  
     221A      1.057850   222A      1.061861   223A      1.070810  
     224A      1.075317   225A      1.076265   226A      1.087536  
     227A      1.090544   228A      1.096933   229A      1.104121  
     230A      1.107195   231A      1.110605   232A      1.116522  
     233A      1.118650   234A      1.122547   235A      1.129265  
     236A      1.135914   237A      1.138884   238A      1.150541  
     239A      1.156337   240A      1.162568   241A      1.164585  
     242A      1.168992   243A      1.170389   244A      1.178353  
     245A      1.184658   246A      1.187447   247A      1.189866  
     248A      1.193484   249A      1.200834   250A      1.206147  
     251A      1.211753   252A      1.214594   253A      1.216433  
     254A      1.223979   255A      1.224998   256A      1.232282  
     257A      1.235260   258A      1.241835   259A      1.251173  
     260A      1.254745   261A      1.259097   262A      1.263370  
     263A      1.274857   264A      1.284308   265A      1.286513  
     266A      1.292842   267A      1.296442   268A      1.307149  
     269A      1.311000   270A      1.314914   271A      1.325021  
     272A      1.328933   273A      1.338356   274A      1.355249  
     275A      1.364112   276A      1.375494   277A      1.395625  
     278A      1.397547   279A      1.405078   280A      1.412252  
     281A      1.417016   282A      1.425889   283A      1.436533  
     284A      1.439124   285A      1.452287   286A      1.466813  
     287A      1.469119   288A      1.482983   289A      1.541076  
     290A      1.602483   291A      1.603099   292A      1.613475  
     293A      1.650298   294A      1.651164   295A      1.659410  
     296A      1.666181   297A      1.672471   298A      1.679640  
     299A      1.681387   300A      1.685602   301A      1.700341  
     302A      1.702325   303A      1.707875   304A      1.721519  
     305A      1.728910   306A      1.738789   307A      1.769391  
     308A      1.773101   309A      1.780929   310A      1.787999  
     311A      1.790880   312A      1.802423   313A      1.804675  
     314A      1.812168   315A      1.815099   316A      1.824775  
     317A      1.827523   318A      1.834858   319A      1.840359  
     320A      1.848078   321A      1.857004   322A      1.863719  
     323A      1.881614   324A      1.890748   325A      1.897550  
     326A      1.900667   327A      1.906613   328A      1.917405  
     329A      1.923053   330A      1.930340   331A      1.937506  
     332A      1.948643   333A      1.951360   334A      1.961681  
     335A      1.964343   336A      1.966285   337A      1.975325  
     338A      1.979618   339A      1.987775   340A      1.988718  
     341A      1.996096   342A      2.006365   343A      2.020615  
     344A      2.024233   345A      2.027872   346A      2.032563  
     347A      2.037258   348A      2.043577   349A      2.052642  
     350A      2.056416   351A      2.063280   352A      2.064575  
     353A      2.070908   354A      2.074961   355A      2.085261  
     356A      2.103735   357A      2.104762   358A      2.115228  
     359A      2.127782   360A      2.129726   361A      2.131153  
     362A      2.140889   363A      2.156599   364A      2.163817  
     365A      2.182508   366A      2.198117   367A      2.204719  
     368A      2.210612   369A      2.213565   370A      2.223392  
     371A      2.228471   372A      2.231152   373A      2.235699  
     374A      2.240209   375A      2.243603   376A      2.248014  
     377A      2.249771   378A      2.261408   379A      2.264565  
     380A      2.266896   381A      2.274675   382A      2.275912  
     383A      2.277616   384A      2.282155   385A      2.288924  
     386A      2.294080   387A      2.297244   388A      2.309915  
     389A      2.316010   390A      2.321902   391A      2.329779  
     392A      2.331668   393A      2.339998   394A      2.342804  
[...]
     351A      1.787752   352A      1.789060   353A      1.792766  
     354A      1.800376   355A      1.804800   356A      1.807448  
     357A      1.812079   358A      1.815902   359A      1.819103  
     360A      1.829200   361A      1.832403   362A      1.841577  
     363A      1.847256   364A      1.848882   365A      1.853889  
     366A      1.857635   367A      1.867123   368A      1.874408  
     369A      1.885886   370A      1.895533   371A      1.898896  
     372A      1.901108   373A      1.906745   374A      1.916597  
     375A      1.922364   376A      1.929148   377A      1.932320  
     378A      1.932884   379A      1.939454   380A      1.947619  
     381A      1.954911   382A      1.957809   383A      1.959474  
     384A      1.964656   385A      1.971396   386A      1.992212  
     387A      1.993324   388A      2.004424   389A      2.005506  
     390A      2.017047   391A      2.019715   392A      2.024515  
     393A      2.026418   394A      2.032397   395A      2.037626  
     396A      2.043210   397A      2.050431   398A      2.053625  
     399A      2.059333   400A      2.060364   401A      2.066688  
     402A      2.079416   403A      2.083701   404A      2.089731  
     405A      2.096977   406A      2.101063   407A      2.103556  
     408A      2.107352   409A      2.109076   410A      2.113464  
     411A      2.121567   412A      2.122102   413A      2.126573  
     414A      2.127807   415A      2.130979   416A      2.134257  
     417A      2.141278   418A      2.142088   419A      2.151607  
     420A      2.156769   421A      2.172106   422A      2.181359  
     423A      2.186241   424A      2.199761   425A      2.200951  
     426A      2.212059   427A      2.214535   428A      2.220601  
     429A      2.225572   430A      2.229734   431A      2.232156  
     432A      2.232754   433A      2.235158   434A      2.237529  
     435A      2.240405   436A      2.243743   437A      2.246075  
     438A      2.256690   439A      2.260456   440A      2.265868  
     441A      2.267632   442A      2.270971   443A      2.274113  
     444A      2.276402   445A      2.281534   446A      2.284160  
     447A      2.286191   448A      2.289589   449A      2.301371  
     450A      2.308813   451A      2.312622   452A      2.320652  
     453A      2.327235   454A      2.328713   455A      2.340535  
     456A      2.345834   457A      2.351326   458A      2.358384  
     459A      2.364549   460A      2.376229   461A      2.379271  
     462A      2.395755   463A      2.399391   464A      2.404329  
     465A      2.418060   466A      2.427463   467A      2.438362  
     468A      2.459598   469A      2.472029   470A      2.475930  
     471A      2.481812   472A      2.484359   473A      2.486531  
     474A      2.493402   475A      2.501135   476A      2.508743  
     477A      2.509402   478A      2.518858   479A      2.529332  
     480A      2.530396   481A      2.534105   482A      2.537668  
     483A      2.541599   484A      2.544978   485A      2.550554  
     486A      2.552533   487A      2.561096   488A      2.563251  
     489A      2.568309   490A      2.573261   491A      2.580480  
     492A      2.591854   493A      2.598226   494A      2.605838  
     495A      2.619182   496A      2.648851   497A      2.652095  
     498A      2.654509   499A      2.656140   500A      2.661860  
     501A      2.666508   502A      2.672859   503A      2.679298  
     504A      2.685193   505A      2.685976   506A      2.701693  
     507A      2.712207   508A      2.731568   509A      2.812873  
     510A      2.819259   511A      2.832787   512A      2.840961  
     513A      2.854772   514A      2.884183   515A      2.886614  
     516A      2.893635   517A      2.898696   518A      2.907417  
     519A      2.915208   520A      2.920611   521A      2.932256  
     522A      2.944578   523A      2.974708   524A      2.976343  
     525A      2.979765   526A      2.983724   527A      2.986588  
     528A      2.990043   529A      2.992482   530A      2.994180  
     531A      2.999890   532A      3.020835   533A      3.237896  
     534A      3.238934   535A      3.243084   536A      3.244189  
     537A      3.245008   538A      3.245811   539A      3.247937  
     540A      3.248922   541A      3.251636   542A      3.256354  
     543A      3.265235   544A      3.285476   545A      3.409081  
     546A      3.413918   547A      3.419923   548A      3.431093  
     549A      3.437389   550A      3.439689   551A      3.446205  
     552A      3.449824   553A      3.453120   554A      3.462339  
     555A      3.463197   556A      3.465792   557A      3.472813  
     558A      3.483410   559A      3.525527   560A      3.530546  
     561A      3.534830   562A      3.543479   563A      3.550942  
     564A      3.577450   565A      3.591911   566A      3.593882  
     567A      3.598462   568A      3.604307   569A      3.605814  
     570A      3.619923   571A      3.638873   572A      3.659907  
     573A      3.735862   574A      3.741773   575A      3.977870  
     576A      3.982277   577A      3.985675   578A      3.987756  
     579A      3.993221   580A      3.997454   581A      4.225094  
     582A      4.249447   583A      4.373846   584A      4.382468  
     585A      4.386784   586A      4.399174   587A      4.461700  
     588A      4.466397   589A      4.468149   590A      4.469499  
     591A      4.478687   592A      4.483061   593A      4.484459  
     594A      4.486787   595A      4.491000   596A      4.497192  
     597A      4.503163   598A      4.504976   599A      4.516240  
     600A      4.521411   601A      4.537033   602A      4.585263  
     603A      4.622304   604A      4.623012   605A      4.625186  
     606A      4.628239   607A      4.632286   608A      4.645830  
     609A      4.681367   610A      4.688438   611A      4.694010  
     612A      4.696486   613A      4.699378   614A      4.701888  
     615A      4.703822   616A      4.707293   617A      4.711030  
     618A      4.711295   619A      4.713198   620A      4.713728  
     621A      4.720767   622A      4.723934   623A      4.733384  
     624A      4.737438   625A      4.740990   626A      4.742968  
     627A      4.747161   628A      4.751354   629A      4.754453  
     630A      4.760878   631A      4.761552   632A      4.765600  
     633A      4.768865   634A      4.769664   635A      4.773012  
     636A      4.773669   637A      4.776942   638A      4.778361  
     639A      4.780340   640A      4.783199   641A      4.784618  
     642A      4.787605   643A      4.788982   644A      4.795124  
     645A      4.796528   646A      4.802421   647A      4.804407  
     648A      4.808294   649A      4.812052   650A      4.816183  
     651A      4.821377   652A      4.829966   653A      4.841078  
     654A      4.845966   655A      4.848397   656A      4.855925  
     657A      4.856510   658A      4.861018   659A      4.863963  
     660A      4.865344   661A      4.867593   662A      4.870115  
     663A      4.871258   664A      4.872946   665A      4.875726  
     666A      4.882333   667A      4.885846   668A      4.890861  
     669A      4.893558   670A      4.898277   671A      4.900037  
     672A      4.903680   673A      4.911452   674A      4.915081  
     675A      4.922397   676A      4.926470   677A      4.931196  
     678A      4.940432   679A      4.941510   680A      4.947512  
     681A      4.950233   682A      4.952182   683A      4.954492  
     684A      4.957497   685A      4.960884   686A      4.963469  
     687A      4.966448   688A      4.968403   689A      4.977556  
     690A      4.984203   691A      4.988615   692A      4.990732  
     693A      4.997040   694A      5.004859   695A      5.005429  
     696A      5.012162   697A      5.025057   698A      5.029649  
     699A      5.043884   700A      5.047109   701A      5.055056  
     702A      5.063502   703A      5.064905   704A      5.071867  
     705A      5.076864   706A      5.082780   707A      5.095058  
     708A      5.108153   709A      5.109177   710A      5.112289  
     711A      5.122223   712A      5.131280   713A      5.135733  
     714A      5.165390   715A      5.174637   716A      5.185312  
     717A      5.190369   718A      5.205263   719A      5.295444  
     720A      5.297921   721A      5.305396   722A      5.307358  
     723A      5.312594   724A      5.319369   725A      5.337345  
     726A      5.356443   727A      5.366123   728A      5.377664  
     729A      5.384610   730A      5.388524   731A      5.389840  
     732A      5.393224   733A      5.427544   734A      5.429003  
     735A      5.436231   736A      5.438383   737A      5.443546  
     738A      5.459956   739A      5.464589   740A      5.470207  
     741A      5.476407   742A      5.513668   743A      5.612667  
     744A      5.614561   745A      5.621826   746A      5.623712  
     747A      5.631658   748A      5.640694   749A      5.818857  
     750A      5.828789   751A      6.615192   752A      6.632458  
     753A      6.655591   754A      6.661884   755A      6.676119  
     756A      6.682078   757A      6.687245   758A      6.687790  
     759A      6.690985   760A      6.691861   761A      6.692709  
     762A      6.693342   763A      6.694413   764A      6.714803  
     765A      6.767040   766A      6.768730   767A      6.770540  
     768A      6.772136   769A      6.835457   770A      6.839050  
     771A      6.840215   772A      6.842705   773A      6.850736  
     774A      6.867229   775A      6.872575   776A      6.881019  
     777A      6.885425   778A      6.897444   779A      6.920089  
     780A      6.946517   781A      7.114950   782A      7.117107  
     783A      7.117153   784A      7.120980   785A      7.213294  
     786A      7.215176   787A      7.217650   788A      7.220082  
     789A      7.222410   790A      7.238122   791A      7.290392  
     792A      7.293393   793A      7.295478   794A      7.303368  
     795A      7.312832   796A      7.336113   797A      7.344304  
     798A      7.351896   799A      7.358582   800A      7.392330  
     801A      7.553733   802A      7.564405   803A      7.748470  
     804A      7.753930   805A      7.757192   806A      7.760856  
     807A      7.765718   808A      7.775740   809A      7.829123  
     810A      7.832027   811A      7.836233   812A      7.838934  
     813A      7.846395   814A      7.856502   815A      8.523280  
     816A      8.524334   817A      8.529358   818A      8.531198  
     819A      8.533112   820A      8.547519   821A      8.778697  
     822A      8.784993   823A     24.804860   824A     24.858857  
     825A     26.702157   826A     26.718830   827A     26.745072  
     828A     26.770168   829A     26.772248   830A     26.787954  
     831A     26.892148   832A     27.020617  

    Final Occupation by Irrep:
              A 
    DOCC [    74 ]

  @DF-RHF Final Energy: -3751.86593665330838

   => Energetics <=

    Nuclear Repulsion Energy =           1414.2484660540264940
    One-Electron Energy =               -8005.9394292034212413
    Two-Electron Energy =                2839.8250264960861386
    Total Energy =                      -3751.8659366533083812

Computation Completed


Properties will be evaluated at  -0.000000,   0.000000,   0.000000 [a0]

Properties computed using the SCF density matrix

  Nuclear Dipole Moment: [e a0]
     X:    -0.0002      Y:     0.0001      Z:    -0.0004

  Electronic Dipole Moment: [e a0]
     X:     0.0102      Y:    -0.0023      Z:    -0.0016

  Dipole Moment: [e a0]
     X:     0.0099      Y:    -0.0022      Z:    -0.0020     Total:     0.0104

  Dipole Moment: [D]
     X:     0.0252      Y:    -0.0056      Z:    -0.0051     Total:     0.0264


*** tstop() called on node37.bme.utexas.edu at Tue Feb 22 21:26:31 2022
Module time:
	user time   =     568.45 seconds =       9.47 minutes
	system time =      91.68 seconds =       1.53 minutes
	total time  =        224 seconds =       3.73 minutes
Total time:
	user time   =    2628.34 seconds =      43.81 minutes
	system time =     408.16 seconds =       6.80 minutes
	total time  =       1040 seconds =      17.33 minutes

*** tstart() called on node37.bme.utexas.edu
*** at Tue Feb 22 21:26:31 2022


  //>>>>>>>>>>>>>>>>>>>>>>>>>>>>>>>>>>>//
  //               DFMP2               //
  //<<<<<<<<<<<<<<<<<<<<<<<<<<<<<<<<<<<//

   => Loading Basis Set <=

    Name: (AUG-CC-PVQZ AUX)
    Role: RIFIT
    Keyword: DF_BASIS_MP2
    atoms 1-4, 6-9 entry CL         line   914 file /home/bdw2292/miniconda3/envs/amoebamdpoltype/share/psi4/basis/aug-cc-pvqz-ri.gbs 
    atoms 5, 10    entry C          line   184 file /home/bdw2292/miniconda3/envs/amoebamdpoltype/share/psi4/basis/aug-cc-pvqz-ri.gbs 

	 --------------------------------------------------------
	                          DF-MP2                         
	      2nd-Order Density-Fitted Moller-Plesset Theory     
	              RMP2 Wavefunction,   4 Threads             
	                                                         
	        Rob Parrish, Justin Turney, Andy Simmonett,      
	           Ed Hohenstein, and C. David Sherrill          
	 --------------------------------------------------------

   => Auxiliary Basis Set <=

  Basis Set: (AUG-CC-PVQZ AUX)
    Blend: AUG-CC-PVQZ-RI
    Number of shells: 424
    Number of basis function: 1888
    Number of Cartesian functions: 2618
    Spherical Harmonics?: true
    Max angular momentum: 5

	 --------------------------------------------------------
	                 NBF =   832, NAUX =  1888
	 --------------------------------------------------------
	   CLASS    FOCC     OCC    AOCC    AVIR     VIR    FVIR
	   PAIRS      42      74      32     758     758       0
	 --------------------------------------------------------

	-----------------------------------------------------------
	 ==================> DF-MP2 Energies <==================== 
	-----------------------------------------------------------
	 Reference Energy          =   -3751.8659366533083812 [Eh]
	 Singles Energy            =      -0.0000000000000000 [Eh]
	 Same-Spin Energy          =      -0.5115813252851578 [Eh]
	 Opposite-Spin Energy      =      -1.5464027984083455 [Eh]
	 Correlation Energy        =      -2.0579841236935033 [Eh]
	 Total Energy              =   -3753.9239207770019675 [Eh]
	-----------------------------------------------------------
	 ================> DF-SCS-MP2 Energies <================== 
	-----------------------------------------------------------
	 SCS Same-Spin Scale       =       0.3333333333333333 [-]
	 SCS Opposite-Spin Scale   =       1.2000000000000000 [-]
	 SCS Same-Spin Energy      =      -0.1705271084283859 [Eh]
	 SCS Opposite-Spin Energy  =      -1.8556833580900145 [Eh]
	 SCS Correlation Energy    =      -2.0262104665184006 [Eh]
	 SCS Total Energy          =   -3753.8921471198268591 [Eh]
	-----------------------------------------------------------


*** tstop() called on node37.bme.utexas.edu at Tue Feb 22 21:27:35 2022
Module time:
	user time   =     190.82 seconds =       3.18 minutes
	system time =       9.60 seconds =       0.16 minutes
	total time  =         64 seconds =       1.07 minutes
Total time:
	user time   =    2819.16 seconds =      46.99 minutes
	system time =     417.76 seconds =       6.96 minutes
	total time  =       1104 seconds =      18.40 minutes

  //>>>>>>>>>>>>>>>>>>>>>>>>>>>>>>>>>>>//
  //  CBS Results: mp2/aug-cc-pV[TQ]Z  //
  //<<<<<<<<<<<<<<<<<<<<<<<<<<<<<<<<<<<//


   ==> HF <==

   HI-zeta (4) Energy:               -3751.865936653308


   ==> Helgaker 2-point correlated extrapolation for method: MP2 <==

   LO-zeta (3) Energy:               -3753.738598740072
   HI-zeta (4) Energy:               -3753.923920777002
   Alpha (exponent) Value:             3.000000000000
   Extrapolated Energy:              -3754.059155776923

   @Extrapolated MP2/(T,Q):          -3754.059155776923



   ==> Helgaker 2-point correlated extrapolation for method: HF <==

   LO-zeta (3) Energy:               -3751.831446216852
   HI-zeta (4) Energy:               -3751.865936653308
   Alpha (exponent) Value:             3.000000000000
   Extrapolated Energy:              -3751.891105350182

   @Extrapolated HF/(T,Q):           -3751.891105350182


   ==> Components <==

  ---------------------------------------------------------------------------------------------------------
                          Method / Basis                      Rqd      Energy [Eh]   Variable
  ---------------------------------------------------------------------------------------------------------
                              hf / aug-cc-pvtz                  *   -3751.83144622   HF TOTAL ENERGY
                             mp2 / aug-cc-pvtz                  *   -3753.73859874   MP2 TOTAL ENERGY
                              hf / aug-cc-pvqz                  *   -3751.86593665   HF TOTAL ENERGY
                             mp2 / aug-cc-pvqz                  *   -3753.92392078   MP2 TOTAL ENERGY
  ---------------------------------------------------------------------------------------------------------

   ==> Stages <==

  ---------------------------------------------------------------------------------------------------------
      Stage               Method / Basis                       Wt      Energy [Eh]   Scheme
  ---------------------------------------------------------------------------------------------------------
        scf                   hf / aug-cc-pvqz                  1   -3751.86593665   xtpl_highest_1
       corl                  mp2 / aug-cc-pv[tq]z               1   -3754.05915578   corl_xtpl_helgaker_2
       corl                   hf / aug-cc-pv[tq]z              -1   -3751.89110535   corl_xtpl_helgaker_2
  ---------------------------------------------------------------------------------------------------------

   ==> CBS <==

  ---------------------------------------------------------------------------------------------------------
      Stage               Method / Basis                               Energy [Eh]   Scheme
  ---------------------------------------------------------------------------------------------------------
        scf                   hf / aug-cc-pvqz                      -3751.86593665   xtpl_highest_1
       corl                  mp2 / aug-cc-pv[tq]z                      -2.16805043   corl_xtpl_helgaker_2
      total                  CBS                                    -3754.03398708   
  ---------------------------------------------------------------------------------------------------------
   => Loading Basis Set <=

    Name: DEF2-SVP
    Role: ORBITAL
    Keyword: BASIS
    atoms 1-4, 6-9 entry CL         line   356 file /home/bdw2292/miniconda3/envs/amoebamdpoltype/share/psi4/basis/def2-svp.gbs 
    atoms 5, 10    entry C          line    90 file /home/bdw2292/miniconda3/envs/amoebamdpoltype/share/psi4/basis/def2-svp.gbs 


       N-Body: Complex Energy (fragments = (1, 2), basis = (1, 2): -3754.03398708005079)

   ==> N-Body: Counterpoise Corrected (CP) energies <==

   n-Body     Total Energy [Eh]       I.E. [kcal/mol]      Delta [kcal/mol]
        1    -3754.029707807563        0.000000000000        0.000000000000
        2    -3754.033841721917       -2.594070420661       -2.594070420661

   => Loading Basis Set <=

    Name: DEF2-SVP
    Role: ORBITAL
    Keyword: BASIS
    atoms 1-4, 6-9 entry CL         line   356 file /home/bdw2292/miniconda3/envs/amoebamdpoltype/share/psi4/basis/def2-svp.gbs 
    atoms 5, 10    entry C          line    90 file /home/bdw2292/miniconda3/envs/amoebamdpoltype/share/psi4/basis/def2-svp.gbs 

CP Energy =  -0.004134
    Psi4 stopped on: Tuesday, 22 February 2022 09:27PM
    Psi4 wall time for execution: 0:18:24.06

*** Psi4 exiting successfully. Buy a developer a beer!
