
    -----------------------------------------------------------------------
          Psi4: An Open-Source Ab Initio Electronic Structure Package
                               Psi4 1.3.2 release

                         Git: Rev {HEAD} ecbda83 


    R. M. Parrish, L. A. Burns, D. G. A. Smith, A. C. Simmonett,
    A. E. DePrince III, E. G. Hohenstein, U. Bozkaya, A. Yu. Sokolov,
    R. Di Remigio, R. M. Richard, J. F. Gonthier, A. M. James,
    H. R. McAlexander, A. Kumar, M. Saitow, X. Wang, B. P. Pritchard,
    P. Verma, H. F. Schaefer III, K. Patkowski, R. A. King, E. F. Valeev,
    F. A. Evangelista, J. M. Turney, T. D. Crawford, and C. D. Sherrill,
    J. Chem. Theory Comput. 13(7) pp 3185--3197 (2017).
    (doi: 10.1021/acs.jctc.7b00174)


                         Additional Contributions by
    P. Kraus, H. Kruse, M. H. Lechner, M. C. Schieber, R. A. Shaw,
    A. Alenaizan, R. Galvelis, Z. L. Glick, S. Lehtola, and J. P. Misiewicz

    -----------------------------------------------------------------------


    Psi4 started on: Tuesday, 22 February 2022 07:59PM

    Process ID: 47826
    Host:       node37.bme.utexas.edu
    PSIDATADIR: /home/bdw2292/miniconda3/envs/amoebamdpoltype/share/psi4
    Memory:     500.0 MiB
    Threads:    1
    
  ==> Input File <==

--------------------------------------------------------------------------
molecule { 
0 1
 Cl                 -1.1871076    -0.8335049     1.5502738
 Cl                 -0.8653436     1.3740538    -0.2923766
 Cl                 -0.1207216    -1.2934769    -1.0993016
 Cl                  1.4598061     0.1120695     0.8621506
  C                 -0.1806370    -0.1611091     0.2591364
--
0 1
  O                  1.8156611     2.0146776    -1.5996266
  H                  1.3959734     1.1542226    -1.6025352
  H                  2.0006913     2.2643287    -2.5048173
}
memory 15GB
set_num_threads(4)
psi4_io.set_default_path("/scratch/bdw2292/Psi4-CCl4")
set maxiter 500
set freeze_core True
set PROPERTIES_ORIGIN ["COM"]
e_dim= energy('mp2/aug-cc-pV[TQ]Z',bsse_type='cp')

psi4.print_out('CP Energy = %10.6f' % (e_dim))
clean()
--------------------------------------------------------------------------

  Memory set to  13.970 GiB by Python driver.
  Threads set to 4 by Python driver.


   ===> N-Body Interaction Abacus <===
        BSSE Treatment:                     cp
        Number of 1-body computations:     4
        Number of 2-body computations:     1

   ==> N-Body: Now computing 1-body complexes <==


       N-Body: Computing complex (1/4) with fragments (2,) in the basis of fragments (2,).


  //>>>>>>>>>>>>>>>>>>>>>>>>>>>>>>>>>>>//
  //   CBS Setup: mp2/aug-cc-pV[TQ]Z   //
  //<<<<<<<<<<<<<<<<<<<<<<<<<<<<<<<<<<<//

    Naive listing of computations required.
             hf / aug-cc-pvqz              for  HF TOTAL ENERGY
            mp2 / aug-cc-pvtz              for  MP2 TOTAL ENERGY
            mp2 / aug-cc-pvqz              for  MP2 TOTAL ENERGY
             hf / aug-cc-pvtz              for  HF TOTAL ENERGY
             hf / aug-cc-pvqz              for  HF TOTAL ENERGY

    Enlightened listing of computations required.
            mp2 / aug-cc-pvtz              for  MP2 TOTAL ENERGY
            mp2 / aug-cc-pvqz              for  MP2 TOTAL ENERGY

    Full listing of computations to be obtained (required and bonus).
             hf / aug-cc-pvtz              for  HF TOTAL ENERGY
            mp2 / aug-cc-pvtz              for  MP2 TOTAL ENERGY
             hf / aug-cc-pvqz              for  HF TOTAL ENERGY
            mp2 / aug-cc-pvqz              for  MP2 TOTAL ENERGY

  //>>>>>>>>>>>>>>>>>>>>>>>>>>>>>>>>>>>>//
  // CBS Computation: MP2 / AUG-CC-PVTZ //
  //<<<<<<<<<<<<<<<<<<<<<<<<<<<<<<<<<<<<//

    SCF Algorithm Type (re)set to DF.

*** tstart() called on node37.bme.utexas.edu
*** at Tue Feb 22 19:59:07 2022

   => Loading Basis Set <=

    Name: AUG-CC-PVTZ
    Role: ORBITAL
    Keyword: BASIS
    atoms 1   entry O          line   327 file /home/bdw2292/miniconda3/envs/amoebamdpoltype/share/psi4/basis/aug-cc-pvtz.gbs 
    atoms 2-3 entry H          line    36 file /home/bdw2292/miniconda3/envs/amoebamdpoltype/share/psi4/basis/aug-cc-pvtz.gbs 


         ---------------------------------------------------------
                                   SCF
               by Justin Turney, Rob Parrish, Andy Simmonett
                          and Daniel G. A. Smith
                              RHF Reference
                        4 Threads,  14305 MiB Core
         ---------------------------------------------------------

  ==> Geometry <==

    Molecular point group: c1
    Full point group: C1

    Geometry (in Angstrom), charge = 0, multiplicity = 1:

       Center              X                  Y                   Z               Mass       
    ------------   -----------------  -----------------  -----------------  -----------------
         O            1.784161566682     1.948006398519    -1.653065836026    15.994914619570
         H            1.364473866682     1.087551398519    -1.655974436026     1.007825032230
         H            1.969191766682     2.197657498519    -2.558256536026     1.007825032230

  Running in c1 symmetry.

  Rotational constants: A =     27.52965  B =      0.09580  C =      0.09553 [cm^-1]
  Rotational constants: A = 825318.15898  B =   2872.07806  C =   2863.79261 [MHz]
  Nuclear repulsion =    9.186148249468390

  Charge       = 0
  Multiplicity = 1
  Electrons    = 10
  Nalpha       = 5
  Nbeta        = 5

  ==> Algorithm <==

  SCF Algorithm Type is DF.
  DIIS enabled.
  MOM disabled.
  Fractional occupation disabled.
  Guess Type is SAD.
  Energy threshold   = 1.00e-08
  Density threshold  = 1.00e-08
  Integral threshold = 0.00e+00

  ==> Primary Basis <==

  Basis Set: AUG-CC-PVTZ
    Blend: AUG-CC-PVTZ
    Number of shells: 32
    Number of basis function: 92
    Number of Cartesian functions: 105
    Spherical Harmonics?: true
    Max angular momentum: 3

   => Loading Basis Set <=

    Name: (AUG-CC-PVTZ AUX)
    Role: JKFIT
    Keyword: DF_BASIS_SCF
    atoms 1   entry O          line   286 file /home/bdw2292/miniconda3/envs/amoebamdpoltype/share/psi4/basis/aug-cc-pvtz-jkfit.gbs 
    atoms 2-3 entry H          line    70 file /home/bdw2292/miniconda3/envs/amoebamdpoltype/share/psi4/basis/aug-cc-pvtz-jkfit.gbs 

  ==> Pre-Iterations <==

   -------------------------------------------------------
    Irrep   Nso     Nmo     Nalpha   Nbeta   Ndocc  Nsocc
   -------------------------------------------------------
     A         92      92       0       0       0       0
   -------------------------------------------------------
    Total      92      92       5       5       5       0
   -------------------------------------------------------

  ==> Integral Setup <==

  DFHelper Memory: AOs need 0.015 GiB; user supplied 10.477 GiB. Using in-core AOs.

  ==> MemDFJK: Density-Fitted J/K Matrices <==

    J tasked:                   Yes
    K tasked:                   Yes
    wK tasked:                   No
    OpenMP threads:               4
    Memory [MiB]:             10728
    Algorithm:                 Core
    Schwarz Cutoff:           1E-12
    Mask sparsity (%):       0.0000
    Fitting Condition:        1E-10

   => Auxiliary Basis Set <=

  Basis Set: (AUG-CC-PVTZ AUX)
    Blend: AUG-CC-PVTZ-JKFIT
    Number of shells: 58
    Number of basis function: 196
    Number of Cartesian functions: 241
    Spherical Harmonics?: true
    Max angular momentum: 4

  Minimum eigenvalue in the overlap matrix is 3.7696484337E-04.
  Using Symmetric Orthogonalization.

  SCF Guess: Superposition of Atomic Densities via on-the-fly atomic UHF.

  ==> Iterations <==

                           Total Energy        Delta E     RMS |[F,P]|

   @DF-RHF iter SAD:   -75.47424567389686   -7.54742e+01   0.00000e+00 
   @DF-RHF iter   1:   -75.97661555851701   -5.02370e-01   5.09438e-03 DIIS
   @DF-RHF iter   2:   -76.02903973686892   -5.24242e-02   3.45094e-03 DIIS
   @DF-RHF iter   3:   -76.06004027176213   -3.10005e-02   2.34338e-04 DIIS
   @DF-RHF iter   4:   -76.06042956954184   -3.89298e-04   5.59180e-05 DIIS
   @DF-RHF iter   5:   -76.06045346015276   -2.38906e-05   1.25834e-05 DIIS
   @DF-RHF iter   6:   -76.06045541039846   -1.95025e-06   2.80103e-06 DIIS
   @DF-RHF iter   7:   -76.06045551795017   -1.07552e-07   5.29814e-07 DIIS
   @DF-RHF iter   8:   -76.06045552136528   -3.41511e-09   8.78279e-08 DIIS
   @DF-RHF iter   9:   -76.06045552143914   -7.38538e-11   2.18145e-08 DIIS
   @DF-RHF iter  10:   -76.06045552144329   -4.14957e-12   2.97203e-09 DIIS
  Energy and wave function converged.


  ==> Post-Iterations <==

    Orbital Energies [Eh]
    ---------------------

    Doubly Occupied:                                                      

       1A    -20.565426     2A     -1.350847     3A     -0.725307  
       4A     -0.577302     5A     -0.509196  

    Virtual:                                                              

       6A      0.029677     7A      0.047443     8A      0.136487  
       9A      0.157841    10A      0.174270    11A      0.182026  
      12A      0.228883    13A      0.244466    14A      0.263836  
      15A      0.304779    16A      0.313262    17A      0.365231  
      18A      0.438015    19A      0.466848    20A      0.602282  
      21A      0.654254    22A      0.711172    23A      0.719258  
      24A      0.731230    25A      0.828085    26A      0.843777  
      27A      0.889938    28A      0.912955    29A      0.920659  
      30A      0.923931    31A      0.927932    32A      0.971430  
      33A      1.023128    34A      1.045439    35A      1.085220  
      36A      1.114258    37A      1.172778    38A      1.177429  
      39A      1.259498    40A      1.514612    41A      1.563770  
      42A      1.596232    43A      1.784948    44A      1.796971  
      45A      2.004045    46A      2.116171    47A      2.259660  
      48A      2.318750    49A      2.320874    50A      2.413279  
      51A      2.414521    52A      2.438467    53A      2.471340  
      54A      2.686780    55A      2.703198    56A      2.768402  
      57A      2.857733    58A      2.883998    59A      3.645673  
      60A      3.770459    61A      4.007488    62A      4.090627  
      63A      4.212426    64A      4.231532    65A      4.336547  
      66A      4.382108    67A      4.400982    68A      4.417007  
      69A      4.493269    70A      4.707861    71A      4.812923  
      72A      5.125363    73A      5.173773    74A      5.307460  
      75A      5.331574    76A      5.514235    77A      5.722820  
      78A      6.139884    79A      6.534543    80A      6.713439  
      81A      6.858826    82A      7.146644    83A      7.263257  
      84A      7.298472    85A      7.308406    86A      7.371291  
      87A      7.389866    88A      7.559901    89A      7.898175  
      90A      7.965499    91A      8.790600    92A     15.871337  

    Final Occupation by Irrep:
              A 
    DOCC [     5 ]

  @DF-RHF Final Energy:   -76.06045552144329

   => Energetics <=

    Nuclear Repulsion Energy =              9.1861482494683901
    One-Electron Energy =                -123.0370522247874732
    Two-Electron Energy =                  37.7904484538758041
    Total Energy =                        -76.0604555214432878

Computation Completed


Properties will be evaluated at   3.346763,   3.616610,  -3.219868 [a0]

Properties computed using the SCF density matrix

  Nuclear Dipole Moment: [e a0]
     X:    -0.1953      Y:    -0.5084      Z:    -0.7558

  Electronic Dipole Moment: [e a0]
     X:     0.0372      Y:     0.0969      Z:     0.1440

  Dipole Moment: [e a0]
     X:    -0.1581      Y:    -0.4115      Z:    -0.6118     Total:     0.7540

  Dipole Moment: [D]
     X:    -0.4018      Y:    -1.0458      Z:    -1.5550     Total:     1.9166


*** tstop() called on node37.bme.utexas.edu at Tue Feb 22 19:59:09 2022
Module time:
	user time   =       4.07 seconds =       0.07 minutes
	system time =       0.26 seconds =       0.00 minutes
	total time  =          2 seconds =       0.03 minutes
Total time:
	user time   =       4.07 seconds =       0.07 minutes
	system time =       0.26 seconds =       0.00 minutes
	total time  =          2 seconds =       0.03 minutes

*** tstart() called on node37.bme.utexas.edu
*** at Tue Feb 22 19:59:09 2022


  //>>>>>>>>>>>>>>>>>>>>>>>>>>>>>>>>>>>//
  //               DFMP2               //
  //<<<<<<<<<<<<<<<<<<<<<<<<<<<<<<<<<<<//

   => Loading Basis Set <=

    Name: (AUG-CC-PVTZ AUX)
    Role: RIFIT
    Keyword: DF_BASIS_MP2
    atoms 1   entry O          line   264 file /home/bdw2292/miniconda3/envs/amoebamdpoltype/share/psi4/basis/aug-cc-pvtz-ri.gbs 
    atoms 2-3 entry H          line    30 file /home/bdw2292/miniconda3/envs/amoebamdpoltype/share/psi4/basis/aug-cc-pvtz-ri.gbs 

	 --------------------------------------------------------
	                          DF-MP2                         
	      2nd-Order Density-Fitted Moller-Plesset Theory     
	              RMP2 Wavefunction,   4 Threads             
	                                                         
	        Rob Parrish, Justin Turney, Andy Simmonett,      
	           Ed Hohenstein, and C. David Sherrill          
	 --------------------------------------------------------

   => Auxiliary Basis Set <=

  Basis Set: (AUG-CC-PVTZ AUX)
    Blend: AUG-CC-PVTZ-RI
    Number of shells: 56
    Number of basis function: 198
    Number of Cartesian functions: 246
    Spherical Harmonics?: true
    Max angular momentum: 4

	 --------------------------------------------------------
	                 NBF =    92, NAUX =   198
	 --------------------------------------------------------
	   CLASS    FOCC     OCC    AOCC    AVIR     VIR    FVIR
	   PAIRS       1       5       4      87      87       0
	 --------------------------------------------------------

	-----------------------------------------------------------
	 ==================> DF-MP2 Energies <==================== 
	-----------------------------------------------------------
	 Reference Energy          =     -76.0604555214432878 [Eh]
	 Singles Energy            =      -0.0000000000000000 [Eh]
	 Same-Spin Energy          =      -0.0650879860356861 [Eh]
	 Opposite-Spin Energy      =      -0.2029544220909390 [Eh]
	 Correlation Energy        =      -0.2680424081266251 [Eh]
	 Total Energy              =     -76.3284979295699060 [Eh]
	-----------------------------------------------------------
	 ================> DF-SCS-MP2 Energies <================== 
	-----------------------------------------------------------
	 SCS Same-Spin Scale       =       0.3333333333333333 [-]
	 SCS Opposite-Spin Scale   =       1.2000000000000000 [-]
	 SCS Same-Spin Energy      =      -0.0216959953452287 [Eh]
	 SCS Opposite-Spin Energy  =      -0.2435453065091268 [Eh]
	 SCS Correlation Energy    =      -0.2652413018543555 [Eh]
	 SCS Total Energy          =     -76.3256968232976476 [Eh]
	-----------------------------------------------------------


*** tstop() called on node37.bme.utexas.edu at Tue Feb 22 19:59:09 2022
Module time:
	user time   =       1.46 seconds =       0.02 minutes
	system time =       0.09 seconds =       0.00 minutes
	total time  =          0 seconds =       0.00 minutes
Total time:
	user time   =       5.53 seconds =       0.09 minutes
	system time =       0.36 seconds =       0.01 minutes
	total time  =          2 seconds =       0.03 minutes

  //>>>>>>>>>>>>>>>>>>>>>>>>>>>>>>>>>>>>//
  // CBS Computation: MP2 / AUG-CC-PVQZ //
  //<<<<<<<<<<<<<<<<<<<<<<<<<<<<<<<<<<<<//

    SCF Algorithm Type (re)set to DF.

*** tstart() called on node37.bme.utexas.edu
*** at Tue Feb 22 19:59:09 2022

   => Loading Basis Set <=

    Name: AUG-CC-PVQZ
    Role: ORBITAL
    Keyword: BASIS
    atoms 1   entry O          line   419 file /home/bdw2292/miniconda3/envs/amoebamdpoltype/share/psi4/basis/aug-cc-pvqz.gbs 
    atoms 2-3 entry H          line    36 file /home/bdw2292/miniconda3/envs/amoebamdpoltype/share/psi4/basis/aug-cc-pvqz.gbs 


         ---------------------------------------------------------
                                   SCF
               by Justin Turney, Rob Parrish, Andy Simmonett
                          and Daniel G. A. Smith
                              RHF Reference
                        4 Threads,  14305 MiB Core
         ---------------------------------------------------------

  ==> Geometry <==

    Molecular point group: c1
    Full point group: C1

    Geometry (in Angstrom), charge = 0, multiplicity = 1:

       Center              X                  Y                   Z               Mass       
    ------------   -----------------  -----------------  -----------------  -----------------
         O            1.784161566682     1.948006398519    -1.653065836026    15.994914619570
         H            1.364473866682     1.087551398519    -1.655974436026     1.007825032230
         H            1.969191766682     2.197657498519    -2.558256536026     1.007825032230

  Running in c1 symmetry.

  Rotational constants: A =     27.52965  B =      0.09580  C =      0.09553 [cm^-1]
  Rotational constants: A = 825318.15898  B =   2872.07806  C =   2863.79261 [MHz]
  Nuclear repulsion =    9.186148249468390

  Charge       = 0
  Multiplicity = 1
  Electrons    = 10
  Nalpha       = 5
  Nbeta        = 5

  ==> Algorithm <==

  SCF Algorithm Type is DF.
  DIIS enabled.
  MOM disabled.
  Fractional occupation disabled.
  Guess Type is SAD.
  Energy threshold   = 1.00e-08
  Density threshold  = 1.00e-08
  Integral threshold = 0.00e+00

  ==> Primary Basis <==

  Basis Set: AUG-CC-PVQZ
    Blend: AUG-CC-PVQZ
    Number of shells: 48
    Number of basis function: 172
    Number of Cartesian functions: 215
    Spherical Harmonics?: true
    Max angular momentum: 4

   => Loading Basis Set <=

    Name: (AUG-CC-PVQZ AUX)
    Role: JKFIT
    Keyword: DF_BASIS_SCF
    atoms 1   entry O          line   318 file /home/bdw2292/miniconda3/envs/amoebamdpoltype/share/psi4/basis/aug-cc-pvqz-jkfit.gbs 
    atoms 2-3 entry H          line    70 file /home/bdw2292/miniconda3/envs/amoebamdpoltype/share/psi4/basis/aug-cc-pvqz-jkfit.gbs 

  ==> Pre-Iterations <==

   -------------------------------------------------------
    Irrep   Nso     Nmo     Nalpha   Nbeta   Ndocc  Nsocc
   -------------------------------------------------------
     A        172     172       0       0       0       0
   -------------------------------------------------------
    Total     172     172       5       5       5       0
   -------------------------------------------------------

  ==> Integral Setup <==

  DFHelper Memory: AOs need 0.074 GiB; user supplied 10.477 GiB. Using in-core AOs.

  ==> MemDFJK: Density-Fitted J/K Matrices <==

    J tasked:                   Yes
    K tasked:                   Yes
    wK tasked:                   No
    OpenMP threads:               4
    Memory [MiB]:             10728
    Algorithm:                 Core
    Schwarz Cutoff:           1E-12
    Mask sparsity (%):       0.0000
    Fitting Condition:        1E-10

   => Auxiliary Basis Set <=

  Basis Set: (AUG-CC-PVQZ AUX)
    Blend: AUG-CC-PVQZ-JKFIT
    Number of shells: 70
    Number of basis function: 294
    Number of Cartesian functions: 400
    Spherical Harmonics?: true
    Max angular momentum: 5

  Minimum eigenvalue in the overlap matrix is 8.5282020861E-05.
  Using Symmetric Orthogonalization.

  SCF Guess: Superposition of Atomic Densities via on-the-fly atomic UHF.

  ==> Iterations <==

                           Total Energy        Delta E     RMS |[F,P]|

   @DF-RHF iter SAD:   -75.47940259950677   -7.54794e+01   0.00000e+00 
   @DF-RHF iter   1:   -75.98169886609753   -5.02296e-01   2.73067e-03 DIIS
   @DF-RHF iter   2:   -76.03422757417347   -5.25287e-02   1.85409e-03 DIIS
   @DF-RHF iter   3:   -76.06542611846811   -3.11985e-02   1.26255e-04 DIIS
   @DF-RHF iter   4:   -76.06581747138475   -3.91353e-04   3.08269e-05 DIIS
   @DF-RHF iter   5:   -76.06584225890199   -2.47875e-05   6.91149e-06 DIIS
   @DF-RHF iter   6:   -76.06584429125047   -2.03235e-06   1.57969e-06 DIIS
   @DF-RHF iter   7:   -76.06584441001314   -1.18763e-07   3.08365e-07 DIIS
   @DF-RHF iter   8:   -76.06584441403668   -4.02353e-09   4.93178e-08 DIIS
   @DF-RHF iter   9:   -76.06584441412062   -8.39435e-11   1.19338e-08 DIIS
   @DF-RHF iter  10:   -76.06584441412433   -3.70903e-12   1.65712e-09 DIIS
  Energy and wave function converged.


  ==> Post-Iterations <==

    Orbital Energies [Eh]
    ---------------------

    Doubly Occupied:                                                      

       1A    -20.562971     2A     -1.350121     3A     -0.725273  
       4A     -0.577354     5A     -0.509325  

    Virtual:                                                              

       6A      0.027154     7A      0.042875     8A      0.114706  
       9A      0.132592    10A      0.150347    11A      0.157857  
      12A      0.186001    13A      0.197124    14A      0.208266  
      15A      0.241372    16A      0.258954    17A      0.290425  
      18A      0.358144    19A      0.390652    20A      0.471850  
      21A      0.506705    22A      0.543013    23A      0.545702  
      24A      0.554097    25A      0.613317    26A      0.634232  
      27A      0.649638    28A      0.662619    29A      0.665778  
      30A      0.690326    31A      0.705180    32A      0.714897  
      33A      0.769590    34A      0.787691    35A      0.803479  
      36A      0.810124    37A      0.846748    38A      0.855346  
      39A      0.967423    40A      1.134246    41A      1.141031  
      42A      1.216931    43A      1.329059    44A      1.418013  
      45A      1.480569    46A      1.506086    47A      1.521912  
      48A      1.525044    49A      1.555897    50A      1.595471  
      51A      1.618129    52A      1.636722    53A      1.659513  
      54A      1.672623    55A      1.685877    56A      1.702506  
      57A      1.719652    58A      1.763533    59A      1.781716  
      60A      1.794141    61A      1.828465    62A      1.862837  
      63A      1.881760    64A      1.900476    65A      1.953685  
      66A      2.013859    67A      2.021364    68A      2.029434  
      69A      2.098897    70A      2.219026    71A      2.225845  
      72A      2.307094    73A      2.493184    74A      2.642632  
      75A      2.643915    76A      2.891307    77A      2.962622  
      78A      3.010526    79A      3.023715    80A      3.061747  
      81A      3.088669    82A      3.252838    83A      3.283123  
      84A      3.311463    85A      3.530554    86A      3.591065  
      87A      3.658525    88A      3.681489    89A      3.741411  
      90A      3.741926    91A      3.920775    92A      4.066218  
      93A      4.159220    94A      4.170405    95A      4.174719  
      96A      4.181121    97A      4.250958    98A      4.344479  
      99A      4.418688   100A      4.566317   101A      4.663232  
     102A      4.761355   103A      4.803161   104A      4.807651  
     105A      4.840679   106A      4.875766   107A      4.998702  
     108A      5.276775   109A      5.315799   110A      5.513267  
     111A      5.548886   112A      5.878728   113A      5.883551  
     114A      6.080972   115A      6.231303   116A      6.835804  
     117A      6.859972   118A      6.861742   119A      6.956700  
     120A      7.714714   121A      7.779956   122A      7.829211  
     123A      7.846629   124A      7.880353   125A      7.919701  
     126A      7.947322   127A      8.006665   128A      8.198005  
     129A      8.341642   130A      8.537604   131A      8.590659  
     132A      8.707171   133A      8.759445   134A      8.800551  
     135A      8.876963   136A      8.981622   137A      9.064397  
     138A      9.142403   139A      9.527793   140A      9.843299  
     141A      9.964056   142A      9.967810   143A     10.014561  
     144A     10.443023   145A     10.479298   146A     10.653104  
     147A     10.993085   148A     11.038025   149A     11.077474  
     150A     11.259824   151A     11.370050   152A     11.439569  
     153A     11.697643   154A     11.797033   155A     11.834578  
     156A     12.013575   157A     12.175415   158A     12.226698  
     159A     12.531562   160A     12.738182   161A     12.878100  
     162A     12.896256   163A     13.211207   164A     14.001310  
     165A     14.040878   166A     14.490401   167A     14.849616  
     168A     14.878851   169A     15.305676   170A     16.931161  
     171A     17.268943   172A     45.495309  

    Final Occupation by Irrep:
              A 
    DOCC [     5 ]

  @DF-RHF Final Energy:   -76.06584441412433

   => Energetics <=

    Nuclear Repulsion Energy =              9.1861482494683901
    One-Electron Energy =                -123.0538973280278299
    Two-Electron Energy =                  37.8019046644351135
    Total Energy =                        -76.0658444141243280

Computation Completed


Properties will be evaluated at   3.346763,   3.616610,  -3.219868 [a0]

Properties computed using the SCF density matrix

  Nuclear Dipole Moment: [e a0]
     X:    -0.1953      Y:    -0.5084      Z:    -0.7558

  Electronic Dipole Moment: [e a0]
     X:     0.0374      Y:     0.0974      Z:     0.1447

  Dipole Moment: [e a0]
     X:    -0.1579      Y:    -0.4110      Z:    -0.6111     Total:     0.7532

  Dipole Moment: [D]
     X:    -0.4013      Y:    -1.0446      Z:    -1.5533     Total:     1.9144


*** tstop() called on node37.bme.utexas.edu at Tue Feb 22 19:59:13 2022
Module time:
	user time   =       7.63 seconds =       0.13 minutes
	system time =       0.49 seconds =       0.01 minutes
	total time  =          4 seconds =       0.07 minutes
Total time:
	user time   =      13.18 seconds =       0.22 minutes
	system time =       0.85 seconds =       0.01 minutes
	total time  =          6 seconds =       0.10 minutes

*** tstart() called on node37.bme.utexas.edu
*** at Tue Feb 22 19:59:13 2022


  //>>>>>>>>>>>>>>>>>>>>>>>>>>>>>>>>>>>//
  //               DFMP2               //
  //<<<<<<<<<<<<<<<<<<<<<<<<<<<<<<<<<<<//

   => Loading Basis Set <=

    Name: (AUG-CC-PVQZ AUX)
    Role: RIFIT
    Keyword: DF_BASIS_MP2
    atoms 1   entry O          line   332 file /home/bdw2292/miniconda3/envs/amoebamdpoltype/share/psi4/basis/aug-cc-pvqz-ri.gbs 
    atoms 2-3 entry H          line    30 file /home/bdw2292/miniconda3/envs/amoebamdpoltype/share/psi4/basis/aug-cc-pvqz-ri.gbs 

	 --------------------------------------------------------
	                          DF-MP2                         
	      2nd-Order Density-Fitted Moller-Plesset Theory     
	              RMP2 Wavefunction,   4 Threads             
	                                                         
	        Rob Parrish, Justin Turney, Andy Simmonett,      
	           Ed Hohenstein, and C. David Sherrill          
	 --------------------------------------------------------

   => Auxiliary Basis Set <=

  Basis Set: (AUG-CC-PVQZ AUX)
    Blend: AUG-CC-PVQZ-RI
    Number of shells: 76
    Number of basis function: 328
    Number of Cartesian functions: 447
    Spherical Harmonics?: true
    Max angular momentum: 5

	 --------------------------------------------------------
	                 NBF =   172, NAUX =   328
	 --------------------------------------------------------
	   CLASS    FOCC     OCC    AOCC    AVIR     VIR    FVIR
	   PAIRS       1       5       4     167     167       0
	 --------------------------------------------------------

	-----------------------------------------------------------
	 ==================> DF-MP2 Energies <==================== 
	-----------------------------------------------------------
	 Reference Energy          =     -76.0658444141243280 [Eh]
	 Singles Energy            =      -0.0000000000000000 [Eh]
	 Same-Spin Energy          =      -0.0671576643032090 [Eh]
	 Opposite-Spin Energy      =      -0.2184953030446042 [Eh]
	 Correlation Energy        =      -0.2856529673478131 [Eh]
	 Total Energy              =     -76.3514973814721429 [Eh]
	-----------------------------------------------------------
	 ================> DF-SCS-MP2 Energies <================== 
	-----------------------------------------------------------
	 SCS Same-Spin Scale       =       0.3333333333333333 [-]
	 SCS Opposite-Spin Scale   =       1.2000000000000000 [-]
	 SCS Same-Spin Energy      =      -0.0223858881010697 [Eh]
	 SCS Opposite-Spin Energy  =      -0.2621943636535250 [Eh]
	 SCS Correlation Energy    =      -0.2845802517545947 [Eh]
	 SCS Total Energy          =     -76.3504246658789185 [Eh]
	-----------------------------------------------------------


*** tstop() called on node37.bme.utexas.edu at Tue Feb 22 19:59:13 2022
Module time:
	user time   =       2.54 seconds =       0.04 minutes
	system time =       0.16 seconds =       0.00 minutes
	total time  =          0 seconds =       0.00 minutes
Total time:
	user time   =      15.73 seconds =       0.26 minutes
	system time =       1.01 seconds =       0.02 minutes
	total time  =          6 seconds =       0.10 minutes

  //>>>>>>>>>>>>>>>>>>>>>>>>>>>>>>>>>>>//
  //  CBS Results: mp2/aug-cc-pV[TQ]Z  //
  //<<<<<<<<<<<<<<<<<<<<<<<<<<<<<<<<<<<//


   ==> HF <==

   HI-zeta (4) Energy:               -76.065844414124


   ==> Helgaker 2-point correlated extrapolation for method: MP2 <==

   LO-zeta (3) Energy:               -76.328497929570
   HI-zeta (4) Energy:               -76.351497381472
   Alpha (exponent) Value:             3.000000000000
   Extrapolated Energy:              -76.368280765293

   @Extrapolated MP2/(T,Q):          -76.368280765293



   ==> Helgaker 2-point correlated extrapolation for method: HF <==

   LO-zeta (3) Energy:               -76.060455521443
   HI-zeta (4) Energy:               -76.065844414124
   Alpha (exponent) Value:             3.000000000000
   Extrapolated Energy:              -76.069776849324

   @Extrapolated HF/(T,Q):           -76.069776849324


   ==> Components <==

  ---------------------------------------------------------------------------------------------------------
                          Method / Basis                      Rqd      Energy [Eh]   Variable
  ---------------------------------------------------------------------------------------------------------
                              hf / aug-cc-pvtz                  *     -76.06045552   HF TOTAL ENERGY
                             mp2 / aug-cc-pvtz                  *     -76.32849793   MP2 TOTAL ENERGY
                              hf / aug-cc-pvqz                  *     -76.06584441   HF TOTAL ENERGY
                             mp2 / aug-cc-pvqz                  *     -76.35149738   MP2 TOTAL ENERGY
  ---------------------------------------------------------------------------------------------------------

   ==> Stages <==

  ---------------------------------------------------------------------------------------------------------
      Stage               Method / Basis                       Wt      Energy [Eh]   Scheme
  ---------------------------------------------------------------------------------------------------------
        scf                   hf / aug-cc-pvqz                  1     -76.06584441   xtpl_highest_1
       corl                  mp2 / aug-cc-pv[tq]z               1     -76.36828077   corl_xtpl_helgaker_2
       corl                   hf / aug-cc-pv[tq]z              -1     -76.06977685   corl_xtpl_helgaker_2
  ---------------------------------------------------------------------------------------------------------

   ==> CBS <==

  ---------------------------------------------------------------------------------------------------------
      Stage               Method / Basis                               Energy [Eh]   Scheme
  ---------------------------------------------------------------------------------------------------------
        scf                   hf / aug-cc-pvqz                        -76.06584441   xtpl_highest_1
       corl                  mp2 / aug-cc-pv[tq]z                      -0.29850392   corl_xtpl_helgaker_2
      total                  CBS                                      -76.36434833   
  ---------------------------------------------------------------------------------------------------------
   => Loading Basis Set <=

    Name: DEF2-SVP
    Role: ORBITAL
    Keyword: BASIS
    atoms 1   entry O          line   130 file /home/bdw2292/miniconda3/envs/amoebamdpoltype/share/psi4/basis/def2-svp.gbs 
    atoms 2-3 entry H          line    15 file /home/bdw2292/miniconda3/envs/amoebamdpoltype/share/psi4/basis/def2-svp.gbs 


       N-Body: Complex Energy (fragments = (2,), basis = (2,):   -76.36434833009302)

       N-Body: Computing complex (2/4) with fragments (2,) in the basis of fragments (1, 2).


  //>>>>>>>>>>>>>>>>>>>>>>>>>>>>>>>>>>>//
  //   CBS Setup: mp2/aug-cc-pV[TQ]Z   //
  //<<<<<<<<<<<<<<<<<<<<<<<<<<<<<<<<<<<//

    Naive listing of computations required.
             hf / aug-cc-pvqz              for  HF TOTAL ENERGY
            mp2 / aug-cc-pvtz              for  MP2 TOTAL ENERGY
            mp2 / aug-cc-pvqz              for  MP2 TOTAL ENERGY
             hf / aug-cc-pvtz              for  HF TOTAL ENERGY
             hf / aug-cc-pvqz              for  HF TOTAL ENERGY

    Enlightened listing of computations required.
            mp2 / aug-cc-pvtz              for  MP2 TOTAL ENERGY
            mp2 / aug-cc-pvqz              for  MP2 TOTAL ENERGY

    Full listing of computations to be obtained (required and bonus).
             hf / aug-cc-pvtz              for  HF TOTAL ENERGY
            mp2 / aug-cc-pvtz              for  MP2 TOTAL ENERGY
             hf / aug-cc-pvqz              for  HF TOTAL ENERGY
            mp2 / aug-cc-pvqz              for  MP2 TOTAL ENERGY

  //>>>>>>>>>>>>>>>>>>>>>>>>>>>>>>>>>>>>//
  // CBS Computation: MP2 / AUG-CC-PVTZ //
  //<<<<<<<<<<<<<<<<<<<<<<<<<<<<<<<<<<<<//

    SCF Algorithm Type (re)set to DF.

*** tstart() called on node37.bme.utexas.edu
*** at Tue Feb 22 19:59:14 2022

   => Loading Basis Set <=

    Name: AUG-CC-PVTZ
    Role: ORBITAL
    Keyword: BASIS
    atoms 1-4 entry CL         line   984 file /home/bdw2292/miniconda3/envs/amoebamdpoltype/share/psi4/basis/aug-cc-pvtz.gbs 
    atoms 5   entry C          line   235 file /home/bdw2292/miniconda3/envs/amoebamdpoltype/share/psi4/basis/aug-cc-pvtz.gbs 
    atoms 6   entry O          line   327 file /home/bdw2292/miniconda3/envs/amoebamdpoltype/share/psi4/basis/aug-cc-pvtz.gbs 
    atoms 7-8 entry H          line    36 file /home/bdw2292/miniconda3/envs/amoebamdpoltype/share/psi4/basis/aug-cc-pvtz.gbs 


         ---------------------------------------------------------
                                   SCF
               by Justin Turney, Rob Parrish, Andy Simmonett
                          and Daniel G. A. Smith
                              RHF Reference
                        4 Threads,  14305 MiB Core
         ---------------------------------------------------------

  ==> Geometry <==

    Molecular point group: c1
    Full point group: C1

    Geometry (in Angstrom), charge = 0, multiplicity = 1:

       Center              X                  Y                   Z               Mass       
    ------------   -----------------  -----------------  -----------------  -----------------
      Gh(CL)         -1.218607133318    -0.900176101481     1.496834563974    34.968852682000
      Gh(CL)         -0.896843133318     1.307382598519    -0.345815836026    34.968852682000
      Gh(CL)         -0.152221133318    -1.360148101481    -1.152740836026    34.968852682000
      Gh(CL)          1.428306566682     0.045398298519     0.808711363974    34.968852682000
      Gh(C)          -0.212136533318    -0.227780301481     0.205697163974    12.000000000000
         O            1.784161566682     1.948006398519    -1.653065836026    15.994914619570
         H            1.364473866682     1.087551398519    -1.655974436026     1.007825032230
         H            1.969191766682     2.197657498519    -2.558256536026     1.007825032230

  Running in c1 symmetry.

  Rotational constants: A =      0.05776  B =      0.03447  C =      0.03445 [cm^-1]
  Rotational constants: A =   1731.74219  B =   1033.42124  C =   1032.64037 [MHz]
  Nuclear repulsion =    9.186148249468390

  Charge       = 0
  Multiplicity = 1
  Electrons    = 10
  Nalpha       = 5
  Nbeta        = 5

  ==> Algorithm <==

  SCF Algorithm Type is DF.
  DIIS enabled.
  MOM disabled.
  Fractional occupation disabled.
  Guess Type is SAD.
  Energy threshold   = 1.00e-08
  Density threshold  = 1.00e-08
  Integral threshold = 0.00e+00

  ==> Primary Basis <==

  Basis Set: AUG-CC-PVTZ
    Blend: AUG-CC-PVTZ
    Number of shells: 110
    Number of basis function: 338
    Number of Cartesian functions: 396
    Spherical Harmonics?: true
    Max angular momentum: 3

   => Loading Basis Set <=

    Name: (AUG-CC-PVTZ AUX)
    Role: JKFIT
    Keyword: DF_BASIS_SCF
    atoms 1-4 entry CL         line   816 file /home/bdw2292/miniconda3/envs/amoebamdpoltype/share/psi4/basis/aug-cc-pvtz-jkfit.gbs 
    atoms 5   entry C          line   162 file /home/bdw2292/miniconda3/envs/amoebamdpoltype/share/psi4/basis/aug-cc-pvtz-jkfit.gbs 
    atoms 6   entry O          line   286 file /home/bdw2292/miniconda3/envs/amoebamdpoltype/share/psi4/basis/aug-cc-pvtz-jkfit.gbs 
    atoms 7-8 entry H          line    70 file /home/bdw2292/miniconda3/envs/amoebamdpoltype/share/psi4/basis/aug-cc-pvtz-jkfit.gbs 

  ==> Pre-Iterations <==

   -------------------------------------------------------
    Irrep   Nso     Nmo     Nalpha   Nbeta   Ndocc  Nsocc
   -------------------------------------------------------
     A        338     338       0       0       0       0
   -------------------------------------------------------
    Total     338     338       5       5       5       0
   -------------------------------------------------------

  ==> Integral Setup <==

  DFHelper Memory: AOs need 0.768 GiB; user supplied 10.477 GiB. Using in-core AOs.

  ==> MemDFJK: Density-Fitted J/K Matrices <==

    J tasked:                   Yes
    K tasked:                   Yes
    wK tasked:                   No
    OpenMP threads:               4
    Memory [MiB]:             10728
    Algorithm:                 Core
    Schwarz Cutoff:           1E-12
    Mask sparsity (%):       2.1865
    Fitting Condition:        1E-10

   => Auxiliary Basis Set <=

  Basis Set: (AUG-CC-PVTZ AUX)
    Blend: AUG-CC-PVTZ-JKFIT
    Number of shells: 256
    Number of basis function: 884
    Number of Cartesian functions: 1092
    Spherical Harmonics?: true
    Max angular momentum: 4

  Minimum eigenvalue in the overlap matrix is 6.0151175126E-05.
  Using Symmetric Orthogonalization.

  SCF Guess: Superposition of Atomic Densities via on-the-fly atomic UHF.

  ==> Iterations <==

                           Total Energy        Delta E     RMS |[F,P]|

   @DF-RHF iter SAD:   -75.47424566859428   -7.54742e+01   0.00000e+00 
   @DF-RHF iter   1:   -75.97665608511147   -5.02410e-01   1.38675e-03 DIIS
   @DF-RHF iter   2:   -76.02908916800261   -5.24331e-02   9.39482e-04 DIIS
   @DF-RHF iter   3:   -76.06009470343098   -3.10055e-02   6.37952e-05 DIIS
   @DF-RHF iter   4:   -76.06048411041336   -3.89407e-04   1.52289e-05 DIIS
   @DF-RHF iter   5:   -76.06050803224005   -2.39218e-05   3.42759e-06 DIIS
   @DF-RHF iter   6:   -76.06050998609378   -1.95385e-06   7.63531e-07 DIIS
   @DF-RHF iter   7:   -76.06051009408438   -1.07991e-07   1.44721e-07 DIIS
   @DF-RHF iter   8:   -76.06051009752733   -3.44295e-09   2.39670e-08 DIIS
   @DF-RHF iter   9:   -76.06051009760213   -7.48059e-11   5.95140e-09 DIIS
  Energy and wave function converged.


  ==> Post-Iterations <==

    Orbital Energies [Eh]
    ---------------------

    Doubly Occupied:                                                      

       1A    -20.565395     2A     -1.350812     3A     -0.725279  
       4A     -0.577265     5A     -0.509180  

    Virtual:                                                              

       6A      0.022307     7A      0.038833     8A      0.052860  
       9A      0.057676    10A      0.066726    11A      0.093022  
      12A      0.103800    13A      0.106132    14A      0.110028  
      15A      0.113141    16A      0.120552    17A      0.133380  
      18A      0.152551    19A      0.155907    20A      0.159696  
      21A      0.164549    22A      0.171995    23A      0.174778  
      24A      0.182478    25A      0.183304    26A      0.200792  
      27A      0.201711    28A      0.203982    29A      0.222270  
      30A      0.247257    31A      0.252942    32A      0.269132  
      33A      0.284394    34A      0.301340    35A      0.313572  
      36A      0.329530    37A      0.330969    38A      0.335298  
      39A      0.336730    40A      0.359506    41A      0.378389  
      42A      0.387508    43A      0.391111    44A      0.400415  
      45A      0.418890    46A      0.433172    47A      0.437659  
      48A      0.447605    49A      0.452019    50A      0.475036  
      51A      0.478368    52A      0.486993    53A      0.516476  
      54A      0.524726    55A      0.535649    56A      0.544407  
      57A      0.545152    58A      0.549242    59A      0.557070  
      60A      0.560221    61A      0.567256    62A      0.584616  
      63A      0.603753    64A      0.613899    65A      0.623913  
      66A      0.624958    67A      0.642373    68A      0.650931  
      69A      0.676547    70A      0.684742    71A      0.715484  
      72A      0.717136    73A      0.721766    74A      0.733853  
      75A      0.742646    76A      0.747822    77A      0.755635  
      78A      0.758168    79A      0.765071    80A      0.777607  
      81A      0.783642    82A      0.793435    83A      0.804653  
      84A      0.818665    85A      0.828671    86A      0.853821  
      87A      0.858980    88A      0.905513    89A      0.911600  
      90A      0.938959    91A      0.963354    92A      0.980170  
      93A      1.000233    94A      1.001639    95A      1.036288  
      96A      1.042352    97A      1.077952    98A      1.089966  
      99A      1.129079   100A      1.150588   101A      1.155185  
     102A      1.176911   103A      1.197731   104A      1.229239  
     105A      1.245249   106A      1.268003   107A      1.273974  
     108A      1.285508   109A      1.293764   110A      1.311374  
     111A      1.332405   112A      1.349680   113A      1.351556  
     114A      1.352836   115A      1.358196   116A      1.366803  
     117A      1.381252   118A      1.394624   119A      1.403485  
     120A      1.429889   121A      1.445484   122A      1.453378  
     123A      1.460718   124A      1.476938   125A      1.479092  
     126A      1.483686   127A      1.493831   128A      1.501427  
     129A      1.508118   130A      1.520565   131A      1.536968  
     132A      1.543137   133A      1.556330   134A      1.558961  
     135A      1.561870   136A      1.566082   137A      1.571289  
     138A      1.583749   139A      1.601916   140A      1.605863  
     141A      1.616118   142A      1.625027   143A      1.631133  
     144A      1.648128   145A      1.656445   146A      1.668403  
     147A      1.672364   148A      1.685352   149A      1.694361  
     150A      1.702049   151A      1.726208   152A      1.741326  
     153A      1.749869   154A      1.756698   155A      1.782883  
     156A      1.793028   157A      1.805274   158A      1.820242  
     159A      1.851860   160A      1.886257   161A      1.890951  
     162A      1.905265   163A      1.909324   164A      1.949108  
     165A      1.964372   166A      1.998748   167A      2.043140  
     168A      2.133534   169A      2.139160   170A      2.142216  
     171A      2.159038   172A      2.161049   173A      2.184895  
     174A      2.199472   175A      2.226334   176A      2.229554  
     177A      2.299847   178A      2.305330   179A      2.337150  
     180A      2.341642   181A      2.364994   182A      2.402508  
     183A      2.418363   184A      2.455287   185A      2.473743  
     186A      2.484207   187A      2.518254   188A      2.529920  
     189A      2.554462   190A      2.570786   191A      2.574796  
     192A      2.604734   193A      2.649431   194A      2.685551  
     195A      2.750132   196A      2.755940   197A      2.779182  
     198A      2.790483   199A      2.847194   200A      2.914727  
     201A      2.949662   202A      2.987843   203A      3.079638  
     204A      3.773315   205A      3.797429   206A      3.823163  
     207A      3.832061   208A      3.860063   209A      3.962276  
     210A      3.978710   211A      3.980263   212A      3.986317  
     213A      3.997089   214A      4.001723   215A      4.018446  
     216A      4.033919   217A      4.051251   218A      4.054579  
     219A      4.070549   220A      4.076089   221A      4.084231  
     222A      4.102494   223A      4.111502   224A      4.128266  
     225A      4.133916   226A      4.136980   227A      4.144039  
     228A      4.151881   229A      4.171775   230A      4.179814  
     231A      4.193854   232A      4.225279   233A      4.229547  
     234A      4.236125   235A      4.243816   236A      4.256370  
     237A      4.275434   238A      4.290008   239A      4.295815  
     240A      4.323273   241A      4.332743   242A      4.351868  
     243A      4.379088   244A      4.403478   245A      4.405938  
     246A      4.464792   247A      4.469267   248A      4.473106  
     249A      4.481546   250A      4.486092   251A      4.490308  
     252A      4.549591   253A      4.568612   254A      4.670513  
     255A      4.701936   256A      4.712069   257A      4.728755  
     258A      4.742552   259A      4.755315   260A      4.768862  
     261A      4.780116   262A      4.789503   263A      4.795738  
     264A      4.806825   265A      4.817034   266A      4.820962  
     267A      4.827465   268A      4.830356   269A      4.833420  
     270A      4.856229   271A      4.890510   272A      4.900251  
     273A      4.918728   274A      4.948090   275A      4.992225  
     276A      5.036675   277A      5.100484   278A      5.101647  
     279A      5.116074   280A      5.140163   281A      5.150046  
     282A      5.170849   283A      5.213175   284A      5.226888  
     285A      5.380317   286A      5.399880   287A      5.402419  
     288A      5.404321   289A      5.411726   290A      5.437115  
     291A      5.487618   292A      5.553285   293A      5.627403  
     294A      5.833483   295A      5.916589   296A      6.134246  
     297A      6.139969   298A      6.155192   299A      6.213494  
     300A      6.594577   301A      6.804874   302A      6.937647  
     303A      7.168147   304A      7.308229   305A      7.354874  
     306A      7.369457   307A      7.418965   308A      7.455016  
     309A      7.565868   310A      7.771192   311A      7.905406  
     312A      7.906611   313A      7.950540   314A      7.967074  
     315A      8.034441   316A      8.846870   317A     15.533301  
     318A     16.272797   319A     16.509813   320A     16.533444  
     321A     16.604183   322A     28.058013   323A     28.109393  
     324A     28.131497   325A     28.180054   326A     28.196180  
     327A     28.297919   328A     28.374994   329A     28.400810  
     330A     28.876112   331A     28.882699   332A     28.975023  
     333A     29.557711   334A     40.733781   335A    160.959446  
     336A    161.049711   337A    161.063231   338A    161.065639  

    Final Occupation by Irrep:
              A 
    DOCC [     5 ]

  @DF-RHF Final Energy:   -76.06051009760213

   => Energetics <=

    Nuclear Repulsion Energy =              9.1861482494683901
    One-Electron Energy =                -123.0374514024887560
    Two-Electron Energy =                  37.7907930554182343
    Total Energy =                        -76.0605100976021333

Computation Completed


Properties will be evaluated at   0.000000,  -0.000000,   0.000000 [a0]

Properties computed using the SCF density matrix

  Nuclear Dipole Moment: [e a0]
     X:    33.2723      Y:    35.6577      Z:   -32.9545

  Electronic Dipole Moment: [e a0]
     X:   -33.4303      Y:   -36.0694      Z:    32.3427

  Dipole Moment: [e a0]
     X:    -0.1580      Y:    -0.4117      Z:    -0.6118     Total:     0.7541

  Dipole Moment: [D]
     X:    -0.4016      Y:    -1.0464      Z:    -1.5550     Total:     1.9168


*** tstop() called on node37.bme.utexas.edu at Tue Feb 22 19:59:29 2022
Module time:
	user time   =      33.45 seconds =       0.56 minutes
	system time =       1.83 seconds =       0.03 minutes
	total time  =         15 seconds =       0.25 minutes
Total time:
	user time   =      50.77 seconds =       0.85 minutes
	system time =       2.89 seconds =       0.05 minutes
	total time  =         22 seconds =       0.37 minutes

*** tstart() called on node37.bme.utexas.edu
*** at Tue Feb 22 19:59:29 2022


  //>>>>>>>>>>>>>>>>>>>>>>>>>>>>>>>>>>>//
  //               DFMP2               //
  //<<<<<<<<<<<<<<<<<<<<<<<<<<<<<<<<<<<//

   => Loading Basis Set <=

    Name: (AUG-CC-PVTZ AUX)
    Role: RIFIT
    Keyword: DF_BASIS_MP2
    atoms 1-4 entry CL         line   742 file /home/bdw2292/miniconda3/envs/amoebamdpoltype/share/psi4/basis/aug-cc-pvtz-ri.gbs 
    atoms 5   entry C          line   148 file /home/bdw2292/miniconda3/envs/amoebamdpoltype/share/psi4/basis/aug-cc-pvtz-ri.gbs 
    atoms 6   entry O          line   264 file /home/bdw2292/miniconda3/envs/amoebamdpoltype/share/psi4/basis/aug-cc-pvtz-ri.gbs 
    atoms 7-8 entry H          line    30 file /home/bdw2292/miniconda3/envs/amoebamdpoltype/share/psi4/basis/aug-cc-pvtz-ri.gbs 

	 --------------------------------------------------------
	                          DF-MP2                         
	      2nd-Order Density-Fitted Moller-Plesset Theory     
	              RMP2 Wavefunction,   4 Threads             
	                                                         
	        Rob Parrish, Justin Turney, Andy Simmonett,      
	           Ed Hohenstein, and C. David Sherrill          
	 --------------------------------------------------------

   => Auxiliary Basis Set <=

  Basis Set: (AUG-CC-PVTZ AUX)
    Blend: AUG-CC-PVTZ-RI
    Number of shells: 232
    Number of basis function: 892
    Number of Cartesian functions: 1146
    Spherical Harmonics?: true
    Max angular momentum: 4

	 --------------------------------------------------------
	                 NBF =   338, NAUX =   892
	 --------------------------------------------------------
	   CLASS    FOCC     OCC    AOCC    AVIR     VIR    FVIR
	   PAIRS       1       5       4     333     333       0
	 --------------------------------------------------------

	-----------------------------------------------------------
	 ==================> DF-MP2 Energies <==================== 
	-----------------------------------------------------------
	 Reference Energy          =     -76.0605100976021333 [Eh]
	 Singles Energy            =      -0.0000000000000000 [Eh]
	 Same-Spin Energy          =      -0.0651107396906909 [Eh]
	 Opposite-Spin Energy      =      -0.2031888071963349 [Eh]
	 Correlation Energy        =      -0.2682995468870258 [Eh]
	 Total Energy              =     -76.3288096444891551 [Eh]
	-----------------------------------------------------------
	 ================> DF-SCS-MP2 Energies <================== 
	-----------------------------------------------------------
	 SCS Same-Spin Scale       =       0.3333333333333333 [-]
	 SCS Opposite-Spin Scale   =       1.2000000000000000 [-]
	 SCS Same-Spin Energy      =      -0.0217035798968970 [Eh]
	 SCS Opposite-Spin Energy  =      -0.2438265686356019 [Eh]
	 SCS Correlation Energy    =      -0.2655301485324989 [Eh]
	 SCS Total Energy          =     -76.3260402461346388 [Eh]
	-----------------------------------------------------------


*** tstop() called on node37.bme.utexas.edu at Tue Feb 22 19:59:34 2022
Module time:
	user time   =      13.57 seconds =       0.23 minutes
	system time =       0.67 seconds =       0.01 minutes
	total time  =          5 seconds =       0.08 minutes
Total time:
	user time   =      64.34 seconds =       1.07 minutes
	system time =       3.56 seconds =       0.06 minutes
	total time  =         27 seconds =       0.45 minutes

  //>>>>>>>>>>>>>>>>>>>>>>>>>>>>>>>>>>>>//
  // CBS Computation: MP2 / AUG-CC-PVQZ //
  //<<<<<<<<<<<<<<<<<<<<<<<<<<<<<<<<<<<<//

    SCF Algorithm Type (re)set to DF.

*** tstart() called on node37.bme.utexas.edu
*** at Tue Feb 22 19:59:34 2022

   => Loading Basis Set <=

    Name: AUG-CC-PVQZ
    Role: ORBITAL
    Keyword: BASIS
    atoms 1-4 entry CL         line  1218 file /home/bdw2292/miniconda3/envs/amoebamdpoltype/share/psi4/basis/aug-cc-pvqz.gbs 
    atoms 5   entry C          line   299 file /home/bdw2292/miniconda3/envs/amoebamdpoltype/share/psi4/basis/aug-cc-pvqz.gbs 
    atoms 6   entry O          line   419 file /home/bdw2292/miniconda3/envs/amoebamdpoltype/share/psi4/basis/aug-cc-pvqz.gbs 
    atoms 7-8 entry H          line    36 file /home/bdw2292/miniconda3/envs/amoebamdpoltype/share/psi4/basis/aug-cc-pvqz.gbs 


         ---------------------------------------------------------
                                   SCF
               by Justin Turney, Rob Parrish, Andy Simmonett
                          and Daniel G. A. Smith
                              RHF Reference
                        4 Threads,  14305 MiB Core
         ---------------------------------------------------------

  ==> Geometry <==

    Molecular point group: c1
    Full point group: C1

    Geometry (in Angstrom), charge = 0, multiplicity = 1:

       Center              X                  Y                   Z               Mass       
    ------------   -----------------  -----------------  -----------------  -----------------
      Gh(CL)         -1.218607133318    -0.900176101481     1.496834563974    34.968852682000
      Gh(CL)         -0.896843133318     1.307382598519    -0.345815836026    34.968852682000
      Gh(CL)         -0.152221133318    -1.360148101481    -1.152740836026    34.968852682000
      Gh(CL)          1.428306566682     0.045398298519     0.808711363974    34.968852682000
      Gh(C)          -0.212136533318    -0.227780301481     0.205697163974    12.000000000000
         O            1.784161566682     1.948006398519    -1.653065836026    15.994914619570
         H            1.364473866682     1.087551398519    -1.655974436026     1.007825032230
         H            1.969191766682     2.197657498519    -2.558256536026     1.007825032230

  Running in c1 symmetry.

  Rotational constants: A =      0.05776  B =      0.03447  C =      0.03445 [cm^-1]
  Rotational constants: A =   1731.74219  B =   1033.42124  C =   1032.64037 [MHz]
  Nuclear repulsion =    9.186148249468390

  Charge       = 0
  Multiplicity = 1
  Electrons    = 10
  Nalpha       = 5
  Nbeta        = 5

  ==> Algorithm <==

  SCF Algorithm Type is DF.
  DIIS enabled.
  MOM disabled.
  Fractional occupation disabled.
  Guess Type is SAD.
  Energy threshold   = 1.00e-08
  Density threshold  = 1.00e-08
  Integral threshold = 0.00e+00

  ==> Primary Basis <==

  Basis Set: AUG-CC-PVQZ
    Blend: AUG-CC-PVQZ
    Number of shells: 156
    Number of basis function: 588
    Number of Cartesian functions: 756
    Spherical Harmonics?: true
    Max angular momentum: 4

   => Loading Basis Set <=

    Name: (AUG-CC-PVQZ AUX)
    Role: JKFIT
    Keyword: DF_BASIS_SCF
    atoms 1-4 entry CL         line   904 file /home/bdw2292/miniconda3/envs/amoebamdpoltype/share/psi4/basis/aug-cc-pvqz-jkfit.gbs 
    atoms 5   entry C          line   178 file /home/bdw2292/miniconda3/envs/amoebamdpoltype/share/psi4/basis/aug-cc-pvqz-jkfit.gbs 
    atoms 6   entry O          line   318 file /home/bdw2292/miniconda3/envs/amoebamdpoltype/share/psi4/basis/aug-cc-pvqz-jkfit.gbs 
    atoms 7-8 entry H          line    70 file /home/bdw2292/miniconda3/envs/amoebamdpoltype/share/psi4/basis/aug-cc-pvqz-jkfit.gbs 

  ==> Pre-Iterations <==

   -------------------------------------------------------
    Irrep   Nso     Nmo     Nalpha   Nbeta   Ndocc  Nsocc
   -------------------------------------------------------
     A        588     588       0       0       0       0
   -------------------------------------------------------
    Total     588     588       5       5       5       0
   -------------------------------------------------------

  ==> Integral Setup <==

  DFHelper Memory: AOs need 2.977 GiB; user supplied 10.477 GiB. Using in-core AOs.

  ==> MemDFJK: Density-Fitted J/K Matrices <==

    J tasked:                   Yes
    K tasked:                   Yes
    wK tasked:                   No
    OpenMP threads:               4
    Memory [MiB]:             10728
    Algorithm:                 Disk
    Schwarz Cutoff:           1E-12
    Mask sparsity (%):       4.8805
    Fitting Condition:        1E-10

   => Auxiliary Basis Set <=

  Basis Set: (AUG-CC-PVQZ AUX)
    Blend: AUG-CC-PVQZ-JKFIT
    Number of shells: 288
    Number of basis function: 1172
    Number of Cartesian functions: 1586
    Spherical Harmonics?: true
    Max angular momentum: 5

  Minimum eigenvalue in the overlap matrix is 1.0261095451E-05.
  Using Symmetric Orthogonalization.

  SCF Guess: Superposition of Atomic Densities via on-the-fly atomic UHF.

  ==> Iterations <==

                           Total Energy        Delta E     RMS |[F,P]|

   @DF-RHF iter SAD:   -75.47940259021755   -7.54794e+01   0.00000e+00 
   @DF-RHF iter   1:   -75.98172278775412   -5.02320e-01   7.98787e-04 DIIS
   @DF-RHF iter   2:   -76.03425475789106   -5.25320e-02   5.42375e-04 DIIS
   @DF-RHF iter   3:   -76.06545286206848   -3.11981e-02   3.69351e-05 DIIS
   @DF-RHF iter   4:   -76.06584425546021   -3.91393e-04   9.01764e-06 DIIS
   @DF-RHF iter   5:   -76.06586904375683   -2.47883e-05   2.02225e-06 DIIS
   @DF-RHF iter   6:   -76.06587107716197   -2.03341e-06   4.62196e-07 DIIS
   @DF-RHF iter   7:   -76.06587119603216   -1.18870e-07   9.03336e-08 DIIS
   @DF-RHF iter   8:   -76.06587120007313   -4.04097e-09   1.44539e-08 DIIS
   @DF-RHF iter   9:   -76.06587120015736   -8.42277e-11   3.49618e-09 DIIS
  Energy and wave function converged.


  ==> Post-Iterations <==

    Orbital Energies [Eh]
    ---------------------

    Doubly Occupied:                                                      

       1A    -20.562945     2A     -1.350098     3A     -0.725255  
       4A     -0.577335     5A     -0.509314  

    Virtual:                                                              

       6A      0.019354     7A      0.034452     8A      0.045758  
       9A      0.049221    10A      0.058722    11A      0.081573  
      12A      0.087699    13A      0.089400    14A      0.092853  
      15A      0.094409    16A      0.102741    17A      0.113616  
      18A      0.128846    19A      0.132793    20A      0.136510  
      21A      0.139219    22A      0.145908    23A      0.148057  
      24A      0.152642    25A      0.156698    26A      0.171390  
      27A      0.172666    28A      0.175002    29A      0.188459  
      30A      0.213040    31A      0.217951    32A      0.225748  
      33A      0.234705    34A      0.243521    35A      0.253295  
      36A      0.257467    37A      0.261313    38A      0.267744  
      39A      0.268723    40A      0.282063    41A      0.305052  
      42A      0.315495    43A      0.318801    44A      0.324555  
      45A      0.327979    46A      0.331802    47A      0.341284  
      48A      0.346180    49A      0.366465    50A      0.367171  
      51A      0.374010    52A      0.382769    53A      0.389150  
      54A      0.409782    55A      0.413800    56A      0.422338  
      57A      0.424973    58A      0.431942    59A      0.432916  
      60A      0.440507    61A      0.444269    62A      0.451249  
      63A      0.456053    64A      0.469835    65A      0.473453  
      66A      0.485709    67A      0.486991    68A      0.493514  
      69A      0.525855    70A      0.527469    71A      0.535821  
      72A      0.537773    73A      0.543145    74A      0.547059  
      75A      0.549622    76A      0.561677    77A      0.566630  
      78A      0.578078    79A      0.585225    80A      0.585987  
      81A      0.599093    82A      0.600548    83A      0.621674  
      84A      0.633346    85A      0.644358    86A      0.668188  
      87A      0.671244    88A      0.689730    89A      0.702089  
      90A      0.721292    91A      0.726000    92A      0.739724  
      93A      0.754816    94A      0.776885    95A      0.797394  
      96A      0.806474    97A      0.812638    98A      0.831929  
      99A      0.842340   100A      0.848956   101A      0.861212  
     102A      0.878135   103A      0.881570   104A      0.895968  
     105A      0.909393   106A      0.919372   107A      0.927174  
     108A      0.938344   109A      0.941776   110A      0.945052  
     111A      0.958531   112A      0.965708   113A      0.976840  
     114A      0.986683   115A      0.991724   116A      0.994670  
     117A      1.002926   118A      1.008578   119A      1.016342  
     120A      1.018655   121A      1.027755   122A      1.036076  
     123A      1.044823   124A      1.048976   125A      1.055204  
     126A      1.056202   127A      1.061439   128A      1.066325  
     129A      1.070763   130A      1.082069   131A      1.095889  
     132A      1.100478   133A      1.105539   134A      1.133960  
     135A      1.137491   136A      1.138477   137A      1.147647  
     138A      1.156289   139A      1.171630   140A      1.179266  
     141A      1.182581   142A      1.197354   143A      1.205025  
     144A      1.209319   145A      1.211169   146A      1.214172  
     147A      1.231803   148A      1.245070   149A      1.254772  
     150A      1.258535   151A      1.265085   152A      1.278933  
     153A      1.287274   154A      1.308293   155A      1.313546  
     156A      1.321894   157A      1.328364   158A      1.350413  
     159A      1.369952   160A      1.391339   161A      1.408987  
     162A      1.432491   163A      1.446389   164A      1.459706  
     165A      1.470828   166A      1.496605   167A      1.552345  
     168A      1.576228   169A      1.594100   170A      1.598523  
     171A      1.615722   172A      1.625654   173A      1.638512  
     174A      1.643172   175A      1.650863   176A      1.660132  
     177A      1.661301   178A      1.668052   179A      1.671399  
     180A      1.678592   181A      1.684701   182A      1.699371  
     183A      1.704728   184A      1.721189   185A      1.723627  
     186A      1.730730   187A      1.744301   188A      1.796896  
     189A      1.803547   190A      1.820568   191A      1.831433  
     192A      1.847840   193A      1.851209   194A      1.859390  
     195A      1.867425   196A      1.872148   197A      1.886282  
     198A      1.904775   199A      1.918475   200A      1.930402  
     201A      1.947242   202A      1.954484   203A      1.961825  
     204A      1.966303   205A      1.984879   206A      1.986279  
     207A      2.009132   208A      2.010217   209A      2.025143  
     210A      2.027728   211A      2.056497   212A      2.073575  
     213A      2.088176   214A      2.103716   215A      2.107171  
     216A      2.146176   217A      2.178095   218A      2.193617  
     219A      2.197032   220A      2.213360   221A      2.241826  
     222A      2.247454   223A      2.258434   224A      2.262777  
     225A      2.268712   226A      2.278140   227A      2.284459  
     228A      2.317180   229A      2.322939   230A      2.337810  
     231A      2.343995   232A      2.377173   233A      2.380848  
     234A      2.389466   235A      2.407207   236A      2.419913  
     237A      2.436736   238A      2.439448   239A      2.445792  
     240A      2.449382   241A      2.465127   242A      2.479420  
     243A      2.489742   244A      2.497551   245A      2.508184  
     246A      2.512849   247A      2.525059   248A      2.526634  
     249A      2.533661   250A      2.547627   251A      2.561766  
     252A      2.563298   253A      2.575486   254A      2.579226  
     255A      2.590417   256A      2.593592   257A      2.607595  
     258A      2.611484   259A      2.623814   260A      2.630029  
     261A      2.643323   262A      2.649030   263A      2.653709  
     264A      2.662397   265A      2.673011   266A      2.674131  
     267A      2.683963   268A      2.713393   269A      2.726265  
     270A      2.736848   271A      2.745997   272A      2.749424  
     273A      2.774892   274A      2.785346   275A      2.796193  
     276A      2.812933   277A      2.816342   278A      2.834539  
     279A      2.840652   280A      2.855227   281A      2.870814  
     282A      2.893332   283A      2.901999   284A      2.937311  
     285A      2.942543   286A      2.979365   287A      3.003590  
     288A      3.010891   289A      3.018269   290A      3.028992  
     291A      3.046813   292A      3.051483   293A      3.069798  
     294A      3.126832   295A      3.135704   296A      3.154315  
     297A      3.157302   298A      3.170149   299A      3.177862  
     300A      3.202457   301A      3.211349   302A      3.223483  
     303A      3.234722   304A      3.245999   305A      3.255749  
     306A      3.261813   307A      3.290151   308A      3.309368  
     309A      3.334140   310A      3.340721   311A      3.388591  
     312A      3.393286   313A      3.412217   314A      3.423438  
     315A      3.447954   316A      3.505402   317A      3.510758  
     318A      3.530669   319A      3.553135   320A      3.562033  
     321A      3.574603   322A      3.599312   323A      3.609563  
     324A      3.612849   325A      3.640180   326A      3.641359  
     327A      3.649346   328A      3.703662   329A      3.746003  
     330A      3.767994   331A      3.778487   332A      3.785609  
     333A      3.805199   334A      3.819070   335A      3.872110  
     336A      3.878959   337A      3.891098   338A      3.895832  
     339A      3.914427   340A      3.925737   341A      3.929926  
     342A      3.960503   343A      3.974233   344A      4.068608  
     345A      4.103776   346A      4.135600   347A      4.144883  
     348A      4.160099   349A      4.169338   350A      4.202985  
     351A      4.218463   352A      4.240491   353A      4.249189  
     354A      4.255586   355A      4.276067   356A      4.287015  
     357A      4.312483   358A      4.346292   359A      4.427277  
     360A      4.438538   361A      4.454098   362A      4.477414  
     363A      4.535944   364A      4.622283   365A      4.682094  
     366A      4.717552   367A      4.818242   368A      4.838456  
     369A      4.864983   370A      4.877670   371A      4.900441  
     372A      4.917494   373A      4.957830   374A      4.980544  
     375A      5.026300   376A      5.131061   377A      5.168869  
     378A      5.445489   379A      5.455380   380A      5.460050  
     381A      5.472140   382A      5.514447   383A      5.519792  
     384A      5.536805   385A      5.541781   386A      5.560253  
     387A      5.591029   388A      5.620705   389A      5.631092  
     390A      5.641774   391A      5.660961   392A      5.664899  
     393A      5.669896   394A      5.685061   395A      5.692801  
     396A      5.709078   397A      5.736600   398A      5.746770  
     399A      5.769604   400A      5.777137   401A      5.785442  
     402A      5.797585   403A      5.815411   404A      5.850330  
     405A      5.862070   406A      5.894080   407A      5.898826  
     408A      5.928412   409A      5.935574   410A      5.985247  
     411A      5.999153   412A      6.019346   413A      6.084918  
     414A      6.123543   415A      6.132695   416A      6.137121  
     417A      6.158821   418A      6.177366   419A      6.198213  
     420A      6.222733   421A      6.325905   422A      6.346485  
     423A      6.355555   424A      6.366379   425A      6.400305  
     426A      6.413444   427A      6.417392   428A      6.420358  
     429A      6.441084   430A      6.443514   431A      6.456853  
     432A      6.487210   433A      6.491025   434A      6.499354  
     435A      6.499661   436A      6.531432   437A      6.539163  
     438A      6.586386   439A      6.595723   440A      6.612785  
     441A      6.614954   442A      6.631339   443A      6.650055  
     444A      6.664223   445A      6.672438   446A      6.679954  
     447A      6.730325   448A      6.764988   449A      6.772149  
     450A      6.905188   451A      6.996471   452A      7.023465  
     453A      7.122702   454A      7.356788   455A      7.395566  
     456A      7.401154   457A      7.424242   458A      7.427967  
     459A      7.502534   460A      7.520214   461A      7.543138  
     462A      7.552738   463A      7.724052   464A      7.741133  
     465A      7.745191   466A      7.771972   467A      7.796571  
     468A      7.815715   469A      7.844607   470A      7.871017  
     471A      7.886468   472A      7.891575   473A      7.914540  
     474A      7.933424   475A      7.961468   476A      7.998209  
     477A      8.003874   478A      8.033560   479A      8.041603  
     480A      8.080028   481A      8.091879   482A      8.092831  
     483A      8.101118   484A      8.116688   485A      8.135299  
     486A      8.163984   487A      8.171286   488A      8.184167  
     489A      8.219124   490A      8.256503   491A      8.267098  
     492A      8.293452   493A      8.298423   494A      8.370822  
     495A      8.413604   496A      8.431594   497A      8.442558  
     498A      8.476311   499A      8.486678   500A      8.574012  
     501A      8.641923   502A      8.654337   503A      8.675354  
     504A      8.680185   505A      8.740879   506A      8.755261  
     507A      8.839039   508A      8.841886   509A      8.855335  
     510A      8.884594   511A      8.913738   512A      8.977711  
     513A      9.045233   514A      9.058440   515A      9.164482  
     516A      9.240221   517A      9.269520   518A      9.271237  
     519A      9.293593   520A      9.297862   521A      9.305279  
     522A      9.313152   523A      9.330573   524A      9.345230  
     525A      9.427575   526A      9.629197   527A      9.943526  
     528A     10.060283   529A     10.080377   530A     10.127899  
     531A     10.146267   532A     10.532451   533A     10.559111  
     534A     10.794537   535A     10.801425   536A     10.851273  
     537A     10.898040   538A     11.072659   539A     11.118290  
     540A     11.270901   541A     11.363523   542A     11.414006  
     543A     11.508207   544A     11.766634   545A     11.897670  
     546A     11.942951   547A     12.081383   548A     12.259850  
     549A     12.341812   550A     12.656900   551A     12.810391  
     552A     12.922236   553A     12.937946   554A     13.019901  
     555A     13.262724   556A     13.424535   557A     13.427628  
     558A     13.717622   559A     14.027983   560A     14.206779  
     561A     14.504471   562A     14.863063   563A     14.910293  
     564A     15.359423   565A     17.093249   566A     17.378498  
     567A     31.099760   568A     31.104467   569A     31.114263  
     570A     31.129302   571A     31.140431   572A     31.143639  
     573A     31.187614   574A     31.194551   575A     31.301468  
     576A     31.311029   577A     31.311687   578A     31.384663  
     579A     42.782791   580A     43.725347   581A     43.787662  
     582A     43.913192   583A     45.777877   584A     68.541227  
     585A    160.364816   586A    160.463487   587A    160.481942  
     588A    160.492431  

    Final Occupation by Irrep:
              A 
    DOCC [     5 ]

  @DF-RHF Final Energy:   -76.06587120015736

   => Energetics <=

    Nuclear Repulsion Energy =              9.1861482494683901
    One-Electron Energy =                -123.0541429991047266
    Two-Electron Energy =                  37.8021235494789778
    Total Energy =                        -76.0658712001573605

Computation Completed


Properties will be evaluated at   0.000000,  -0.000000,   0.000000 [a0]

Properties computed using the SCF density matrix

  Nuclear Dipole Moment: [e a0]
     X:    33.2723      Y:    35.6577      Z:   -32.9545

  Electronic Dipole Moment: [e a0]
     X:   -33.4302      Y:   -36.0687      Z:    32.3434

  Dipole Moment: [e a0]
     X:    -0.1579      Y:    -0.4110      Z:    -0.6110     Total:     0.7531

  Dipole Moment: [D]
     X:    -0.4013      Y:    -1.0446      Z:    -1.5531     Total:     1.9143


*** tstop() called on node37.bme.utexas.edu at Tue Feb 22 20:00:46 2022
Module time:
	user time   =     169.85 seconds =       2.83 minutes
	system time =      32.78 seconds =       0.55 minutes
	total time  =         72 seconds =       1.20 minutes
Total time:
	user time   =     234.24 seconds =       3.90 minutes
	system time =      36.34 seconds =       0.61 minutes
	total time  =         99 seconds =       1.65 minutes

*** tstart() called on node37.bme.utexas.edu
*** at Tue Feb 22 20:00:46 2022


  //>>>>>>>>>>>>>>>>>>>>>>>>>>>>>>>>>>>//
  //               DFMP2               //
  //<<<<<<<<<<<<<<<<<<<<<<<<<<<<<<<<<<<//

   => Loading Basis Set <=

    Name: (AUG-CC-PVQZ AUX)
    Role: RIFIT
    Keyword: DF_BASIS_MP2
    atoms 1-4 entry CL         line   914 file /home/bdw2292/miniconda3/envs/amoebamdpoltype/share/psi4/basis/aug-cc-pvqz-ri.gbs 
    atoms 5   entry C          line   184 file /home/bdw2292/miniconda3/envs/amoebamdpoltype/share/psi4/basis/aug-cc-pvqz-ri.gbs 
    atoms 6   entry O          line   332 file /home/bdw2292/miniconda3/envs/amoebamdpoltype/share/psi4/basis/aug-cc-pvqz-ri.gbs 
    atoms 7-8 entry H          line    30 file /home/bdw2292/miniconda3/envs/amoebamdpoltype/share/psi4/basis/aug-cc-pvqz-ri.gbs 

	 --------------------------------------------------------
	                          DF-MP2                         
	      2nd-Order Density-Fitted Moller-Plesset Theory     
	              RMP2 Wavefunction,   4 Threads             
	                                                         
	        Rob Parrish, Justin Turney, Andy Simmonett,      
	           Ed Hohenstein, and C. David Sherrill          
	 --------------------------------------------------------

   => Auxiliary Basis Set <=

  Basis Set: (AUG-CC-PVQZ AUX)
    Blend: AUG-CC-PVQZ-RI
    Number of shells: 288
    Number of basis function: 1272
    Number of Cartesian functions: 1756
    Spherical Harmonics?: true
    Max angular momentum: 5

	 --------------------------------------------------------
	                 NBF =   588, NAUX =  1272
	 --------------------------------------------------------
	   CLASS    FOCC     OCC    AOCC    AVIR     VIR    FVIR
	   PAIRS       1       5       4     583     583       0
	 --------------------------------------------------------

	-----------------------------------------------------------
	 ==================> DF-MP2 Energies <==================== 
	-----------------------------------------------------------
	 Reference Energy          =     -76.0658712001573605 [Eh]
	 Singles Energy            =      -0.0000000000000000 [Eh]
	 Same-Spin Energy          =      -0.0671653958209542 [Eh]
	 Opposite-Spin Energy      =      -0.2186086877314586 [Eh]
	 Correlation Energy        =      -0.2857740835524127 [Eh]
	 Total Energy              =     -76.3516452837097717 [Eh]
	-----------------------------------------------------------
	 ================> DF-SCS-MP2 Energies <================== 
	-----------------------------------------------------------
	 SCS Same-Spin Scale       =       0.3333333333333333 [-]
	 SCS Opposite-Spin Scale   =       1.2000000000000000 [-]
	 SCS Same-Spin Energy      =      -0.0223884652736514 [Eh]
	 SCS Opposite-Spin Energy  =      -0.2623304252777503 [Eh]
	 SCS Correlation Energy    =      -0.2847188905514017 [Eh]
	 SCS Total Energy          =     -76.3505900907087636 [Eh]
	-----------------------------------------------------------


*** tstop() called on node37.bme.utexas.edu at Tue Feb 22 20:01:04 2022
Module time:
	user time   =      53.18 seconds =       0.89 minutes
	system time =       2.79 seconds =       0.05 minutes
	total time  =         18 seconds =       0.30 minutes
Total time:
	user time   =     287.42 seconds =       4.79 minutes
	system time =      39.13 seconds =       0.65 minutes
	total time  =        117 seconds =       1.95 minutes

  //>>>>>>>>>>>>>>>>>>>>>>>>>>>>>>>>>>>//
  //  CBS Results: mp2/aug-cc-pV[TQ]Z  //
  //<<<<<<<<<<<<<<<<<<<<<<<<<<<<<<<<<<<//


   ==> HF <==

   HI-zeta (4) Energy:               -76.065871200157


   ==> Helgaker 2-point correlated extrapolation for method: MP2 <==

   LO-zeta (3) Energy:               -76.328809644489
   HI-zeta (4) Energy:               -76.351645283710
   Alpha (exponent) Value:             3.000000000000
   Extrapolated Energy:              -76.368309128546

   @Extrapolated MP2/(T,Q):          -76.368309128546



   ==> Helgaker 2-point correlated extrapolation for method: HF <==

   LO-zeta (3) Energy:               -76.060510097602
   HI-zeta (4) Energy:               -76.065871200157
   Alpha (exponent) Value:             3.000000000000
   Extrapolated Energy:              -76.069783356076

   @Extrapolated HF/(T,Q):           -76.069783356076


   ==> Components <==

  ---------------------------------------------------------------------------------------------------------
                          Method / Basis                      Rqd      Energy [Eh]   Variable
  ---------------------------------------------------------------------------------------------------------
                              hf / aug-cc-pvtz                  *     -76.06051010   HF TOTAL ENERGY
                             mp2 / aug-cc-pvtz                  *     -76.32880964   MP2 TOTAL ENERGY
                              hf / aug-cc-pvqz                  *     -76.06587120   HF TOTAL ENERGY
                             mp2 / aug-cc-pvqz                  *     -76.35164528   MP2 TOTAL ENERGY
  ---------------------------------------------------------------------------------------------------------

   ==> Stages <==

  ---------------------------------------------------------------------------------------------------------
      Stage               Method / Basis                       Wt      Energy [Eh]   Scheme
  ---------------------------------------------------------------------------------------------------------
        scf                   hf / aug-cc-pvqz                  1     -76.06587120   xtpl_highest_1
       corl                  mp2 / aug-cc-pv[tq]z               1     -76.36830913   corl_xtpl_helgaker_2
       corl                   hf / aug-cc-pv[tq]z              -1     -76.06978336   corl_xtpl_helgaker_2
  ---------------------------------------------------------------------------------------------------------

   ==> CBS <==

  ---------------------------------------------------------------------------------------------------------
      Stage               Method / Basis                               Energy [Eh]   Scheme
  ---------------------------------------------------------------------------------------------------------
        scf                   hf / aug-cc-pvqz                        -76.06587120   xtpl_highest_1
[...]
     139A      0.764413   140A      0.772342   141A      0.774800  
     142A      0.781312   143A      0.793209   144A      0.805916  
     145A      0.808169   146A      0.811874   147A      0.823598  
     148A      0.840586   149A      0.861029   150A      0.862381  
     151A      0.875460   152A      0.882862   153A      0.884324  
     154A      0.891336   155A      0.905239   156A      0.922315  
     157A      0.936902   158A      0.953293   159A      0.960989  
     160A      0.966874   161A      0.980067   162A      1.005133  
     163A      1.008723   164A      1.021125   165A      1.051680  
     166A      1.065439   167A      1.069929   168A      1.090450  
     169A      1.094702   170A      1.096459   171A      1.105007  
     172A      1.116328   173A      1.118567   174A      1.128276  
     175A      1.137377   176A      1.142845   177A      1.145020  
     178A      1.156917   179A      1.166853   180A      1.173705  
     181A      1.177412   182A      1.181264   183A      1.187598  
     184A      1.198491   185A      1.204771   186A      1.206529  
     187A      1.216955   188A      1.225801   189A      1.232886  
     190A      1.243604   191A      1.257290   192A      1.258450  
     193A      1.278491   194A      1.284690   195A      1.287962  
     196A      1.298903   197A      1.315242   198A      1.319997  
     199A      1.329747   200A      1.353621   201A      1.355424  
     202A      1.384245   203A      1.401870   204A      1.417905  
     205A      1.423868   206A      1.454069   207A      1.463443  
     208A      1.467966   209A      1.470461   210A      1.535970  
     211A      1.560624   212A      1.579623   213A      1.610808  
     214A      1.615839   215A      1.623236   216A      1.642337  
     217A      1.649110   218A      1.662856   219A      1.683220  
     220A      1.706677   221A      1.719757   222A      1.727749  
     223A      1.738881   224A      1.744201   225A      1.750415  
     226A      1.757672   227A      1.764036   228A      1.778393  
     229A      1.784339   230A      1.798032   231A      1.799036  
     232A      1.817280   233A      1.822053   234A      1.830197  
     235A      1.834915   236A      1.839754   237A      1.847121  
     238A      1.856790   239A      1.865007   240A      1.873897  
     241A      1.882422   242A      1.899574   243A      1.906805  
     244A      1.910708   245A      1.927241   246A      1.932517  
     247A      1.940114   248A      1.965898   249A      1.977895  
     250A      1.982195   251A      1.994719   252A      1.998907  
     253A      2.018467   254A      2.019908   255A      2.030357  
     256A      2.035000   257A      2.047310   258A      2.062693  
     259A      2.071914   260A      2.087445   261A      2.090936  
     262A      2.097566   263A      2.099684   264A      2.112426  
     265A      2.115705   266A      2.119233   267A      2.127966  
     268A      2.134503   269A      2.136212   270A      2.155925  
     271A      2.168320   272A      2.179131   273A      2.189389  
     274A      2.197590   275A      2.200977   276A      2.215455  
     277A      2.218197   278A      2.225090   279A      2.228411  
     280A      2.229455   281A      2.243158   282A      2.248211  
     283A      2.255676   284A      2.260864   285A      2.263859  
     286A      2.268437   287A      2.284227   288A      2.307097  
     289A      2.317896   290A      2.324001   291A      2.336266  
     292A      2.346458   293A      2.361820   294A      2.363258  
     295A      2.373160   296A      2.397098   297A      2.410239  
     298A      2.420463   299A      2.423043   300A      2.447657  
     301A      2.450876   302A      2.460452   303A      2.470255  
     304A      2.478554   305A      2.489257   306A      2.493228  
     307A      2.502620   308A      2.506670   309A      2.513138  
     310A      2.529027   311A      2.552763   312A      2.563492  
     313A      2.568513   314A      2.591858   315A      2.611560  
     316A      2.631459   317A      2.638023   318A      2.655227  
     319A      2.655781   320A      2.676580   321A      2.683118  
     322A      2.691842   323A      2.720872   324A      2.752300  
     325A      2.788903   326A      2.797939   327A      2.830747  
     328A      2.840921   329A      2.850118   330A      2.871996  
     331A      2.881675   332A      2.899009   333A      2.926015  
     334A      2.936775   335A      2.945553   336A      2.981250  
     337A      2.993149   338A      2.996052   339A      3.014803  
     340A      3.027792   341A      3.067086   342A      3.094252  
     343A      3.123792   344A      3.156953   345A      3.208479  
     346A      3.220989   347A      3.236159   348A      3.239129  
     349A      3.251438   350A      3.263358   351A      3.285486  
     352A      3.296184   353A      3.339028   354A      3.383242  
     355A      3.417858   356A      3.436494   357A      3.440986  
     358A      3.443037   359A      3.446913   360A      3.481694  
     361A      3.485682   362A      3.517051   363A      3.546775  
     364A      3.553369   365A      3.579070   366A      3.595854  
     367A      3.617046   368A      3.637730   369A      3.656109  
     370A      3.671984   371A      3.738740   372A      3.751509  
     373A      3.779383   374A      3.799578   375A      3.874186  
     376A      3.921911   377A      4.020872   378A      4.031259  
     379A      4.042983   380A      4.084100   381A      4.116006  
     382A      4.200877   383A      4.210806   384A      4.227002  
     385A      4.262047   386A      4.278531   387A      4.312574  
     388A      4.368248   389A      4.411421   390A      4.421305  
     391A      4.464631   392A      4.479025   393A      4.490991  
     394A      4.508267   395A      4.531501   396A      4.544954  
     397A      4.571950   398A      4.597921   399A      4.617005  
     400A      4.627073   401A      4.655483   402A      4.659221  
     403A      4.692607   404A      4.699392   405A      4.707123  
     406A      4.720022   407A      4.722418   408A      4.729059  
     409A      4.738491   410A      4.742038   411A      4.744784  
     412A      4.752370   413A      4.755684   414A      4.764911  
     415A      4.767671   416A      4.772324   417A      4.783308  
     418A      4.786596   419A      4.790482   420A      4.807819  
     421A      4.809871   422A      4.818616   423A      4.823976  
     424A      4.829754   425A      4.846762   426A      4.848817  
     427A      4.851853   428A      4.864351   429A      4.873225  
     430A      4.877654   431A      4.883882   432A      4.893404  
     433A      4.898752   434A      4.900012   435A      4.907497  
     436A      4.916839   437A      4.921949   438A      4.939933  
     439A      4.950689   440A      4.956328   441A      4.962802  
     442A      4.963506   443A      4.968109   444A      4.972730  
     445A      4.978660   446A      4.992736   447A      4.999499  
     448A      5.012067   449A      5.018469   450A      5.035706  
     451A      5.052705   452A      5.055868   453A      5.086949  
     454A      5.088607   455A      5.110618   456A      5.111928  
     457A      5.125109   458A      5.136064   459A      5.145640  
     460A      5.155141   461A      5.194587   462A      5.208678  
     463A      5.233069   464A      5.254073   465A      5.267030  
     466A      5.282247   467A      5.316729   468A      5.323440  
     469A      5.357429   470A      5.375599   471A      5.383556  
     472A      5.386145   473A      5.400508   474A      5.431216  
     475A      5.436661   476A      5.467550   477A      5.482637  
     478A      5.531026   479A      5.574826   480A      5.601767  
     481A      5.607448   482A      5.649375   483A      5.679341  
     484A      5.690959   485A      5.750302   486A      5.838898  
     487A      5.955592   488A      6.077597   489A      6.202777  
     490A      6.464254   491A      6.687211   492A      6.688943  
     493A      6.703309   494A      6.705642   495A      6.709917  
     496A      6.733994   497A      6.760101   498A      6.776178  
     499A      6.791116   500A      6.851032   501A      6.852915  
     502A      6.874163   503A      6.893222   504A      6.905387  
     505A      6.955283   506A      6.983733   507A      7.016041  
     508A      7.031667   509A      7.120467   510A      7.124980  
     511A      7.138282   512A      7.213789   513A      7.218627  
     514A      7.306574   515A      7.309091   516A      7.322797  
     517A      7.366687   518A      7.389035   519A      7.391277  
     520A      7.570820   521A      7.748687   522A      7.751771  
     523A      7.768494   524A      7.828136   525A      7.832891  
     526A      7.838223   527A      7.858705   528A      7.883423  
     529A      7.893340   530A      7.927373   531A      7.976644  
     532A      8.032629   533A      8.097825   534A      8.168287  
     535A      8.246991   536A      8.524765   537A      8.526913  
     538A      8.536334   539A      8.593790   540A      8.716650  
     541A      8.733299   542A      8.810581   543A      8.852453  
     544A      8.877851   545A      8.972197   546A      9.033687  
     547A      9.046913   548A      9.173359   549A      9.239973  
     550A      9.625187   551A      9.942557   552A     10.065388  
     553A     10.082759   554A     10.134568   555A     10.535253  
     556A     10.560399   557A     10.898497   558A     11.075441  
     559A     11.119243   560A     11.267707   561A     11.367579  
     562A     11.417372   563A     11.511446   564A     11.769198  
     565A     11.899886   566A     11.944310   567A     12.083225  
     568A     12.263987   569A     12.344829   570A     12.670563  
     571A     12.813666   572A     12.926620   573A     12.945443  
     574A     13.268091   575A     14.028255   576A     14.209517  
     577A     14.508428   578A     14.867255   579A     14.913822  
     580A     15.363363   581A     17.096127   582A     17.381958  
     583A     24.982576   584A     26.894164   585A     26.944742  
     586A     27.076300   587A     27.231573   588A     45.775948  

    Final Occupation by Irrep:
              A 
    DOCC [    42 ]

  @DF-RHF Final Energy: -1951.99053695284420

   => Energetics <=

    Nuclear Repulsion Energy =            557.0343272542384057
    One-Electron Energy =               -3807.3772228939510569
    Two-Electron Energy =                1298.3523586868686834
    Total Energy =                      -1951.9905369528441952

Computation Completed


Properties will be evaluated at   0.000000,  -0.000000,   0.000000 [a0]

Properties computed using the SCF density matrix

  Nuclear Dipole Moment: [e a0]
     X:     3.9022      Y:     3.9199      Z:    -4.6974

  Electronic Dipole Moment: [e a0]
     X:    -4.0439      Y:    -4.2243      Z:     4.1839

  Dipole Moment: [e a0]
     X:    -0.1417      Y:    -0.3043      Z:    -0.5135     Total:     0.6135

  Dipole Moment: [D]
     X:    -0.3602      Y:    -0.7736      Z:    -1.3052     Total:     1.5594


*** tstop() called on node37.bme.utexas.edu at Tue Feb 22 20:06:18 2022
Module time:
	user time   =     237.94 seconds =       3.97 minutes
	system time =      44.94 seconds =       0.75 minutes
	total time  =        100 seconds =       1.67 minutes
Total time:
	user time   =    1103.70 seconds =      18.39 minutes
	system time =     142.86 seconds =       2.38 minutes
	total time  =        431 seconds =       7.18 minutes

*** tstart() called on node37.bme.utexas.edu
*** at Tue Feb 22 20:06:18 2022


  //>>>>>>>>>>>>>>>>>>>>>>>>>>>>>>>>>>>//
  //               DFMP2               //
  //<<<<<<<<<<<<<<<<<<<<<<<<<<<<<<<<<<<//

   => Loading Basis Set <=

    Name: (AUG-CC-PVQZ AUX)
    Role: RIFIT
    Keyword: DF_BASIS_MP2
    atoms 1-4 entry CL         line   914 file /home/bdw2292/miniconda3/envs/amoebamdpoltype/share/psi4/basis/aug-cc-pvqz-ri.gbs 
    atoms 5   entry C          line   184 file /home/bdw2292/miniconda3/envs/amoebamdpoltype/share/psi4/basis/aug-cc-pvqz-ri.gbs 
    atoms 6   entry O          line   332 file /home/bdw2292/miniconda3/envs/amoebamdpoltype/share/psi4/basis/aug-cc-pvqz-ri.gbs 
    atoms 7-8 entry H          line    30 file /home/bdw2292/miniconda3/envs/amoebamdpoltype/share/psi4/basis/aug-cc-pvqz-ri.gbs 

	 --------------------------------------------------------
	                          DF-MP2                         
	      2nd-Order Density-Fitted Moller-Plesset Theory     
	              RMP2 Wavefunction,   4 Threads             
	                                                         
	        Rob Parrish, Justin Turney, Andy Simmonett,      
	           Ed Hohenstein, and C. David Sherrill          
	 --------------------------------------------------------

   => Auxiliary Basis Set <=

  Basis Set: (AUG-CC-PVQZ AUX)
    Blend: AUG-CC-PVQZ-RI
    Number of shells: 288
    Number of basis function: 1272
    Number of Cartesian functions: 1756
    Spherical Harmonics?: true
    Max angular momentum: 5

	 --------------------------------------------------------
	                 NBF =   588, NAUX =  1272
	 --------------------------------------------------------
	   CLASS    FOCC     OCC    AOCC    AVIR     VIR    FVIR
	   PAIRS      22      42      20     546     546       0
	 --------------------------------------------------------

	-----------------------------------------------------------
	 ==================> DF-MP2 Energies <==================== 
	-----------------------------------------------------------
	 Reference Energy          =   -1951.9905369528441952 [Eh]
	 Singles Energy            =      -0.0000000000000000 [Eh]
	 Same-Spin Energy          =      -0.3251256880423989 [Eh]
	 Opposite-Spin Energy      =      -0.9943985763217087 [Eh]
	 Correlation Energy        =      -1.3195242643641076 [Eh]
	 Total Energy              =   -1953.3100612172083856 [Eh]
	-----------------------------------------------------------
	 ================> DF-SCS-MP2 Energies <================== 
	-----------------------------------------------------------
	 SCS Same-Spin Scale       =       0.3333333333333333 [-]
	 SCS Opposite-Spin Scale   =       1.2000000000000000 [-]
	 SCS Same-Spin Energy      =      -0.1083752293474663 [Eh]
	 SCS Opposite-Spin Energy  =      -1.1932782915860505 [Eh]
	 SCS Correlation Energy    =      -1.3016535209335167 [Eh]
	 SCS Total Energy          =   -1953.2921904737777368 [Eh]
	-----------------------------------------------------------


*** tstop() called on node37.bme.utexas.edu at Tue Feb 22 20:06:44 2022
Module time:
	user time   =      74.55 seconds =       1.24 minutes
	system time =       4.46 seconds =       0.07 minutes
	total time  =         26 seconds =       0.43 minutes
Total time:
	user time   =    1178.25 seconds =      19.64 minutes
	system time =     147.32 seconds =       2.46 minutes
	total time  =        457 seconds =       7.62 minutes

  //>>>>>>>>>>>>>>>>>>>>>>>>>>>>>>>>>>>//
  //  CBS Results: mp2/aug-cc-pV[TQ]Z  //
  //<<<<<<<<<<<<<<<<<<<<<<<<<<<<<<<<<<<//


   ==> HF <==

   HI-zeta (4) Energy:               -1951.990536952844


   ==> Helgaker 2-point correlated extrapolation for method: MP2 <==

   LO-zeta (3) Energy:               -1953.194540157262
   HI-zeta (4) Energy:               -1953.310061217208
   Alpha (exponent) Value:             3.000000000000
   Extrapolated Energy:              -1953.394360369062

   @Extrapolated MP2/(T,Q):          -1953.394360369062



   ==> Helgaker 2-point correlated extrapolation for method: HF <==

   LO-zeta (3) Energy:               -1951.967950377104
   HI-zeta (4) Energy:               -1951.990536952844
   Alpha (exponent) Value:             3.000000000000
   Extrapolated Energy:              -1952.007019048655

   @Extrapolated HF/(T,Q):           -1952.007019048655


   ==> Components <==

  ---------------------------------------------------------------------------------------------------------
                          Method / Basis                      Rqd      Energy [Eh]   Variable
  ---------------------------------------------------------------------------------------------------------
                              hf / aug-cc-pvtz                  *   -1951.96795038   HF TOTAL ENERGY
                             mp2 / aug-cc-pvtz                  *   -1953.19454016   MP2 TOTAL ENERGY
                              hf / aug-cc-pvqz                  *   -1951.99053695   HF TOTAL ENERGY
                             mp2 / aug-cc-pvqz                  *   -1953.31006122   MP2 TOTAL ENERGY
  ---------------------------------------------------------------------------------------------------------

   ==> Stages <==

  ---------------------------------------------------------------------------------------------------------
      Stage               Method / Basis                       Wt      Energy [Eh]   Scheme
  ---------------------------------------------------------------------------------------------------------
        scf                   hf / aug-cc-pvqz                  1   -1951.99053695   xtpl_highest_1
       corl                  mp2 / aug-cc-pv[tq]z               1   -1953.39436037   corl_xtpl_helgaker_2
       corl                   hf / aug-cc-pv[tq]z              -1   -1952.00701905   corl_xtpl_helgaker_2
  ---------------------------------------------------------------------------------------------------------

   ==> CBS <==

  ---------------------------------------------------------------------------------------------------------
      Stage               Method / Basis                               Energy [Eh]   Scheme
  ---------------------------------------------------------------------------------------------------------
        scf                   hf / aug-cc-pvqz                      -1951.99053695   xtpl_highest_1
       corl                  mp2 / aug-cc-pv[tq]z                      -1.38734132   corl_xtpl_helgaker_2
      total                  CBS                                    -1953.37787827   
  ---------------------------------------------------------------------------------------------------------
   => Loading Basis Set <=

    Name: DEF2-SVP
    Role: ORBITAL
    Keyword: BASIS
    atoms 1-4 entry CL         line   356 file /home/bdw2292/miniconda3/envs/amoebamdpoltype/share/psi4/basis/def2-svp.gbs 
    atoms 5   entry C          line    90 file /home/bdw2292/miniconda3/envs/amoebamdpoltype/share/psi4/basis/def2-svp.gbs 
    atoms 6   entry O          line   130 file /home/bdw2292/miniconda3/envs/amoebamdpoltype/share/psi4/basis/def2-svp.gbs 
    atoms 7-8 entry H          line    15 file /home/bdw2292/miniconda3/envs/amoebamdpoltype/share/psi4/basis/def2-svp.gbs 


       N-Body: Complex Energy (fragments = (1, 2), basis = (1, 2): -1953.37787827325087)

   ==> N-Body: Counterpoise Corrected (CP) energies <==

   n-Body     Total Energy [Eh]       I.E. [kcal/mol]      Delta [kcal/mol]
        1    -1953.379203346966        0.000000000000        0.000000000000
        2    -1953.377593338980        1.010295264119        1.010295264119

   => Loading Basis Set <=

    Name: DEF2-SVP
    Role: ORBITAL
    Keyword: BASIS
    atoms 1-4 entry CL         line   356 file /home/bdw2292/miniconda3/envs/amoebamdpoltype/share/psi4/basis/def2-svp.gbs 
    atoms 5   entry C          line    90 file /home/bdw2292/miniconda3/envs/amoebamdpoltype/share/psi4/basis/def2-svp.gbs 
    atoms 6   entry O          line   130 file /home/bdw2292/miniconda3/envs/amoebamdpoltype/share/psi4/basis/def2-svp.gbs 
    atoms 7-8 entry H          line    15 file /home/bdw2292/miniconda3/envs/amoebamdpoltype/share/psi4/basis/def2-svp.gbs 

CP Energy =   0.001610
    Psi4 stopped on: Tuesday, 22 February 2022 08:06PM
    Psi4 wall time for execution: 0:07:37.32

*** Psi4 exiting successfully. Buy a developer a beer!
