
    -----------------------------------------------------------------------
          Psi4: An Open-Source Ab Initio Electronic Structure Package
                               Psi4 1.3.2 release

                         Git: Rev {HEAD} ecbda83 


    R. M. Parrish, L. A. Burns, D. G. A. Smith, A. C. Simmonett,
    A. E. DePrince III, E. G. Hohenstein, U. Bozkaya, A. Yu. Sokolov,
    R. Di Remigio, R. M. Richard, J. F. Gonthier, A. M. James,
    H. R. McAlexander, A. Kumar, M. Saitow, X. Wang, B. P. Pritchard,
    P. Verma, H. F. Schaefer III, K. Patkowski, R. A. King, E. F. Valeev,
    F. A. Evangelista, J. M. Turney, T. D. Crawford, and C. D. Sherrill,
    J. Chem. Theory Comput. 13(7) pp 3185--3197 (2017).
    (doi: 10.1021/acs.jctc.7b00174)


                         Additional Contributions by
    P. Kraus, H. Kruse, M. H. Lechner, M. C. Schieber, R. A. Shaw,
    A. Alenaizan, R. Galvelis, Z. L. Glick, S. Lehtola, and J. P. Misiewicz

    -----------------------------------------------------------------------


    Psi4 started on: Tuesday, 22 February 2022 07:43PM

    Process ID: 44572
    Host:       node37.bme.utexas.edu
    PSIDATADIR: /home/bdw2292/miniconda3/envs/amoebamdpoltype/share/psi4
    Memory:     500.0 MiB
    Threads:    1
    
  ==> Input File <==

--------------------------------------------------------------------------
molecule { 
0 1
 Cl                 -0.9834540    -0.5863909     1.9222969
 Cl                 -1.0203298     1.3185487    -0.2497215
 Cl                 -0.3649296    -1.4476266    -0.7655753
 Cl                  1.4944115     0.2308771     0.6813521
  C                 -0.2163540    -0.1195090     0.3969557
--
0 1
  O                  1.8461706     0.9724409    -3.6010786
  H                  1.1315028     0.3391869    -3.5299659
  H                  1.7712248     1.4200979    -4.4436706
}
memory 15GB
set_num_threads(4)
psi4_io.set_default_path("/scratch/bdw2292/Psi4-CCl4")
set maxiter 500
set freeze_core True
set PROPERTIES_ORIGIN ["COM"]
e_dim= energy('mp2/aug-cc-pV[TQ]Z',bsse_type='cp')

psi4.print_out('CP Energy = %10.6f' % (e_dim))
clean()
--------------------------------------------------------------------------

  Memory set to  13.970 GiB by Python driver.
  Threads set to 4 by Python driver.


   ===> N-Body Interaction Abacus <===
        BSSE Treatment:                     cp
        Number of 1-body computations:     4
        Number of 2-body computations:     1

   ==> N-Body: Now computing 1-body complexes <==


       N-Body: Computing complex (1/4) with fragments (2,) in the basis of fragments (2,).


  //>>>>>>>>>>>>>>>>>>>>>>>>>>>>>>>>>>>//
  //   CBS Setup: mp2/aug-cc-pV[TQ]Z   //
  //<<<<<<<<<<<<<<<<<<<<<<<<<<<<<<<<<<<//

    Naive listing of computations required.
             hf / aug-cc-pvqz              for  HF TOTAL ENERGY
            mp2 / aug-cc-pvtz              for  MP2 TOTAL ENERGY
            mp2 / aug-cc-pvqz              for  MP2 TOTAL ENERGY
             hf / aug-cc-pvtz              for  HF TOTAL ENERGY
             hf / aug-cc-pvqz              for  HF TOTAL ENERGY

    Enlightened listing of computations required.
            mp2 / aug-cc-pvtz              for  MP2 TOTAL ENERGY
            mp2 / aug-cc-pvqz              for  MP2 TOTAL ENERGY

    Full listing of computations to be obtained (required and bonus).
             hf / aug-cc-pvtz              for  HF TOTAL ENERGY
            mp2 / aug-cc-pvtz              for  MP2 TOTAL ENERGY
             hf / aug-cc-pvqz              for  HF TOTAL ENERGY
            mp2 / aug-cc-pvqz              for  MP2 TOTAL ENERGY

  //>>>>>>>>>>>>>>>>>>>>>>>>>>>>>>>>>>>>//
  // CBS Computation: MP2 / AUG-CC-PVTZ //
  //<<<<<<<<<<<<<<<<<<<<<<<<<<<<<<<<<<<<//

    SCF Algorithm Type (re)set to DF.

*** tstart() called on node37.bme.utexas.edu
*** at Tue Feb 22 19:43:20 2022

   => Loading Basis Set <=

    Name: AUG-CC-PVTZ
    Role: ORBITAL
    Keyword: BASIS
    atoms 1   entry O          line   327 file /home/bdw2292/miniconda3/envs/amoebamdpoltype/share/psi4/basis/aug-cc-pvtz.gbs 
    atoms 2-3 entry H          line    36 file /home/bdw2292/miniconda3/envs/amoebamdpoltype/share/psi4/basis/aug-cc-pvtz.gbs 


         ---------------------------------------------------------
                                   SCF
               by Justin Turney, Rob Parrish, Andy Simmonett
                          and Daniel G. A. Smith
                              RHF Reference
                        4 Threads,  14305 MiB Core
         ---------------------------------------------------------

  ==> Geometry <==

    Molecular point group: c1
    Full point group: C1

    Geometry (in Angstrom), charge = 0, multiplicity = 1:

       Center              X                  Y                   Z               Mass       
    ------------   -----------------  -----------------  -----------------  -----------------
         O            1.850378126147     0.978636604721    -3.569712545762    15.994914619570
         H            1.135710326147     0.345382604721    -3.498599845762     1.007825032230
         H            1.775432326147     1.426293604721    -4.412304545762     1.007825032230

  Running in c1 symmetry.

  Rotational constants: A =     19.71836  B =      0.05405  C =      0.05398 [cm^-1]
  Rotational constants: A = 591141.54149  B =   1620.44292  C =   1618.32621 [MHz]
  Nuclear repulsion =    9.185324670362894

  Charge       = 0
  Multiplicity = 1
  Electrons    = 10
  Nalpha       = 5
  Nbeta        = 5

  ==> Algorithm <==

  SCF Algorithm Type is DF.
  DIIS enabled.
  MOM disabled.
  Fractional occupation disabled.
  Guess Type is SAD.
  Energy threshold   = 1.00e-08
  Density threshold  = 1.00e-08
  Integral threshold = 0.00e+00

  ==> Primary Basis <==

  Basis Set: AUG-CC-PVTZ
    Blend: AUG-CC-PVTZ
    Number of shells: 32
    Number of basis function: 92
    Number of Cartesian functions: 105
    Spherical Harmonics?: true
    Max angular momentum: 3

   => Loading Basis Set <=

    Name: (AUG-CC-PVTZ AUX)
    Role: JKFIT
    Keyword: DF_BASIS_SCF
    atoms 1   entry O          line   286 file /home/bdw2292/miniconda3/envs/amoebamdpoltype/share/psi4/basis/aug-cc-pvtz-jkfit.gbs 
    atoms 2-3 entry H          line    70 file /home/bdw2292/miniconda3/envs/amoebamdpoltype/share/psi4/basis/aug-cc-pvtz-jkfit.gbs 

  ==> Pre-Iterations <==

   -------------------------------------------------------
    Irrep   Nso     Nmo     Nalpha   Nbeta   Ndocc  Nsocc
   -------------------------------------------------------
     A         92      92       0       0       0       0
   -------------------------------------------------------
    Total      92      92       5       5       5       0
   -------------------------------------------------------

  ==> Integral Setup <==

  DFHelper Memory: AOs need 0.015 GiB; user supplied 10.477 GiB. Using in-core AOs.

  ==> MemDFJK: Density-Fitted J/K Matrices <==

    J tasked:                   Yes
    K tasked:                   Yes
    wK tasked:                   No
    OpenMP threads:               4
    Memory [MiB]:             10728
    Algorithm:                 Core
    Schwarz Cutoff:           1E-12
    Mask sparsity (%):       0.0000
    Fitting Condition:        1E-10

   => Auxiliary Basis Set <=

  Basis Set: (AUG-CC-PVTZ AUX)
    Blend: AUG-CC-PVTZ-JKFIT
    Number of shells: 58
    Number of basis function: 196
    Number of Cartesian functions: 241
    Spherical Harmonics?: true
    Max angular momentum: 4

  Minimum eigenvalue in the overlap matrix is 3.7704228126E-04.
  Using Symmetric Orthogonalization.

  SCF Guess: Superposition of Atomic Densities via on-the-fly atomic UHF.

  ==> Iterations <==

                           Total Energy        Delta E     RMS |[F,P]|

   @DF-RHF iter SAD:   -75.47414969220344   -7.54741e+01   0.00000e+00 
   @DF-RHF iter   1:   -75.97660607935680   -5.02456e-01   5.09429e-03 DIIS
   @DF-RHF iter   2:   -76.02902741667211   -5.24213e-02   3.45122e-03 DIIS
   @DF-RHF iter   3:   -76.06003431414679   -3.10069e-02   2.34361e-04 DIIS
   @DF-RHF iter   4:   -76.06042372845432   -3.89414e-04   5.59342e-05 DIIS
   @DF-RHF iter   5:   -76.06044763705755   -2.39086e-05   1.25883e-05 DIIS
   @DF-RHF iter   6:   -76.06044958908376   -1.95203e-06   2.80216e-06 DIIS
   @DF-RHF iter   7:   -76.06044969673029   -1.07647e-07   5.29965e-07 DIIS
   @DF-RHF iter   8:   -76.06044970014763   -3.41734e-09   8.78632e-08 DIIS
   @DF-RHF iter   9:   -76.06044970022151   -7.38822e-11   2.18273e-08 DIIS
   @DF-RHF iter  10:   -76.06044970022550   -3.99325e-12   2.97388e-09 DIIS
  Energy and wave function converged.


  ==> Post-Iterations <==

    Orbital Energies [Eh]
    ---------------------

    Doubly Occupied:                                                      

       1A    -20.565443     2A     -1.350805     3A     -0.725252  
       4A     -0.577292     5A     -0.509189  

    Virtual:                                                              

       6A      0.029676     7A      0.047443     8A      0.136486  
       9A      0.157846    10A      0.174267    11A      0.182027  
      12A      0.228874    13A      0.244462    14A      0.263836  
      15A      0.304771    16A      0.313257    17A      0.365229  
      18A      0.437996    19A      0.466834    20A      0.602274  
      21A      0.654249    22A      0.711167    23A      0.719262  
      24A      0.731233    25A      0.828058    26A      0.843769  
      27A      0.889955    28A      0.912937    29A      0.920649  
      30A      0.923938    31A      0.927928    32A      0.971414  
      33A      1.023092    34A      1.045408    35A      1.085206  
      36A      1.114234    37A      1.172759    38A      1.177401  
      39A      1.259528    40A      1.514582    41A      1.563771  
      42A      1.596170    43A      1.784903    44A      1.797016  
      45A      2.003921    46A      2.116092    47A      2.259652  
      48A      2.318725    49A      2.320894    50A      2.413268  
      51A      2.414498    52A      2.438478    53A      2.471354  
      54A      2.686827    55A      2.703217    56A      2.768301  
      57A      2.857683    58A      2.883951    59A      3.645532  
      60A      3.770323    61A      4.007426    62A      4.090522  
      63A      4.212315    64A      4.231424    65A      4.336462  
      66A      4.382067    67A      4.400894    68A      4.417015  
      69A      4.493231    70A      4.707759    71A      4.812737  
      72A      5.125156    73A      5.173530    74A      5.307252  
      75A      5.331228    76A      5.513982    77A      5.722633  
      78A      6.139746    79A      6.534561    80A      6.713412  
      81A      6.858713    82A      7.146590    83A      7.263122  
      84A      7.298486    85A      7.308246    86A      7.371236  
      87A      7.389583    88A      7.559604    89A      7.897908  
      90A      7.965277    91A      8.790180    92A     15.868581  

    Final Occupation by Irrep:
              A 
    DOCC [     5 ]

  @DF-RHF Final Energy:   -76.06044970022550

   => Energetics <=

    Nuclear Repulsion Energy =              9.1853246703628937
    One-Electron Energy =                -123.0355869679349752
    Two-Electron Energy =                  37.7898125973465824
    Total Energy =                        -76.0604497002255044

Computation Completed


Properties will be evaluated at   3.413211,   1.829729,  -6.827359 [a0]

Properties computed using the SCF density matrix

  Nuclear Dipole Moment: [e a0]
     X:    -0.6572      Y:    -0.1545      Z:    -0.6421

  Electronic Dipole Moment: [e a0]
     X:     0.1253      Y:     0.0295      Z:     0.1224

  Dipole Moment: [e a0]
     X:    -0.5319      Y:    -0.1250      Z:    -0.5197     Total:     0.7541

  Dipole Moment: [D]
     X:    -1.3519      Y:    -0.3177      Z:    -1.3210     Total:     1.9167


*** tstop() called on node37.bme.utexas.edu at Tue Feb 22 19:43:21 2022
Module time:
	user time   =       3.85 seconds =       0.06 minutes
	system time =       0.24 seconds =       0.00 minutes
	total time  =          1 seconds =       0.02 minutes
Total time:
	user time   =       3.85 seconds =       0.06 minutes
	system time =       0.24 seconds =       0.00 minutes
	total time  =          1 seconds =       0.02 minutes

*** tstart() called on node37.bme.utexas.edu
*** at Tue Feb 22 19:43:21 2022


  //>>>>>>>>>>>>>>>>>>>>>>>>>>>>>>>>>>>//
  //               DFMP2               //
  //<<<<<<<<<<<<<<<<<<<<<<<<<<<<<<<<<<<//

   => Loading Basis Set <=

    Name: (AUG-CC-PVTZ AUX)
    Role: RIFIT
    Keyword: DF_BASIS_MP2
    atoms 1   entry O          line   264 file /home/bdw2292/miniconda3/envs/amoebamdpoltype/share/psi4/basis/aug-cc-pvtz-ri.gbs 
    atoms 2-3 entry H          line    30 file /home/bdw2292/miniconda3/envs/amoebamdpoltype/share/psi4/basis/aug-cc-pvtz-ri.gbs 

	 --------------------------------------------------------
	                          DF-MP2                         
	      2nd-Order Density-Fitted Moller-Plesset Theory     
	              RMP2 Wavefunction,   4 Threads             
	                                                         
	        Rob Parrish, Justin Turney, Andy Simmonett,      
	           Ed Hohenstein, and C. David Sherrill          
	 --------------------------------------------------------

   => Auxiliary Basis Set <=

  Basis Set: (AUG-CC-PVTZ AUX)
    Blend: AUG-CC-PVTZ-RI
    Number of shells: 56
    Number of basis function: 198
    Number of Cartesian functions: 246
    Spherical Harmonics?: true
    Max angular momentum: 4

	 --------------------------------------------------------
	                 NBF =    92, NAUX =   198
	 --------------------------------------------------------
	   CLASS    FOCC     OCC    AOCC    AVIR     VIR    FVIR
	   PAIRS       1       5       4      87      87       0
	 --------------------------------------------------------

	-----------------------------------------------------------
	 ==================> DF-MP2 Energies <==================== 
	-----------------------------------------------------------
	 Reference Energy          =     -76.0604497002255044 [Eh]
	 Singles Energy            =      -0.0000000000000000 [Eh]
	 Same-Spin Energy          =      -0.0650895915580478 [Eh]
	 Opposite-Spin Energy      =      -0.2029598438319974 [Eh]
	 Correlation Energy        =      -0.2680494353900452 [Eh]
	 Total Energy              =     -76.3284991356155444 [Eh]
	-----------------------------------------------------------
	 ================> DF-SCS-MP2 Energies <================== 
	-----------------------------------------------------------
	 SCS Same-Spin Scale       =       0.3333333333333333 [-]
	 SCS Opposite-Spin Scale   =       1.2000000000000000 [-]
	 SCS Same-Spin Energy      =      -0.0216965305193493 [Eh]
	 SCS Opposite-Spin Energy  =      -0.2435518125983969 [Eh]
	 SCS Correlation Energy    =      -0.2652483431177461 [Eh]
	 SCS Total Energy          =     -76.3256980433432517 [Eh]
	-----------------------------------------------------------


*** tstop() called on node37.bme.utexas.edu at Tue Feb 22 19:43:22 2022
Module time:
	user time   =       1.48 seconds =       0.02 minutes
	system time =       0.11 seconds =       0.00 minutes
	total time  =          1 seconds =       0.02 minutes
Total time:
	user time   =       5.34 seconds =       0.09 minutes
	system time =       0.35 seconds =       0.01 minutes
	total time  =          2 seconds =       0.03 minutes

  //>>>>>>>>>>>>>>>>>>>>>>>>>>>>>>>>>>>>//
  // CBS Computation: MP2 / AUG-CC-PVQZ //
  //<<<<<<<<<<<<<<<<<<<<<<<<<<<<<<<<<<<<//

    SCF Algorithm Type (re)set to DF.

*** tstart() called on node37.bme.utexas.edu
*** at Tue Feb 22 19:43:22 2022

   => Loading Basis Set <=

    Name: AUG-CC-PVQZ
    Role: ORBITAL
    Keyword: BASIS
    atoms 1   entry O          line   419 file /home/bdw2292/miniconda3/envs/amoebamdpoltype/share/psi4/basis/aug-cc-pvqz.gbs 
    atoms 2-3 entry H          line    36 file /home/bdw2292/miniconda3/envs/amoebamdpoltype/share/psi4/basis/aug-cc-pvqz.gbs 


         ---------------------------------------------------------
                                   SCF
               by Justin Turney, Rob Parrish, Andy Simmonett
                          and Daniel G. A. Smith
                              RHF Reference
                        4 Threads,  14305 MiB Core
         ---------------------------------------------------------

  ==> Geometry <==

    Molecular point group: c1
    Full point group: C1

    Geometry (in Angstrom), charge = 0, multiplicity = 1:

       Center              X                  Y                   Z               Mass       
    ------------   -----------------  -----------------  -----------------  -----------------
         O            1.850378126147     0.978636604721    -3.569712545762    15.994914619570
         H            1.135710326147     0.345382604721    -3.498599845762     1.007825032230
         H            1.775432326147     1.426293604721    -4.412304545762     1.007825032230

  Running in c1 symmetry.

  Rotational constants: A =     19.71836  B =      0.05405  C =      0.05398 [cm^-1]
  Rotational constants: A = 591141.54149  B =   1620.44292  C =   1618.32621 [MHz]
  Nuclear repulsion =    9.185324670362894

  Charge       = 0
  Multiplicity = 1
  Electrons    = 10
  Nalpha       = 5
  Nbeta        = 5

  ==> Algorithm <==

  SCF Algorithm Type is DF.
  DIIS enabled.
  MOM disabled.
  Fractional occupation disabled.
  Guess Type is SAD.
  Energy threshold   = 1.00e-08
  Density threshold  = 1.00e-08
  Integral threshold = 0.00e+00

  ==> Primary Basis <==

  Basis Set: AUG-CC-PVQZ
    Blend: AUG-CC-PVQZ
    Number of shells: 48
    Number of basis function: 172
    Number of Cartesian functions: 215
    Spherical Harmonics?: true
    Max angular momentum: 4

   => Loading Basis Set <=

    Name: (AUG-CC-PVQZ AUX)
    Role: JKFIT
    Keyword: DF_BASIS_SCF
    atoms 1   entry O          line   318 file /home/bdw2292/miniconda3/envs/amoebamdpoltype/share/psi4/basis/aug-cc-pvqz-jkfit.gbs 
    atoms 2-3 entry H          line    70 file /home/bdw2292/miniconda3/envs/amoebamdpoltype/share/psi4/basis/aug-cc-pvqz-jkfit.gbs 

  ==> Pre-Iterations <==

   -------------------------------------------------------
    Irrep   Nso     Nmo     Nalpha   Nbeta   Ndocc  Nsocc
   -------------------------------------------------------
     A        172     172       0       0       0       0
   -------------------------------------------------------
    Total     172     172       5       5       5       0
   -------------------------------------------------------

  ==> Integral Setup <==

  DFHelper Memory: AOs need 0.074 GiB; user supplied 10.477 GiB. Using in-core AOs.

  ==> MemDFJK: Density-Fitted J/K Matrices <==

    J tasked:                   Yes
    K tasked:                   Yes
    wK tasked:                   No
    OpenMP threads:               4
    Memory [MiB]:             10728
    Algorithm:                 Core
    Schwarz Cutoff:           1E-12
    Mask sparsity (%):       0.0000
    Fitting Condition:        1E-10

   => Auxiliary Basis Set <=

  Basis Set: (AUG-CC-PVQZ AUX)
    Blend: AUG-CC-PVQZ-JKFIT
    Number of shells: 70
    Number of basis function: 294
    Number of Cartesian functions: 400
    Spherical Harmonics?: true
    Max angular momentum: 5

  Minimum eigenvalue in the overlap matrix is 8.5308079997E-05.
  Using Symmetric Orthogonalization.

  SCF Guess: Superposition of Atomic Densities via on-the-fly atomic UHF.

  ==> Iterations <==

                           Total Energy        Delta E     RMS |[F,P]|

   @DF-RHF iter SAD:   -75.47930643980911   -7.54793e+01   0.00000e+00 
   @DF-RHF iter   1:   -75.98168900122369   -5.02383e-01   2.73062e-03 DIIS
   @DF-RHF iter   2:   -76.03421482136089   -5.25258e-02   1.85424e-03 DIIS
   @DF-RHF iter   3:   -76.06541972588272   -3.12049e-02   1.26268e-04 DIIS
   @DF-RHF iter   4:   -76.06581119621127   -3.91470e-04   3.08358e-05 DIIS
   @DF-RHF iter   5:   -76.06583600236127   -2.48061e-05   6.91418e-06 DIIS
   @DF-RHF iter   6:   -76.06583803655566   -2.03419e-06   1.58033e-06 DIIS
   @DF-RHF iter   7:   -76.06583815542386   -1.18868e-07   3.08452e-07 DIIS
   @DF-RHF iter   8:   -76.06583815944956   -4.02569e-09   4.93377e-08 DIIS
   @DF-RHF iter   9:   -76.06583815953343   -8.38725e-11   1.19407e-08 DIIS
   @DF-RHF iter  10:   -76.06583815953745   -4.02167e-12   1.65814e-09 DIIS
  Energy and wave function converged.


  ==> Post-Iterations <==

    Orbital Energies [Eh]
    ---------------------

    Doubly Occupied:                                                      

       1A    -20.562987     2A     -1.350079     3A     -0.725218  
       4A     -0.577345     5A     -0.509318  

    Virtual:                                                              

       6A      0.027153     7A      0.042874     8A      0.114705  
       9A      0.132596    10A      0.150345    11A      0.157857  
      12A      0.185997    13A      0.197121    14A      0.208266  
      15A      0.241365    16A      0.258952    17A      0.290423  
      18A      0.358126    19A      0.390637    20A      0.471844  
      21A      0.506703    22A      0.543011    23A      0.545699  
      24A      0.554102    25A      0.613313    26A      0.634236  
      27A      0.649633    28A      0.662623    29A      0.665788  
      30A      0.690322    31A      0.705182    32A      0.714888  
      33A      0.769581    34A      0.787655    35A      0.803485  
      36A      0.810078    37A      0.846752    38A      0.855352  
      39A      0.967437    40A      1.134236    41A      1.141028  
      42A      1.216885    43A      1.329047    44A      1.417988  
      45A      1.480542    46A      1.506086    47A      1.521866  
      48A      1.525058    49A      1.555891    50A      1.595496  
      51A      1.618113    52A      1.636681    53A      1.659524  
      54A      1.672611    55A      1.685899    56A      1.702506  
      57A      1.719662    58A      1.763529    59A      1.781708  
      60A      1.794110    61A      1.828446    62A      1.862853  
      63A      1.881751    64A      1.900464    65A      1.953662  
      66A      2.013870    67A      2.021385    68A      2.029454  
      69A      2.098944    70A      2.219019    71A      2.225830  
      72A      2.307052    73A      2.493108    74A      2.642508  
      75A      2.643794    76A      2.891189    77A      2.962491  
      78A      3.010460    79A      3.023689    80A      3.061672  
      81A      3.088597    82A      3.252730    83A      3.283103  
      84A      3.311355    85A      3.530479    86A      3.591075  
      87A      3.658461    88A      3.681485    89A      3.741208  
      90A      3.741889    91A      3.920797    92A      4.066226  
      93A      4.159231    94A      4.170442    95A      4.174737  
      96A      4.181129    97A      4.250995    98A      4.344433  
      99A      4.418718   100A      4.566208   101A      4.663107  
     102A      4.761278   103A      4.803115   104A      4.807553  
     105A      4.840600   106A      4.875670   107A      4.998654  
     108A      5.276696   109A      5.315771   110A      5.513058  
     111A      5.548636   112A      5.878533   113A      5.883281  
     114A      6.080834   115A      6.231037   116A      6.835681  
     117A      6.859850   118A      6.861643   119A      6.956568  
     120A      7.714415   121A      7.779958   122A      7.829087  
     123A      7.846383   124A      7.880048   125A      7.919462  
     126A      7.947295   127A      8.006574   128A      8.197732  
     129A      8.341659   130A      8.537418   131A      8.590628  
     132A      8.707069   133A      8.759412   134A      8.800183  
     135A      8.876830   136A      8.981679   137A      9.064245  
     138A      9.142143   139A      9.527616   140A      9.842954  
     141A      9.963665   142A      9.967450   143A     10.014178  
     144A     10.442595   145A     10.478945   146A     10.653599  
     147A     10.993031   148A     11.037929   149A     11.077848  
     150A     11.259862   151A     11.369906   152A     11.439430  
     153A     11.697426   154A     11.796903   155A     11.834641  
     156A     12.013403   157A     12.175388   158A     12.226307  
     159A     12.531269   160A     12.737705   161A     12.877634  
     162A     12.895949   163A     13.211208   164A     14.000408  
     165A     14.040473   166A     14.489726   167A     14.848865  
     168A     14.878111   169A     15.304726   170A     16.930447  
     171A     17.268245   172A     45.494338  

    Final Occupation by Irrep:
              A 
    DOCC [     5 ]

  @DF-RHF Final Energy:   -76.06583815953745

   => Energetics <=

    Nuclear Repulsion Energy =              9.1853246703628937
    One-Electron Energy =                -123.0524316465296977
    Two-Electron Energy =                  37.8012688166293600
    Total Energy =                        -76.0658381595374493

Computation Completed


Properties will be evaluated at   3.413211,   1.829729,  -6.827359 [a0]

Properties computed using the SCF density matrix

  Nuclear Dipole Moment: [e a0]
     X:    -0.6572      Y:    -0.1545      Z:    -0.6421

  Electronic Dipole Moment: [e a0]
     X:     0.1259      Y:     0.0296      Z:     0.1229

  Dipole Moment: [e a0]
     X:    -0.5313      Y:    -0.1248      Z:    -0.5192     Total:     0.7532

  Dipole Moment: [D]
     X:    -1.3504      Y:    -0.3173      Z:    -1.3195     Total:     1.9145


*** tstop() called on node37.bme.utexas.edu at Tue Feb 22 19:43:24 2022
Module time:
	user time   =       7.66 seconds =       0.13 minutes
	system time =       0.46 seconds =       0.01 minutes
	total time  =          2 seconds =       0.03 minutes
Total time:
	user time   =      13.03 seconds =       0.22 minutes
	system time =       0.82 seconds =       0.01 minutes
	total time  =          4 seconds =       0.07 minutes

*** tstart() called on node37.bme.utexas.edu
*** at Tue Feb 22 19:43:24 2022


  //>>>>>>>>>>>>>>>>>>>>>>>>>>>>>>>>>>>//
  //               DFMP2               //
  //<<<<<<<<<<<<<<<<<<<<<<<<<<<<<<<<<<<//

   => Loading Basis Set <=

    Name: (AUG-CC-PVQZ AUX)
    Role: RIFIT
    Keyword: DF_BASIS_MP2
    atoms 1   entry O          line   332 file /home/bdw2292/miniconda3/envs/amoebamdpoltype/share/psi4/basis/aug-cc-pvqz-ri.gbs 
    atoms 2-3 entry H          line    30 file /home/bdw2292/miniconda3/envs/amoebamdpoltype/share/psi4/basis/aug-cc-pvqz-ri.gbs 

	 --------------------------------------------------------
	                          DF-MP2                         
	      2nd-Order Density-Fitted Moller-Plesset Theory     
	              RMP2 Wavefunction,   4 Threads             
	                                                         
	        Rob Parrish, Justin Turney, Andy Simmonett,      
	           Ed Hohenstein, and C. David Sherrill          
	 --------------------------------------------------------

   => Auxiliary Basis Set <=

  Basis Set: (AUG-CC-PVQZ AUX)
    Blend: AUG-CC-PVQZ-RI
    Number of shells: 76
    Number of basis function: 328
    Number of Cartesian functions: 447
    Spherical Harmonics?: true
    Max angular momentum: 5

	 --------------------------------------------------------
	                 NBF =   172, NAUX =   328
	 --------------------------------------------------------
	   CLASS    FOCC     OCC    AOCC    AVIR     VIR    FVIR
	   PAIRS       1       5       4     167     167       0
	 --------------------------------------------------------

	-----------------------------------------------------------
	 ==================> DF-MP2 Energies <==================== 
	-----------------------------------------------------------
	 Reference Energy          =     -76.0658381595374493 [Eh]
	 Singles Energy            =      -0.0000000000000000 [Eh]
	 Same-Spin Energy          =      -0.0671592150927589 [Eh]
	 Opposite-Spin Energy      =      -0.2185004021159807 [Eh]
	 Correlation Energy        =      -0.2856596172087396 [Eh]
	 Total Energy              =     -76.3514977767461858 [Eh]
	-----------------------------------------------------------
	 ================> DF-SCS-MP2 Energies <================== 
	-----------------------------------------------------------
	 SCS Same-Spin Scale       =       0.3333333333333333 [-]
	 SCS Opposite-Spin Scale   =       1.2000000000000000 [-]
	 SCS Same-Spin Energy      =      -0.0223864050309196 [Eh]
	 SCS Opposite-Spin Energy  =      -0.2622004825391768 [Eh]
	 SCS Correlation Energy    =      -0.2845868875700964 [Eh]
	 SCS Total Energy          =     -76.3504250471075494 [Eh]
	-----------------------------------------------------------


*** tstop() called on node37.bme.utexas.edu at Tue Feb 22 19:43:25 2022
Module time:
	user time   =       2.67 seconds =       0.04 minutes
	system time =       0.17 seconds =       0.00 minutes
	total time  =          1 seconds =       0.02 minutes
Total time:
	user time   =      15.71 seconds =       0.26 minutes
	system time =       0.99 seconds =       0.02 minutes
	total time  =          5 seconds =       0.08 minutes

  //>>>>>>>>>>>>>>>>>>>>>>>>>>>>>>>>>>>//
  //  CBS Results: mp2/aug-cc-pV[TQ]Z  //
  //<<<<<<<<<<<<<<<<<<<<<<<<<<<<<<<<<<<//


   ==> HF <==

   HI-zeta (4) Energy:               -76.065838159537


   ==> Helgaker 2-point correlated extrapolation for method: MP2 <==

   LO-zeta (3) Energy:               -76.328499135616
   HI-zeta (4) Energy:               -76.351497776746
   Alpha (exponent) Value:             3.000000000000
   Extrapolated Energy:              -76.368280568923

   @Extrapolated MP2/(T,Q):          -76.368280568923



   ==> Helgaker 2-point correlated extrapolation for method: HF <==

   LO-zeta (3) Energy:               -76.060449700226
   HI-zeta (4) Energy:               -76.065838159537
   Alpha (exponent) Value:             3.000000000000
   Extrapolated Energy:              -76.069770278495

   @Extrapolated HF/(T,Q):           -76.069770278495


   ==> Components <==

  ---------------------------------------------------------------------------------------------------------
                          Method / Basis                      Rqd      Energy [Eh]   Variable
  ---------------------------------------------------------------------------------------------------------
                              hf / aug-cc-pvtz                  *     -76.06044970   HF TOTAL ENERGY
                             mp2 / aug-cc-pvtz                  *     -76.32849914   MP2 TOTAL ENERGY
                              hf / aug-cc-pvqz                  *     -76.06583816   HF TOTAL ENERGY
                             mp2 / aug-cc-pvqz                  *     -76.35149778   MP2 TOTAL ENERGY
  ---------------------------------------------------------------------------------------------------------

   ==> Stages <==

  ---------------------------------------------------------------------------------------------------------
      Stage               Method / Basis                       Wt      Energy [Eh]   Scheme
  ---------------------------------------------------------------------------------------------------------
        scf                   hf / aug-cc-pvqz                  1     -76.06583816   xtpl_highest_1
       corl                  mp2 / aug-cc-pv[tq]z               1     -76.36828057   corl_xtpl_helgaker_2
       corl                   hf / aug-cc-pv[tq]z              -1     -76.06977028   corl_xtpl_helgaker_2
  ---------------------------------------------------------------------------------------------------------

   ==> CBS <==

  ---------------------------------------------------------------------------------------------------------
      Stage               Method / Basis                               Energy [Eh]   Scheme
  ---------------------------------------------------------------------------------------------------------
        scf                   hf / aug-cc-pvqz                        -76.06583816   xtpl_highest_1
       corl                  mp2 / aug-cc-pv[tq]z                      -0.29851029   corl_xtpl_helgaker_2
      total                  CBS                                      -76.36434845   
  ---------------------------------------------------------------------------------------------------------
   => Loading Basis Set <=

    Name: DEF2-SVP
    Role: ORBITAL
    Keyword: BASIS
    atoms 1   entry O          line   130 file /home/bdw2292/miniconda3/envs/amoebamdpoltype/share/psi4/basis/def2-svp.gbs 
    atoms 2-3 entry H          line    15 file /home/bdw2292/miniconda3/envs/amoebamdpoltype/share/psi4/basis/def2-svp.gbs 


       N-Body: Complex Energy (fragments = (2,), basis = (2,):   -76.36434844996523)

       N-Body: Computing complex (2/4) with fragments (2,) in the basis of fragments (1, 2).


  //>>>>>>>>>>>>>>>>>>>>>>>>>>>>>>>>>>>//
  //   CBS Setup: mp2/aug-cc-pV[TQ]Z   //
  //<<<<<<<<<<<<<<<<<<<<<<<<<<<<<<<<<<<//

    Naive listing of computations required.
             hf / aug-cc-pvqz              for  HF TOTAL ENERGY
            mp2 / aug-cc-pvtz              for  MP2 TOTAL ENERGY
            mp2 / aug-cc-pvqz              for  MP2 TOTAL ENERGY
             hf / aug-cc-pvtz              for  HF TOTAL ENERGY
             hf / aug-cc-pvqz              for  HF TOTAL ENERGY

    Enlightened listing of computations required.
            mp2 / aug-cc-pvtz              for  MP2 TOTAL ENERGY
            mp2 / aug-cc-pvqz              for  MP2 TOTAL ENERGY

    Full listing of computations to be obtained (required and bonus).
             hf / aug-cc-pvtz              for  HF TOTAL ENERGY
            mp2 / aug-cc-pvtz              for  MP2 TOTAL ENERGY
             hf / aug-cc-pvqz              for  HF TOTAL ENERGY
            mp2 / aug-cc-pvqz              for  MP2 TOTAL ENERGY

  //>>>>>>>>>>>>>>>>>>>>>>>>>>>>>>>>>>>>//
  // CBS Computation: MP2 / AUG-CC-PVTZ //
  //<<<<<<<<<<<<<<<<<<<<<<<<<<<<<<<<<<<<//

    SCF Algorithm Type (re)set to DF.

*** tstart() called on node37.bme.utexas.edu
*** at Tue Feb 22 19:43:26 2022

   => Loading Basis Set <=

    Name: AUG-CC-PVTZ
    Role: ORBITAL
    Keyword: BASIS
    atoms 1-4 entry CL         line   984 file /home/bdw2292/miniconda3/envs/amoebamdpoltype/share/psi4/basis/aug-cc-pvtz.gbs 
    atoms 5   entry C          line   235 file /home/bdw2292/miniconda3/envs/amoebamdpoltype/share/psi4/basis/aug-cc-pvtz.gbs 
    atoms 6   entry O          line   327 file /home/bdw2292/miniconda3/envs/amoebamdpoltype/share/psi4/basis/aug-cc-pvtz.gbs 
    atoms 7-8 entry H          line    36 file /home/bdw2292/miniconda3/envs/amoebamdpoltype/share/psi4/basis/aug-cc-pvtz.gbs 


         ---------------------------------------------------------
                                   SCF
               by Justin Turney, Rob Parrish, Andy Simmonett
                          and Daniel G. A. Smith
                              RHF Reference
                        4 Threads,  14305 MiB Core
         ---------------------------------------------------------

  ==> Geometry <==

    Molecular point group: c1
    Full point group: C1

    Geometry (in Angstrom), charge = 0, multiplicity = 1:

       Center              X                  Y                   Z               Mass       
    ------------   -----------------  -----------------  -----------------  -----------------
      Gh(CL)         -0.979246473853    -0.580195195279     1.953662954238    34.968852682000
      Gh(CL)         -1.016122273853     1.324744404721    -0.218355445762    34.968852682000
      Gh(CL)         -0.360722073853    -1.441430895279    -0.734209245762    34.968852682000
      Gh(CL)          1.498619026147     0.237072804721     0.712718154238    34.968852682000
      Gh(C)          -0.212146473853    -0.113313295279     0.428321754238    12.000000000000
         O            1.850378126147     0.978636604721    -3.569712545762    15.994914619570
         H            1.135710326147     0.345382604721    -3.498599845762     1.007825032230
         H            1.775432326147     1.426293604721    -4.412304545762     1.007825032230

  Running in c1 symmetry.

  Rotational constants: A =      0.05748  B =      0.02632  C =      0.02628 [cm^-1]
  Rotational constants: A =   1723.07551  B =    788.94480  C =    787.93132 [MHz]
  Nuclear repulsion =    9.185324670362894

  Charge       = 0
  Multiplicity = 1
  Electrons    = 10
  Nalpha       = 5
  Nbeta        = 5

  ==> Algorithm <==

  SCF Algorithm Type is DF.
  DIIS enabled.
  MOM disabled.
  Fractional occupation disabled.
  Guess Type is SAD.
  Energy threshold   = 1.00e-08
  Density threshold  = 1.00e-08
  Integral threshold = 0.00e+00

  ==> Primary Basis <==

  Basis Set: AUG-CC-PVTZ
    Blend: AUG-CC-PVTZ
    Number of shells: 110
    Number of basis function: 338
    Number of Cartesian functions: 396
    Spherical Harmonics?: true
    Max angular momentum: 3

   => Loading Basis Set <=

    Name: (AUG-CC-PVTZ AUX)
    Role: JKFIT
    Keyword: DF_BASIS_SCF
    atoms 1-4 entry CL         line   816 file /home/bdw2292/miniconda3/envs/amoebamdpoltype/share/psi4/basis/aug-cc-pvtz-jkfit.gbs 
    atoms 5   entry C          line   162 file /home/bdw2292/miniconda3/envs/amoebamdpoltype/share/psi4/basis/aug-cc-pvtz-jkfit.gbs 
    atoms 6   entry O          line   286 file /home/bdw2292/miniconda3/envs/amoebamdpoltype/share/psi4/basis/aug-cc-pvtz-jkfit.gbs 
    atoms 7-8 entry H          line    70 file /home/bdw2292/miniconda3/envs/amoebamdpoltype/share/psi4/basis/aug-cc-pvtz-jkfit.gbs 

  ==> Pre-Iterations <==

   -------------------------------------------------------
    Irrep   Nso     Nmo     Nalpha   Nbeta   Ndocc  Nsocc
   -------------------------------------------------------
     A        338     338       0       0       0       0
   -------------------------------------------------------
    Total     338     338       5       5       5       0
   -------------------------------------------------------

  ==> Integral Setup <==

  DFHelper Memory: AOs need 0.734 GiB; user supplied 10.477 GiB. Using in-core AOs.

  ==> MemDFJK: Density-Fitted J/K Matrices <==

    J tasked:                   Yes
    K tasked:                   Yes
    wK tasked:                   No
    OpenMP threads:               4
    Memory [MiB]:             10728
    Algorithm:                 Core
    Schwarz Cutoff:           1E-12
    Mask sparsity (%):       6.7785
    Fitting Condition:        1E-10

   => Auxiliary Basis Set <=

  Basis Set: (AUG-CC-PVTZ AUX)
    Blend: AUG-CC-PVTZ-JKFIT
    Number of shells: 256
    Number of basis function: 884
    Number of Cartesian functions: 1092
    Spherical Harmonics?: true
    Max angular momentum: 4

  Minimum eigenvalue in the overlap matrix is 7.1417099754E-05.
  Using Symmetric Orthogonalization.

  SCF Guess: Superposition of Atomic Densities via on-the-fly atomic UHF.

  ==> Iterations <==

                           Total Energy        Delta E     RMS |[F,P]|

   @DF-RHF iter SAD:   -75.47414968496736   -7.54741e+01   0.00000e+00 
   @DF-RHF iter   1:   -75.97661124379206   -5.02462e-01   1.38664e-03 DIIS
   @DF-RHF iter   2:   -76.02903515382457   -5.24239e-02   9.39455e-04 DIIS
   @DF-RHF iter   3:   -76.06004494708205   -3.10098e-02   6.37927e-05 DIIS
   @DF-RHF iter   4:   -76.06043438398402   -3.89437e-04   1.52261e-05 DIIS
   @DF-RHF iter   5:   -76.06045829644773   -2.39125e-05   3.42661e-06 DIIS
   @DF-RHF iter   6:   -76.06046024895434   -1.95251e-06   7.62945e-07 DIIS
   @DF-RHF iter   7:   -76.06046035671049   -1.07756e-07   1.44380e-07 DIIS
   @DF-RHF iter   8:   -76.06046036013458   -3.42409e-09   2.39359e-08 DIIS
   @DF-RHF iter   9:   -76.06046036020916   -7.45786e-11   5.94412e-09 DIIS
  Energy and wave function converged.


  ==> Post-Iterations <==

    Orbital Energies [Eh]
    ---------------------

    Doubly Occupied:                                                      

       1A    -20.565451     2A     -1.350807     3A     -0.725256  
       4A     -0.577291     5A     -0.509193  

    Virtual:                                                              

       6A      0.023492     7A      0.037888     8A      0.049604  
       9A      0.057595    10A      0.062869    11A      0.079719  
      12A      0.106816    13A      0.108949    14A      0.110382  
      15A      0.112358    16A      0.117117    17A      0.128585  
      18A      0.148880    19A      0.155575    20A      0.157421  
      21A      0.163026    22A      0.174572    23A      0.175660  
      24A      0.179249    25A      0.191130    26A      0.194085  
      27A      0.201834    28A      0.204666    29A      0.206683  
      30A      0.227758    31A      0.241312    32A      0.259931  
      33A      0.283599    34A      0.291028    35A      0.306306  
      36A      0.311023    37A      0.327523    38A      0.331940  
      39A      0.335930    40A      0.338272    41A      0.338666  
      42A      0.373735    43A      0.391299    44A      0.396960  
      45A      0.402934    46A      0.419420    47A      0.421488  
      48A      0.429619    49A      0.446741    50A      0.453285  
      51A      0.456103    52A      0.463306    53A      0.499662  
      54A      0.509456    55A      0.520056    56A      0.531091  
      57A      0.535740    58A      0.541690    59A      0.546156  
      60A      0.549451    61A      0.557285    62A      0.558637  
      63A      0.569473    64A      0.596393    65A      0.617734  
      66A      0.621710    67A      0.632669    68A      0.640969  
      69A      0.651599    70A      0.660360    71A      0.694066  
      72A      0.705415    73A      0.720092    74A      0.724009  
      75A      0.737054    76A      0.746393    77A      0.749894  
      78A      0.755799    79A      0.757253    80A      0.760627  
      81A      0.763947    82A      0.767599    83A      0.788639  
      84A      0.793566    85A      0.799505    86A      0.841594  
      87A      0.845083    88A      0.853193    89A      0.865044  
      90A      0.883565    91A      0.916848    92A      0.934492  
      93A      0.948035    94A      0.951287    95A      0.973535  
      96A      0.979496    97A      1.025932    98A      1.042634  
      99A      1.075159   100A      1.108119   101A      1.118930  
     102A      1.154166   103A      1.183934   104A      1.191293  
     105A      1.224756   106A      1.227423   107A      1.230557  
     108A      1.235735   109A      1.244469   110A      1.265221  
     111A      1.271705   112A      1.284636   113A      1.289608  
     114A      1.342783   115A      1.345103   116A      1.349357  
     117A      1.362284   118A      1.367388   119A      1.368276  
     120A      1.380198   121A      1.382847   122A      1.401574  
     123A      1.407450   124A      1.419752   125A      1.428205  
     126A      1.455867   127A      1.472381   128A      1.478509  
     129A      1.483607   130A      1.488032   131A      1.488738  
     132A      1.496037   133A      1.502155   134A      1.509591  
     135A      1.535201   136A      1.543101   137A      1.549389  
     138A      1.559169   139A      1.559541   140A      1.566455  
     141A      1.571432   142A      1.585291   143A      1.595250  
     144A      1.603263   145A      1.611893   146A      1.617920  
     147A      1.650267   148A      1.655172   149A      1.659050  
     150A      1.666945   151A      1.677872   152A      1.684337  
     153A      1.709744   154A      1.714246   155A      1.720539  
     156A      1.734913   157A      1.764155   158A      1.780091  
     159A      1.789095   160A      1.844298   161A      1.853162  
     162A      1.859470   163A      1.869019   164A      1.884157  
     165A      1.886550   166A      1.898624   167A      1.941184  
     168A      2.018350   169A      2.119310   170A      2.137817  
     171A      2.140016   172A      2.140551   173A      2.145275  
     174A      2.149837   175A      2.165932   176A      2.225407  
     177A      2.226773   178A      2.256903   179A      2.285382  
     180A      2.312685   181A      2.317134   182A      2.329191  
     183A      2.346055   184A      2.371981   185A      2.435825  
     186A      2.440984   187A      2.458956   188A      2.461798  
     189A      2.475359   190A      2.477777   191A      2.508405  
     192A      2.565459   193A      2.568988   194A      2.579932  
     195A      2.722194   196A      2.726641   197A      2.755875  
     198A      2.757178   199A      2.788174   200A      2.804804  
     201A      2.885154   202A      2.910678   203A      2.993168  
     204A      3.666242   205A      3.801256   206A      3.802949  
     207A      3.805887   208A      3.812157   209A      3.880593  
     210A      3.952729   211A      3.953900   212A      3.956743  
     213A      3.980686   214A      3.983830   215A      3.988058  
     216A      3.991181   217A      4.020099   218A      4.020501  
     219A      4.027314   220A      4.034757   221A      4.071037  
     222A      4.078874   223A      4.085486   224A      4.091730  
     225A      4.115902   226A      4.126715   227A      4.129202  
     228A      4.136873   229A      4.141340   230A      4.141645  
     231A      4.149526   232A      4.155868   233A      4.191296  
     234A      4.192748   235A      4.201516   236A      4.235240  
     237A      4.237621   238A      4.242236   239A      4.245938  
     240A      4.261304   241A      4.272780   242A      4.277340  
     243A      4.282144   244A      4.311668   245A      4.354672  
     246A      4.395366   247A      4.407622   248A      4.451827  
     249A      4.462458   250A      4.464727   251A      4.475082  
     252A      4.476987   253A      4.481508   254A      4.523490  
     255A      4.703394   256A      4.705334   257A      4.720811  
     258A      4.731046   259A      4.737965   260A      4.740658  
     261A      4.747940   262A      4.768338   263A      4.782855  
     264A      4.785244   265A      4.793049   266A      4.796891  
     267A      4.823296   268A      4.824671   269A      4.827530  
     270A      4.831715   271A      4.840125   272A      4.881729  
     273A      4.888177   274A      4.890671   275A      4.901204  
     276A      4.906577   277A      5.088571   278A      5.094907  
     279A      5.111118   280A      5.113644   281A      5.119579  
     282A      5.128597   283A      5.143469   284A      5.179827  
     285A      5.323020   286A      5.344493   287A      5.400871  
     288A      5.403078   289A      5.406073   290A      5.407893  
     291A      5.413644   292A      5.515997   293A      5.605771  
     294A      5.754481   295A      5.847777   296A      6.129209  
     297A      6.133352   298A      6.146421   299A      6.160882  
     300A      6.558656   301A      6.730868   302A      6.869948  
     303A      7.154321   304A      7.273686   305A      7.310643  
     306A      7.318129   307A      7.385911   308A      7.399401  
     309A      7.535893   310A      7.578634   311A      7.900797  
     312A      7.904571   313A      7.906958   314A      7.930722  
     315A      7.977133   316A      8.798012   317A     15.299908  
     318A     15.993965   319A     16.379986   320A     16.449350  
     321A     16.452934   322A     28.060195   323A     28.061917  
     324A     28.070306   325A     28.171128   326A     28.177334  
     327A     28.204029   328A     28.330152   329A     28.334085  
     330A     28.846462   331A     28.853168   332A     28.880503  
     333A     29.527244   334A     40.572502   335A    160.924831  
     336A    161.047427   337A    161.047574   338A    161.051684  

    Final Occupation by Irrep:
              A 
    DOCC [     5 ]

  @DF-RHF Final Energy:   -76.06046036020916

   => Energetics <=

    Nuclear Repulsion Energy =              9.1853246703628937
    One-Electron Energy =                -123.0355710435562457
    Two-Electron Energy =                  37.7897860129842087
    Total Energy =                        -76.0604603602091487

Computation Completed


Properties will be evaluated at   0.000000,   0.000000,   0.000000 [a0]

Properties computed using the SCF density matrix

  Nuclear Dipole Moment: [e a0]
     X:    33.4749      Y:    18.1428      Z:   -68.9157

  Electronic Dipole Moment: [e a0]
     X:   -34.0070      Y:   -18.2679      Z:    68.3957

  Dipole Moment: [e a0]
     X:    -0.5321      Y:    -0.1251      Z:    -0.5200     Total:     0.7544

  Dipole Moment: [D]
     X:    -1.3524      Y:    -0.3179      Z:    -1.3216     Total:     1.9175


*** tstop() called on node37.bme.utexas.edu at Tue Feb 22 19:43:41 2022
Module time:
	user time   =      33.48 seconds =       0.56 minutes
	system time =       1.42 seconds =       0.02 minutes
	total time  =         15 seconds =       0.25 minutes
Total time:
	user time   =      50.81 seconds =       0.85 minutes
	system time =       2.47 seconds =       0.04 minutes
	total time  =         21 seconds =       0.35 minutes

*** tstart() called on node37.bme.utexas.edu
*** at Tue Feb 22 19:43:41 2022


  //>>>>>>>>>>>>>>>>>>>>>>>>>>>>>>>>>>>//
  //               DFMP2               //
  //<<<<<<<<<<<<<<<<<<<<<<<<<<<<<<<<<<<//

   => Loading Basis Set <=

    Name: (AUG-CC-PVTZ AUX)
    Role: RIFIT
    Keyword: DF_BASIS_MP2
    atoms 1-4 entry CL         line   742 file /home/bdw2292/miniconda3/envs/amoebamdpoltype/share/psi4/basis/aug-cc-pvtz-ri.gbs 
    atoms 5   entry C          line   148 file /home/bdw2292/miniconda3/envs/amoebamdpoltype/share/psi4/basis/aug-cc-pvtz-ri.gbs 
    atoms 6   entry O          line   264 file /home/bdw2292/miniconda3/envs/amoebamdpoltype/share/psi4/basis/aug-cc-pvtz-ri.gbs 
    atoms 7-8 entry H          line    30 file /home/bdw2292/miniconda3/envs/amoebamdpoltype/share/psi4/basis/aug-cc-pvtz-ri.gbs 

	 --------------------------------------------------------
	                          DF-MP2                         
	      2nd-Order Density-Fitted Moller-Plesset Theory     
	              RMP2 Wavefunction,   4 Threads             
	                                                         
	        Rob Parrish, Justin Turney, Andy Simmonett,      
	           Ed Hohenstein, and C. David Sherrill          
	 --------------------------------------------------------

   => Auxiliary Basis Set <=

  Basis Set: (AUG-CC-PVTZ AUX)
    Blend: AUG-CC-PVTZ-RI
    Number of shells: 232
    Number of basis function: 892
    Number of Cartesian functions: 1146
    Spherical Harmonics?: true
    Max angular momentum: 4

	 --------------------------------------------------------
	                 NBF =   338, NAUX =   892
	 --------------------------------------------------------
	   CLASS    FOCC     OCC    AOCC    AVIR     VIR    FVIR
	   PAIRS       1       5       4     333     333       0
	 --------------------------------------------------------

	-----------------------------------------------------------
	 ==================> DF-MP2 Energies <==================== 
	-----------------------------------------------------------
	 Reference Energy          =     -76.0604603602091629 [Eh]
	 Singles Energy            =      -0.0000000000000000 [Eh]
	 Same-Spin Energy          =      -0.0650951868813537 [Eh]
	 Opposite-Spin Energy      =      -0.2030070588846175 [Eh]
	 Correlation Energy        =      -0.2681022457659712 [Eh]
	 Total Energy              =     -76.3285626059751365 [Eh]
	-----------------------------------------------------------
	 ================> DF-SCS-MP2 Energies <================== 
	-----------------------------------------------------------
	 SCS Same-Spin Scale       =       0.3333333333333333 [-]
	 SCS Opposite-Spin Scale   =       1.2000000000000000 [-]
	 SCS Same-Spin Energy      =      -0.0216983956271179 [Eh]
	 SCS Opposite-Spin Energy  =      -0.2436084706615410 [Eh]
	 SCS Correlation Energy    =      -0.2653068662886589 [Eh]
	 SCS Total Energy          =     -76.3257672264978169 [Eh]
	-----------------------------------------------------------


*** tstop() called on node37.bme.utexas.edu at Tue Feb 22 19:43:48 2022
Module time:
	user time   =      18.88 seconds =       0.31 minutes
	system time =       1.01 seconds =       0.02 minutes
	total time  =          7 seconds =       0.12 minutes
Total time:
	user time   =      69.69 seconds =       1.16 minutes
	system time =       3.48 seconds =       0.06 minutes
	total time  =         28 seconds =       0.47 minutes

  //>>>>>>>>>>>>>>>>>>>>>>>>>>>>>>>>>>>>//
  // CBS Computation: MP2 / AUG-CC-PVQZ //
  //<<<<<<<<<<<<<<<<<<<<<<<<<<<<<<<<<<<<//

    SCF Algorithm Type (re)set to DF.

*** tstart() called on node37.bme.utexas.edu
*** at Tue Feb 22 19:43:48 2022

   => Loading Basis Set <=

    Name: AUG-CC-PVQZ
    Role: ORBITAL
    Keyword: BASIS
    atoms 1-4 entry CL         line  1218 file /home/bdw2292/miniconda3/envs/amoebamdpoltype/share/psi4/basis/aug-cc-pvqz.gbs 
    atoms 5   entry C          line   299 file /home/bdw2292/miniconda3/envs/amoebamdpoltype/share/psi4/basis/aug-cc-pvqz.gbs 
    atoms 6   entry O          line   419 file /home/bdw2292/miniconda3/envs/amoebamdpoltype/share/psi4/basis/aug-cc-pvqz.gbs 
    atoms 7-8 entry H          line    36 file /home/bdw2292/miniconda3/envs/amoebamdpoltype/share/psi4/basis/aug-cc-pvqz.gbs 


         ---------------------------------------------------------
                                   SCF
               by Justin Turney, Rob Parrish, Andy Simmonett
                          and Daniel G. A. Smith
                              RHF Reference
                        4 Threads,  14305 MiB Core
         ---------------------------------------------------------

  ==> Geometry <==

    Molecular point group: c1
    Full point group: C1

    Geometry (in Angstrom), charge = 0, multiplicity = 1:

       Center              X                  Y                   Z               Mass       
    ------------   -----------------  -----------------  -----------------  -----------------
      Gh(CL)         -0.979246473853    -0.580195195279     1.953662954238    34.968852682000
      Gh(CL)         -1.016122273853     1.324744404721    -0.218355445762    34.968852682000
      Gh(CL)         -0.360722073853    -1.441430895279    -0.734209245762    34.968852682000
      Gh(CL)          1.498619026147     0.237072804721     0.712718154238    34.968852682000
      Gh(C)          -0.212146473853    -0.113313295279     0.428321754238    12.000000000000
         O            1.850378126147     0.978636604721    -3.569712545762    15.994914619570
         H            1.135710326147     0.345382604721    -3.498599845762     1.007825032230
         H            1.775432326147     1.426293604721    -4.412304545762     1.007825032230

  Running in c1 symmetry.

  Rotational constants: A =      0.05748  B =      0.02632  C =      0.02628 [cm^-1]
  Rotational constants: A =   1723.07551  B =    788.94480  C =    787.93132 [MHz]
  Nuclear repulsion =    9.185324670362894

  Charge       = 0
  Multiplicity = 1
  Electrons    = 10
  Nalpha       = 5
  Nbeta        = 5

  ==> Algorithm <==

  SCF Algorithm Type is DF.
  DIIS enabled.
  MOM disabled.
  Fractional occupation disabled.
  Guess Type is SAD.
  Energy threshold   = 1.00e-08
  Density threshold  = 1.00e-08
  Integral threshold = 0.00e+00

  ==> Primary Basis <==

  Basis Set: AUG-CC-PVQZ
    Blend: AUG-CC-PVQZ
    Number of shells: 156
    Number of basis function: 588
    Number of Cartesian functions: 756
    Spherical Harmonics?: true
    Max angular momentum: 4

   => Loading Basis Set <=

    Name: (AUG-CC-PVQZ AUX)
    Role: JKFIT
    Keyword: DF_BASIS_SCF
    atoms 1-4 entry CL         line   904 file /home/bdw2292/miniconda3/envs/amoebamdpoltype/share/psi4/basis/aug-cc-pvqz-jkfit.gbs 
    atoms 5   entry C          line   178 file /home/bdw2292/miniconda3/envs/amoebamdpoltype/share/psi4/basis/aug-cc-pvqz-jkfit.gbs 
    atoms 6   entry O          line   318 file /home/bdw2292/miniconda3/envs/amoebamdpoltype/share/psi4/basis/aug-cc-pvqz-jkfit.gbs 
    atoms 7-8 entry H          line    70 file /home/bdw2292/miniconda3/envs/amoebamdpoltype/share/psi4/basis/aug-cc-pvqz-jkfit.gbs 

  ==> Pre-Iterations <==

   -------------------------------------------------------
    Irrep   Nso     Nmo     Nalpha   Nbeta   Ndocc  Nsocc
   -------------------------------------------------------
     A        588     588       0       0       0       0
   -------------------------------------------------------
    Total     588     588       5       5       5       0
   -------------------------------------------------------

  ==> Integral Setup <==

  DFHelper Memory: AOs need 2.788 GiB; user supplied 10.477 GiB. Using in-core AOs.

  ==> MemDFJK: Density-Fitted J/K Matrices <==

    J tasked:                   Yes
    K tasked:                   Yes
    wK tasked:                   No
    OpenMP threads:               4
    Memory [MiB]:             10728
    Algorithm:                 Disk
    Schwarz Cutoff:           1E-12
    Mask sparsity (%):      11.1504
    Fitting Condition:        1E-10

   => Auxiliary Basis Set <=

  Basis Set: (AUG-CC-PVQZ AUX)
    Blend: AUG-CC-PVQZ-JKFIT
    Number of shells: 288
    Number of basis function: 1172
    Number of Cartesian functions: 1586
    Spherical Harmonics?: true
    Max angular momentum: 5

  Minimum eigenvalue in the overlap matrix is 1.2180343418E-05.
  Using Symmetric Orthogonalization.

  SCF Guess: Superposition of Atomic Densities via on-the-fly atomic UHF.

  ==> Iterations <==

                           Total Energy        Delta E     RMS |[F,P]|

   @DF-RHF iter SAD:   -75.47930643698211   -7.54793e+01   0.00000e+00 
   @DF-RHF iter   1:   -75.98169339604848   -5.02387e-01   7.98760e-04 DIIS
   @DF-RHF iter   2:   -76.03422026771426   -5.25269e-02   5.42416e-04 DIIS
   @DF-RHF iter   3:   -76.06542630555379   -3.12060e-02   3.69362e-05 DIIS
   @DF-RHF iter   4:   -76.06581777524633   -3.91470e-04   9.01983e-06 DIIS
   @DF-RHF iter   5:   -76.06584257872991   -2.48035e-05   2.02246e-06 DIIS
   @DF-RHF iter   6:   -76.06584461277185   -2.03404e-06   4.62254e-07 DIIS
   @DF-RHF iter   7:   -76.06584473164614   -1.18874e-07   9.02706e-08 DIIS
   @DF-RHF iter   8:   -76.06584473567733   -4.03119e-09   1.44389e-08 DIIS
   @DF-RHF iter   9:   -76.06584473576095   -8.36167e-11   3.49475e-09 DIIS
  Energy and wave function converged.


  ==> Post-Iterations <==

    Orbital Energies [Eh]
    ---------------------

    Doubly Occupied:                                                      

       1A    -20.562986     2A     -1.350077     3A     -0.725218  
       4A     -0.577343     5A     -0.509317  

    Virtual:                                                              

       6A      0.020636     7A      0.033876     8A      0.043605  
       9A      0.049327    10A      0.055221    11A      0.070737  
      12A      0.089159    13A      0.092426    14A      0.094139  
      15A      0.094282    16A      0.099469    17A      0.110014  
      18A      0.126995    19A      0.132862    20A      0.134952  
      21A      0.141075    22A      0.147791    23A      0.148706  
      24A      0.151674    25A      0.163299    26A      0.165116  
      27A      0.170945    28A      0.173913    29A      0.178881  
      30A      0.198009    31A      0.207347    32A      0.217500  
      33A      0.238377    34A      0.240750    35A      0.243816  
      36A      0.252535    37A      0.256849    38A      0.257572  
      39A      0.262161    40A      0.262924    41A      0.282857  
      42A      0.303627    43A      0.310824    44A      0.315127  
      45A      0.321031    46A      0.330268    47A      0.334592  
      48A      0.335955    49A      0.347268    50A      0.350104  
      51A      0.366017    52A      0.375890    53A      0.389520  
      54A      0.394384    55A      0.397538    56A      0.405116  
      57A      0.414454    58A      0.425019    59A      0.428121  
      60A      0.431733    61A      0.434704    62A      0.438418  
      63A      0.446512    64A      0.458652    65A      0.465135  
      66A      0.472113    67A      0.485171    68A      0.492660  
      69A      0.509760    70A      0.518928    71A      0.532928  
      72A      0.538169    73A      0.540895    74A      0.547802  
      75A      0.550012    76A      0.555400    77A      0.557777  
      78A      0.562694    79A      0.563304    80A      0.584362  
      81A      0.586062    82A      0.594555    83A      0.595887  
      84A      0.602211    85A      0.609846    86A      0.648627  
      87A      0.659844    88A      0.662085    89A      0.665777  
      90A      0.670959    91A      0.687782    92A      0.700470  
      93A      0.716896    94A      0.720701    95A      0.751420  
      96A      0.762488    97A      0.775725    98A      0.783802  
      99A      0.808913   100A      0.821220   101A      0.842140  
     102A      0.847977   103A      0.857458   104A      0.860817  
     105A      0.873169   106A      0.883195   107A      0.906792  
     108A      0.913118   109A      0.920433   110A      0.928485  
     111A      0.940926   112A      0.943827   113A      0.949742  
     114A      0.957674   115A      0.962721   116A      0.970857  
     117A      0.975232   118A      0.985439   119A      0.990628  
     120A      1.006040   121A      1.010836   122A      1.017424  
     123A      1.022722   124A      1.024991   125A      1.035187  
     126A      1.041681   127A      1.049844   128A      1.051377  
     129A      1.064322   130A      1.065231   131A      1.069719  
     132A      1.078336   133A      1.080201   134A      1.081612  
     135A      1.093708   136A      1.098400   137A      1.104137  
     138A      1.105005   139A      1.135386   140A      1.139430  
     141A      1.153937   142A      1.169818   143A      1.184996  
     144A      1.186899   145A      1.200871   146A      1.201572  
     147A      1.205632   148A      1.217062   149A      1.222558  
     150A      1.226811   151A      1.233045   152A      1.251799  
     153A      1.255852   154A      1.260181   155A      1.265267  
     156A      1.290306   157A      1.295887   158A      1.298089  
     159A      1.315876   160A      1.343799   161A      1.352808  
     162A      1.389230   163A      1.391853   164A      1.403223  
     165A      1.406808   166A      1.420810   167A      1.501389  
     168A      1.508903   169A      1.530244   170A      1.549370  
     171A      1.576649   172A      1.586654   173A      1.596129  
     174A      1.602534   175A      1.613343   176A      1.630322  
     177A      1.637524   178A      1.641550   179A      1.661640  
     180A      1.661896   181A      1.669333   182A      1.670003  
     183A      1.682998   184A      1.693323   185A      1.697578  
     186A      1.701914   187A      1.704627   188A      1.712145  
     189A      1.717998   190A      1.735648   191A      1.769475  
     192A      1.775717   193A      1.798207   194A      1.815414  
     195A      1.826207   196A      1.832426   197A      1.842734  
     198A      1.845002   199A      1.862045   200A      1.873527  
     201A      1.884300   202A      1.907064   203A      1.920675  
     204A      1.926566   205A      1.939628   206A      1.945218  
     207A      1.952083   208A      1.956282   209A      1.968556  
     210A      1.982883   211A      1.987484   212A      1.996249  
     213A      2.015217   214A      2.019601   215A      2.030705  
     216A      2.035623   217A      2.046543   218A      2.057149  
     219A      2.071993   220A      2.091802   221A      2.101422  
     222A      2.142683   223A      2.208923   224A      2.214502  
     225A      2.217724   226A      2.233517   227A      2.242042  
     228A      2.245236   229A      2.248991   230A      2.254248  
     231A      2.264330   232A      2.275514   233A      2.287165  
     234A      2.295033   235A      2.323473   236A      2.332024  
     237A      2.350628   238A      2.354344   239A      2.368110  
     240A      2.377707   241A      2.421867   242A      2.429547  
     243A      2.442878   244A      2.452357   245A      2.457234  
     246A      2.461405   247A      2.478978   248A      2.483034  
     249A      2.488374   250A      2.496185   251A      2.507777  
     252A      2.519484   253A      2.523769   254A      2.531295  
     255A      2.541390   256A      2.542281   257A      2.548056  
     258A      2.555263   259A      2.572460   260A      2.579141  
     261A      2.593834   262A      2.595985   263A      2.610370  
     264A      2.612904   265A      2.614084   266A      2.627162  
     267A      2.633962   268A      2.645062   269A      2.659113  
     270A      2.663817   271A      2.670330   272A      2.688444  
     273A      2.698163   274A      2.711345   275A      2.726200  
     276A      2.728990   277A      2.744895   278A      2.771695  
     279A      2.809790   280A      2.812249   281A      2.815162  
     282A      2.817930   283A      2.820550   284A      2.852700  
     285A      2.914243   286A      2.917118   287A      2.929152  
     288A      2.933797   289A      2.939149   290A      2.961543  
     291A      2.975980   292A      2.997169   293A      3.009254  
     294A      3.016310   295A      3.027498   296A      3.039090  
     297A      3.046837   298A      3.097658   299A      3.100525  
     300A      3.122370   301A      3.138955   302A      3.152646  
     303A      3.156064   304A      3.189061   305A      3.213066  
     306A      3.219183   307A      3.227398   308A      3.247057  
     309A      3.250737   310A      3.256730   311A      3.256902  
     312A      3.258573   313A      3.288596   314A      3.348410  
     315A      3.377047   316A      3.393150   317A      3.395629  
     318A      3.400920   319A      3.493508   320A      3.496764  
     321A      3.509997   322A      3.559095   323A      3.560128  
     324A      3.564103   325A      3.567895   326A      3.577674  
     327A      3.590525   328A      3.621231   329A      3.628298  
     330A      3.634062   331A      3.678971   332A      3.693574  
     333A      3.731766   334A      3.771764   335A      3.787989  
     336A      3.806472   337A      3.809326   338A      3.813336  
     339A      3.870156   340A      3.872798   341A      3.876060  
     342A      3.877834   343A      3.936977   344A      3.937787  
     345A      3.959936   346A      4.098474   347A      4.119154  
     348A      4.129308   349A      4.151741   350A      4.152371  
     351A      4.170990   352A      4.188553   353A      4.199074  
     354A      4.206507   355A      4.217135   356A      4.254686  
     357A      4.258481   358A      4.260834   359A      4.285043  
     360A      4.397041   361A      4.418067   362A      4.423688  
     363A      4.427367   364A      4.483360   365A      4.547631  
     366A      4.590850   367A      4.675111   368A      4.782327  
     369A      4.815222   370A      4.819829   371A      4.851466  
     372A      4.863326   373A      4.869183   374A      4.871487  
     375A      4.883891   376A      4.924636   377A      5.022885  
     378A      5.325906   379A      5.341222   380A      5.437575  
     381A      5.442337   382A      5.460341   383A      5.486416  
     384A      5.487373   385A      5.489518   386A      5.490846  
     387A      5.502051   388A      5.546948   389A      5.568226  
     390A      5.581521   391A      5.584013   392A      5.586353  
     393A      5.651144   394A      5.653611   395A      5.656558  
     396A      5.664698   397A      5.673866   398A      5.709908  
     399A      5.720559   400A      5.735851   401A      5.738286  
     402A      5.747033   403A      5.759175   404A      5.773715  
     405A      5.775618   406A      5.842748   407A      5.843491  
     408A      5.856132   409A      5.903474   410A      5.913088  
     411A      5.947311   412A      5.958505   413A      5.970032  
     414A      6.083177   415A      6.087740   416A      6.093359  
     417A      6.105986   418A      6.141737   419A      6.147383  
     420A      6.150374   421A      6.267883   422A      6.326854  
     423A      6.332701   424A      6.340062   425A      6.344587  
     426A      6.354014   427A      6.363820   428A      6.377665  
     429A      6.406179   430A      6.420803   431A      6.423984  
     432A      6.429216   433A      6.480538   434A      6.487613  
     435A      6.496849   436A      6.508348   437A      6.509777  
     438A      6.574211   439A      6.578273   440A      6.590459  
     441A      6.594419   442A      6.598867   443A      6.622703  
     444A      6.624481   445A      6.631954   446A      6.635952  
     447A      6.648156   448A      6.654709   449A      6.675116  
     450A      6.851261   451A      6.893147   452A      6.898220  
     453A      6.974198   454A      7.358752   455A      7.361016  
     456A      7.363230   457A      7.402578   458A      7.408166  
     459A      7.468952   460A      7.493948   461A      7.494415  
     462A      7.511418   463A      7.697183   464A      7.701291  
     465A      7.721631   466A      7.732214   467A      7.739236  
     468A      7.745018   469A      7.753700   470A      7.798952  
     471A      7.847187   472A      7.851739   473A      7.857112  
     474A      7.862407   475A      7.887586   476A      7.931131  
     477A      7.955500   478A      8.000444   479A      8.020359  
     480A      8.023569   481A      8.029178   482A      8.043177  
     483A      8.045071   484A      8.046488   485A      8.075444  
     486A      8.078638   487A      8.087292   488A      8.090261  
     489A      8.095063   490A      8.100594   491A      8.202993  
     492A      8.290190   493A      8.293700   494A      8.297818  
     495A      8.383157   496A      8.412490   497A      8.418113  
     498A      8.420791   499A      8.467501   500A      8.470090  
     501A      8.558506   502A      8.581431   503A      8.618664  
     504A      8.647440   505A      8.651290   506A      8.660254  
     507A      8.746081   508A      8.773829   509A      8.814157  
     510A      8.842339   511A      8.845146   512A      8.861044  
     513A      8.895073   514A      8.999660   515A      9.086279  
     516A      9.166446   517A      9.256499   518A      9.261854  
     519A      9.268062   520A      9.271511   521A      9.271999  
     522A      9.318121   523A      9.321313   524A      9.323180  
     525A      9.359614   526A      9.541072   527A      9.870813  
     528A      9.984212   529A     10.004063   530A     10.023972  
     531A     10.091479   532A     10.463783   533A     10.499390  
     534A     10.727448   535A     10.787968   536A     10.793865  
     537A     10.817896   538A     11.006927   539A     11.043818  
     540A     11.127673   541A     11.282106   542A     11.380008  
     543A     11.464087   544A     11.714108   545A     11.825364  
     546A     11.860558   547A     12.022724   548A     12.186154  
     549A     12.234129   550A     12.546056   551A     12.756187  
     552A     12.882936   553A     12.908044   554A     12.993450  
     555A     13.219519   556A     13.419183   557A     13.423024  
     558A     13.445798   559A     14.004733   560A     14.082064  
     561A     14.492158   562A     14.852754   563A     14.885845  
     564A     15.317940   565A     16.983890   566A     17.304683  
     567A     31.092672   568A     31.095458   569A     31.103167  
     570A     31.112468   571A     31.115573   572A     31.118460  
     573A     31.183354   574A     31.184524   575A     31.306827  
     576A     31.310111   577A     31.312911   578A     31.377467  
     579A     42.129582   580A     43.418763   581A     43.453213  
     582A     43.491677   583A     45.585253   584A     68.477485  
     585A    160.291963   586A    160.436959   587A    160.439350  
     588A    160.450215  

    Final Occupation by Irrep:
              A 
    DOCC [     5 ]

  @DF-RHF Final Energy:   -76.06584473576095

   => Energetics <=

    Nuclear Repulsion Energy =              9.1853246703628937
    One-Electron Energy =                -123.0524530604436109
    Two-Electron Energy =                  37.8012836543197750
    Total Energy =                        -76.0658447357609475

Computation Completed


Properties will be evaluated at   0.000000,   0.000000,   0.000000 [a0]

Properties computed using the SCF density matrix

  Nuclear Dipole Moment: [e a0]
     X:    33.4749      Y:    18.1428      Z:   -68.9157

  Electronic Dipole Moment: [e a0]
     X:   -34.0063      Y:   -18.2677      Z:    68.3965

  Dipole Moment: [e a0]
     X:    -0.5313      Y:    -0.1249      Z:    -0.5192     Total:     0.7533

  Dipole Moment: [D]
     X:    -1.3505      Y:    -0.3174      Z:    -1.3197     Total:     1.9148


*** tstop() called on node37.bme.utexas.edu at Tue Feb 22 19:45:10 2022
Module time:
	user time   =     174.29 seconds =       2.90 minutes
	system time =      50.00 seconds =       0.83 minutes
	total time  =         82 seconds =       1.37 minutes
Total time:
	user time   =     244.03 seconds =       4.07 minutes
	system time =      53.48 seconds =       0.89 minutes
	total time  =        110 seconds =       1.83 minutes

*** tstart() called on node37.bme.utexas.edu
*** at Tue Feb 22 19:45:10 2022


  //>>>>>>>>>>>>>>>>>>>>>>>>>>>>>>>>>>>//
  //               DFMP2               //
  //<<<<<<<<<<<<<<<<<<<<<<<<<<<<<<<<<<<//

   => Loading Basis Set <=

    Name: (AUG-CC-PVQZ AUX)
    Role: RIFIT
    Keyword: DF_BASIS_MP2
    atoms 1-4 entry CL         line   914 file /home/bdw2292/miniconda3/envs/amoebamdpoltype/share/psi4/basis/aug-cc-pvqz-ri.gbs 
    atoms 5   entry C          line   184 file /home/bdw2292/miniconda3/envs/amoebamdpoltype/share/psi4/basis/aug-cc-pvqz-ri.gbs 
    atoms 6   entry O          line   332 file /home/bdw2292/miniconda3/envs/amoebamdpoltype/share/psi4/basis/aug-cc-pvqz-ri.gbs 
    atoms 7-8 entry H          line    30 file /home/bdw2292/miniconda3/envs/amoebamdpoltype/share/psi4/basis/aug-cc-pvqz-ri.gbs 

	 --------------------------------------------------------
	                          DF-MP2                         
	      2nd-Order Density-Fitted Moller-Plesset Theory     
	              RMP2 Wavefunction,   4 Threads             
	                                                         
	        Rob Parrish, Justin Turney, Andy Simmonett,      
	           Ed Hohenstein, and C. David Sherrill          
	 --------------------------------------------------------

   => Auxiliary Basis Set <=

  Basis Set: (AUG-CC-PVQZ AUX)
    Blend: AUG-CC-PVQZ-RI
    Number of shells: 288
    Number of basis function: 1272
    Number of Cartesian functions: 1756
    Spherical Harmonics?: true
    Max angular momentum: 5

	 --------------------------------------------------------
	                 NBF =   588, NAUX =  1272
	 --------------------------------------------------------
	   CLASS    FOCC     OCC    AOCC    AVIR     VIR    FVIR
	   PAIRS       1       5       4     583     583       0
	 --------------------------------------------------------

	-----------------------------------------------------------
	 ==================> DF-MP2 Energies <==================== 
	-----------------------------------------------------------
	 Reference Energy          =     -76.0658447357609475 [Eh]
	 Singles Energy            =      -0.0000000000000000 [Eh]
	 Same-Spin Energy          =      -0.0671615298390050 [Eh]
	 Opposite-Spin Energy      =      -0.2185263678719599 [Eh]
	 Correlation Energy        =      -0.2856878977109649 [Eh]
	 Total Energy              =     -76.3515326334719191 [Eh]
	-----------------------------------------------------------
	 ================> DF-SCS-MP2 Energies <================== 
	-----------------------------------------------------------
	 SCS Same-Spin Scale       =       0.3333333333333333 [-]
	 SCS Opposite-Spin Scale   =       1.2000000000000000 [-]
	 SCS Same-Spin Energy      =      -0.0223871766130017 [Eh]
	 SCS Opposite-Spin Energy  =      -0.2622316414463519 [Eh]
	 SCS Correlation Energy    =      -0.2846188180593535 [Eh]
	 SCS Total Energy          =     -76.3504635538203047 [Eh]
	-----------------------------------------------------------


*** tstop() called on node37.bme.utexas.edu at Tue Feb 22 19:45:29 2022
Module time:
	user time   =      55.04 seconds =       0.92 minutes
	system time =       3.43 seconds =       0.06 minutes
	total time  =         19 seconds =       0.32 minutes
Total time:
	user time   =     299.07 seconds =       4.98 minutes
	system time =      56.91 seconds =       0.95 minutes
	total time  =        129 seconds =       2.15 minutes

  //>>>>>>>>>>>>>>>>>>>>>>>>>>>>>>>>>>>//
  //  CBS Results: mp2/aug-cc-pV[TQ]Z  //
  //<<<<<<<<<<<<<<<<<<<<<<<<<<<<<<<<<<<//


   ==> HF <==

   HI-zeta (4) Energy:               -76.065844735761


   ==> Helgaker 2-point correlated extrapolation for method: MP2 <==

   LO-zeta (3) Energy:               -76.328562605975
   HI-zeta (4) Energy:               -76.351532633472
   Alpha (exponent) Value:             3.000000000000
   Extrapolated Energy:              -76.368294545429

   @Extrapolated MP2/(T,Q):          -76.368294545429



   ==> Helgaker 2-point correlated extrapolation for method: HF <==

   LO-zeta (3) Energy:               -76.060460360209
   HI-zeta (4) Energy:               -76.065844735761
   Alpha (exponent) Value:             3.000000000000
   Extrapolated Energy:              -76.069773874677

   @Extrapolated HF/(T,Q):           -76.069773874677


   ==> Components <==

  ---------------------------------------------------------------------------------------------------------
                          Method / Basis                      Rqd      Energy [Eh]   Variable
  ---------------------------------------------------------------------------------------------------------
                              hf / aug-cc-pvtz                  *     -76.06046036   HF TOTAL ENERGY
                             mp2 / aug-cc-pvtz                  *     -76.32856261   MP2 TOTAL ENERGY
                              hf / aug-cc-pvqz                  *     -76.06584474   HF TOTAL ENERGY
                             mp2 / aug-cc-pvqz                  *     -76.35153263   MP2 TOTAL ENERGY
  ---------------------------------------------------------------------------------------------------------

   ==> Stages <==

  ---------------------------------------------------------------------------------------------------------
      Stage               Method / Basis                       Wt      Energy [Eh]   Scheme
  ---------------------------------------------------------------------------------------------------------
        scf                   hf / aug-cc-pvqz                  1     -76.06584474   xtpl_highest_1
       corl                  mp2 / aug-cc-pv[tq]z               1     -76.36829455   corl_xtpl_helgaker_2
       corl                   hf / aug-cc-pv[tq]z              -1     -76.06977387   corl_xtpl_helgaker_2
  ---------------------------------------------------------------------------------------------------------

   ==> CBS <==

  ---------------------------------------------------------------------------------------------------------
      Stage               Method / Basis                               Energy [Eh]   Scheme
  ---------------------------------------------------------------------------------------------------------
        scf                   hf / aug-cc-pvqz                        -76.06584474   xtpl_highest_1
[...]
     139A      0.730649   140A      0.739356   141A      0.740889  
     142A      0.747857   143A      0.767783   144A      0.778549  
     145A      0.792004   146A      0.793669   147A      0.802386  
     148A      0.806065   149A      0.811784   150A      0.815635  
     151A      0.824061   152A      0.835047   153A      0.851593  
     154A      0.862443   155A      0.872959   156A      0.881662  
     157A      0.884443   158A      0.894242   159A      0.903415  
     160A      0.917153   161A      0.926378   162A      0.942876  
     163A      0.958081   164A      0.963159   165A      0.974121  
     166A      0.990648   167A      1.011167   168A      1.036561  
     169A      1.043344   170A      1.045328   171A      1.078094  
     172A      1.091918   173A      1.100301   174A      1.103693  
     175A      1.110443   176A      1.111545   177A      1.124740  
     178A      1.131188   179A      1.157131   180A      1.159113  
     181A      1.163809   182A      1.177041   183A      1.179050  
     184A      1.181790   185A      1.189314   186A      1.191689  
     187A      1.199288   188A      1.203333   189A      1.207343  
     190A      1.215292   191A      1.216326   192A      1.245739  
     193A      1.250663   194A      1.253013   195A      1.266801  
     196A      1.274555   197A      1.283912   198A      1.298263  
     199A      1.304022   200A      1.315857   201A      1.327697  
     202A      1.348064   203A      1.382702   204A      1.400870  
     205A      1.431448   206A      1.435825   207A      1.449677  
     208A      1.456289   209A      1.462958   210A      1.488596  
     211A      1.514291   212A      1.529579   213A      1.542925  
     214A      1.575624   215A      1.595054   216A      1.625362  
     217A      1.641293   218A      1.641821   219A      1.656770  
     220A      1.659649   221A      1.682187   222A      1.687913  
     223A      1.695060   224A      1.713335   225A      1.724366  
     226A      1.741305   227A      1.757335   228A      1.761659  
     229A      1.770832   230A      1.772678   231A      1.775714  
     232A      1.781700   233A      1.782769   234A      1.790235  
     235A      1.791029   236A      1.799228   237A      1.806216  
     238A      1.818328   239A      1.822126   240A      1.827500  
     241A      1.835442   242A      1.839974   243A      1.848730  
     244A      1.850616   245A      1.866964   246A      1.883675  
     247A      1.886900   248A      1.902099   249A      1.907492  
     250A      1.911854   251A      1.928863   252A      1.935786  
     253A      1.938669   254A      1.942057   255A      1.952302  
     256A      1.963467   257A      1.974150   258A      1.984316  
     259A      1.989683   260A      2.003958   261A      2.024320  
     262A      2.025915   263A      2.035375   264A      2.047128  
     265A      2.050399   266A      2.055648   267A      2.062281  
     268A      2.073302   269A      2.082915   270A      2.098768  
     271A      2.101198   272A      2.102150   273A      2.108422  
     274A      2.120010   275A      2.127306   276A      2.129420  
     277A      2.134631   278A      2.142056   279A      2.160702  
     280A      2.163904   281A      2.192092   282A      2.208845  
     283A      2.216168   284A      2.226795   285A      2.230519  
     286A      2.231095   287A      2.235876   288A      2.238411  
     289A      2.249834   290A      2.254922   291A      2.263885  
     292A      2.270153   293A      2.276252   294A      2.281704  
     295A      2.282857   296A      2.300219   297A      2.303964  
     298A      2.313923   299A      2.324972   300A      2.329567  
     301A      2.333740   302A      2.352683   303A      2.361561  
     304A      2.391039   305A      2.396491   306A      2.413787  
     307A      2.470372   308A      2.474346   309A      2.478030  
     310A      2.485289   311A      2.499254   312A      2.508745  
     313A      2.511786   314A      2.528752   315A      2.532350  
     316A      2.534752   317A      2.542104   318A      2.549921  
     319A      2.566293   320A      2.567702   321A      2.606535  
     322A      2.648881   323A      2.652303   324A      2.656662  
     325A      2.659924   326A      2.667008   327A      2.676660  
     328A      2.685469   329A      2.695490   330A      2.808823  
     331A      2.813295   332A      2.850115   333A      2.875629  
     334A      2.889782   335A      2.905323   336A      2.906802  
     337A      2.930161   338A      2.969493   339A      2.970548  
     340A      2.971610   341A      2.976989   342A      2.984782  
     343A      3.003737   344A      3.043219   345A      3.092941  
     346A      3.096731   347A      3.141093   348A      3.235867  
     349A      3.239704   350A      3.240483   351A      3.244415  
     352A      3.245799   353A      3.251051   354A      3.286166  
     355A      3.345020   356A      3.362399   357A      3.410539  
     358A      3.412327   359A      3.436938   360A      3.439347  
     361A      3.458993   362A      3.460027   363A      3.471345  
     364A      3.524789   365A      3.527144   366A      3.537009  
     367A      3.570484   368A      3.576041   369A      3.594724  
     370A      3.598037   371A      3.602196   372A      3.675495  
     373A      3.688528   374A      3.731341   375A      3.737654  
     376A      3.771637   377A      3.793361   378A      3.953500  
     379A      3.977297   380A      3.979818   381A      3.983690  
     382A      4.106864   383A      4.171400   384A      4.189571  
     385A      4.197131   386A      4.208543   387A      4.244055  
     388A      4.282116   389A      4.365408   390A      4.374461  
     391A      4.394873   392A      4.453284   393A      4.459188  
     394A      4.468911   395A      4.475469   396A      4.484279  
     397A      4.487308   398A      4.500228   399A      4.504527  
     400A      4.542363   401A      4.590972   402A      4.622414  
     403A      4.623061   404A      4.631850   405A      4.670087  
     406A      4.689061   407A      4.693169   408A      4.701364  
     409A      4.706969   410A      4.709926   411A      4.715701  
     412A      4.722374   413A      4.728334   414A      4.742048  
     415A      4.746280   416A      4.750166   417A      4.753326  
     418A      4.760558   419A      4.764405   420A      4.774601  
     421A      4.777303   422A      4.782555   423A      4.785277  
     424A      4.787794   425A      4.789805   426A      4.793219  
     427A      4.799218   428A      4.812151   429A      4.819162  
     430A      4.834580   431A      4.836856   432A      4.842661  
     433A      4.851983   434A      4.859444   435A      4.863027  
     436A      4.865075   437A      4.869868   438A      4.872707  
     439A      4.879317   440A      4.883920   441A      4.891073  
     442A      4.894686   443A      4.904424   444A      4.912368  
     445A      4.922210   446A      4.938377   447A      4.950697  
     448A      4.952529   449A      4.955321   450A      4.960238  
     451A      4.966430   452A      4.978005   453A      4.981073  
     454A      4.988220   455A      4.994403   456A      5.008729  
     457A      5.032259   458A      5.053706   459A      5.057608  
     460A      5.061554   461A      5.076095   462A      5.097039  
     463A      5.102498   464A      5.119791   465A      5.175986  
     466A      5.182560   467A      5.289793   468A      5.295120  
     469A      5.296202   470A      5.321476   471A      5.342782  
     472A      5.359811   473A      5.363234   474A      5.374460  
     475A      5.379132   476A      5.424121   477A      5.426570  
     478A      5.455035   479A      5.457901   480A      5.461319  
     481A      5.553513   482A      5.576122   483A      5.608014  
     484A      5.611960   485A      5.619499   486A      5.811240  
     487A      5.906067   488A      5.919400   489A      6.101970  
     490A      6.274381   491A      6.609033   492A      6.656624  
     493A      6.658373   494A      6.678117   495A      6.687294  
     496A      6.689146   497A      6.689987   498A      6.765924  
     499A      6.767578   500A      6.827583   501A      6.831099  
     502A      6.846327   503A      6.850516   504A      6.870808  
     505A      6.872135   506A      6.889096   507A      6.900840  
     508A      6.917438   509A      6.974355   510A      7.114359  
     511A      7.114714   512A      7.208375   513A      7.210899  
     514A      7.231437   515A      7.286895   516A      7.288825  
     517A      7.306442   518A      7.344651   519A      7.346111  
     520A      7.551604   521A      7.729349   522A      7.747728  
     523A      7.749372   524A      7.755590   525A      7.800372  
     526A      7.829240   527A      7.832288   528A      7.834997  
     529A      7.849273   530A      7.854656   531A      7.889264  
     532A      7.933299   533A      8.002939   534A      8.030803  
     535A      8.204324   536A      8.386892   537A      8.519076  
     538A      8.525864   539A      8.538151   540A      8.572057  
     541A      8.620114   542A      8.724071   543A      8.750620  
     544A      8.780676   545A      8.817246   546A      8.895905  
     547A      9.000712   548A      9.087918   549A      9.167786  
     550A      9.542303   551A      9.872401   552A      9.988947  
     553A     10.005304   554A     10.026646   555A     10.464952  
     556A     10.500759   557A     10.730161   558A     11.007869  
     559A     11.045289   560A     11.128647   561A     11.283482  
     562A     11.381556   563A     11.465650   564A     11.715663  
     565A     11.826799   566A     11.861993   567A     12.024333  
     568A     12.187776   569A     12.235774   570A     12.547700  
     571A     12.757806   572A     12.884785   573A     12.909721  
     574A     13.221339   575A     14.006423   576A     14.083029  
     577A     14.493855   578A     14.854462   579A     14.887534  
     580A     15.319571   581A     16.985410   582A     17.306044  
     583A     24.730667   584A     26.697851   585A     26.722869  
     586A     26.749363   587A     26.858461   588A     45.586263  

    Final Occupation by Irrep:
              A 
    DOCC [    42 ]

  @DF-RHF Final Energy: -1951.99952768061212

   => Energetics <=

    Nuclear Repulsion Energy =            530.9022740880760693
    One-Electron Energy =               -3755.2410782257265964
    Two-Electron Energy =                1272.3392764570385225
    Total Energy =                      -1951.9995276806121183

Computation Completed


Properties will be evaluated at   0.000000,   0.000000,   0.000000 [a0]

Properties computed using the SCF density matrix

  Nuclear Dipole Moment: [e a0]
     X:     3.5230      Y:     2.0865      Z:    -9.0023

  Electronic Dipole Moment: [e a0]
     X:    -3.9976      Y:    -2.1681      Z:     8.5186

  Dipole Moment: [e a0]
     X:    -0.4747      Y:    -0.0816      Z:    -0.4837     Total:     0.6826

  Dipole Moment: [D]
     X:    -1.2065      Y:    -0.2074      Z:    -1.2293     Total:     1.7349


*** tstop() called on node37.bme.utexas.edu at Tue Feb 22 19:50:05 2022
Module time:
	user time   =     207.39 seconds =       3.46 minutes
	system time =      37.43 seconds =       0.62 minutes
	total time  =         85 seconds =       1.42 minutes
Total time:
	user time   =    1031.47 seconds =      17.19 minutes
	system time =     151.13 seconds =       2.52 minutes
	total time  =        405 seconds =       6.75 minutes

*** tstart() called on node37.bme.utexas.edu
*** at Tue Feb 22 19:50:05 2022


  //>>>>>>>>>>>>>>>>>>>>>>>>>>>>>>>>>>>//
  //               DFMP2               //
  //<<<<<<<<<<<<<<<<<<<<<<<<<<<<<<<<<<<//

   => Loading Basis Set <=

    Name: (AUG-CC-PVQZ AUX)
    Role: RIFIT
    Keyword: DF_BASIS_MP2
    atoms 1-4 entry CL         line   914 file /home/bdw2292/miniconda3/envs/amoebamdpoltype/share/psi4/basis/aug-cc-pvqz-ri.gbs 
    atoms 5   entry C          line   184 file /home/bdw2292/miniconda3/envs/amoebamdpoltype/share/psi4/basis/aug-cc-pvqz-ri.gbs 
    atoms 6   entry O          line   332 file /home/bdw2292/miniconda3/envs/amoebamdpoltype/share/psi4/basis/aug-cc-pvqz-ri.gbs 
    atoms 7-8 entry H          line    30 file /home/bdw2292/miniconda3/envs/amoebamdpoltype/share/psi4/basis/aug-cc-pvqz-ri.gbs 

	 --------------------------------------------------------
	                          DF-MP2                         
	      2nd-Order Density-Fitted Moller-Plesset Theory     
	              RMP2 Wavefunction,   4 Threads             
	                                                         
	        Rob Parrish, Justin Turney, Andy Simmonett,      
	           Ed Hohenstein, and C. David Sherrill          
	 --------------------------------------------------------

   => Auxiliary Basis Set <=

  Basis Set: (AUG-CC-PVQZ AUX)
    Blend: AUG-CC-PVQZ-RI
    Number of shells: 288
    Number of basis function: 1272
    Number of Cartesian functions: 1756
    Spherical Harmonics?: true
    Max angular momentum: 5

	 --------------------------------------------------------
	                 NBF =   588, NAUX =  1272
	 --------------------------------------------------------
	   CLASS    FOCC     OCC    AOCC    AVIR     VIR    FVIR
	   PAIRS      22      42      20     546     546       0
	 --------------------------------------------------------

	-----------------------------------------------------------
	 ==================> DF-MP2 Energies <==================== 
	-----------------------------------------------------------
	 Reference Energy          =   -1951.9995276806121183 [Eh]
	 Singles Energy            =      -0.0000000000000000 [Eh]
	 Same-Spin Energy          =      -0.3220806615496439 [Eh]
	 Opposite-Spin Energy      =      -0.9907802133270804 [Eh]
	 Correlation Energy        =      -1.3128608748767243 [Eh]
	 Total Energy              =   -1953.3123885554889512 [Eh]
	-----------------------------------------------------------
	 ================> DF-SCS-MP2 Energies <================== 
	-----------------------------------------------------------
	 SCS Same-Spin Scale       =       0.3333333333333333 [-]
	 SCS Opposite-Spin Scale   =       1.2000000000000000 [-]
	 SCS Same-Spin Energy      =      -0.1073602205165479 [Eh]
	 SCS Opposite-Spin Energy  =      -1.1889362559924965 [Eh]
	 SCS Correlation Energy    =      -1.2962964765090446 [Eh]
	 SCS Total Energy          =   -1953.2958241571211602 [Eh]
	-----------------------------------------------------------


*** tstop() called on node37.bme.utexas.edu at Tue Feb 22 19:50:30 2022
Module time:
	user time   =      73.11 seconds =       1.22 minutes
	system time =       3.62 seconds =       0.06 minutes
	total time  =         25 seconds =       0.42 minutes
Total time:
	user time   =    1104.58 seconds =      18.41 minutes
	system time =     154.75 seconds =       2.58 minutes
	total time  =        430 seconds =       7.17 minutes

  //>>>>>>>>>>>>>>>>>>>>>>>>>>>>>>>>>>>//
  //  CBS Results: mp2/aug-cc-pV[TQ]Z  //
  //<<<<<<<<<<<<<<<<<<<<<<<<<<<<<<<<<<<//


   ==> HF <==

   HI-zeta (4) Energy:               -1951.999527680612


   ==> Helgaker 2-point correlated extrapolation for method: MP2 <==

   LO-zeta (3) Energy:               -1953.196721634819
   HI-zeta (4) Energy:               -1953.312388555489
   Alpha (exponent) Value:             3.000000000000
   Extrapolated Energy:              -1953.396794146249

   @Extrapolated MP2/(T,Q):          -1953.396794146249



   ==> Helgaker 2-point correlated extrapolation for method: HF <==

   LO-zeta (3) Energy:               -1951.976864188032
   HI-zeta (4) Energy:               -1951.999527680612
   Alpha (exponent) Value:             3.000000000000
   Extrapolated Energy:              -1952.016065904927

   @Extrapolated HF/(T,Q):           -1952.016065904927


   ==> Components <==

  ---------------------------------------------------------------------------------------------------------
                          Method / Basis                      Rqd      Energy [Eh]   Variable
  ---------------------------------------------------------------------------------------------------------
                              hf / aug-cc-pvtz                  *   -1951.97686419   HF TOTAL ENERGY
                             mp2 / aug-cc-pvtz                  *   -1953.19672163   MP2 TOTAL ENERGY
                              hf / aug-cc-pvqz                  *   -1951.99952768   HF TOTAL ENERGY
                             mp2 / aug-cc-pvqz                  *   -1953.31238856   MP2 TOTAL ENERGY
  ---------------------------------------------------------------------------------------------------------

   ==> Stages <==

  ---------------------------------------------------------------------------------------------------------
      Stage               Method / Basis                       Wt      Energy [Eh]   Scheme
  ---------------------------------------------------------------------------------------------------------
        scf                   hf / aug-cc-pvqz                  1   -1951.99952768   xtpl_highest_1
       corl                  mp2 / aug-cc-pv[tq]z               1   -1953.39679415   corl_xtpl_helgaker_2
       corl                   hf / aug-cc-pv[tq]z              -1   -1952.01606590   corl_xtpl_helgaker_2
  ---------------------------------------------------------------------------------------------------------

   ==> CBS <==

  ---------------------------------------------------------------------------------------------------------
      Stage               Method / Basis                               Energy [Eh]   Scheme
  ---------------------------------------------------------------------------------------------------------
        scf                   hf / aug-cc-pvqz                      -1951.99952768   xtpl_highest_1
       corl                  mp2 / aug-cc-pv[tq]z                      -1.38072824   corl_xtpl_helgaker_2
      total                  CBS                                    -1953.38025592   
  ---------------------------------------------------------------------------------------------------------
   => Loading Basis Set <=

    Name: DEF2-SVP
    Role: ORBITAL
    Keyword: BASIS
    atoms 1-4 entry CL         line   356 file /home/bdw2292/miniconda3/envs/amoebamdpoltype/share/psi4/basis/def2-svp.gbs 
    atoms 5   entry C          line    90 file /home/bdw2292/miniconda3/envs/amoebamdpoltype/share/psi4/basis/def2-svp.gbs 
    atoms 6   entry O          line   130 file /home/bdw2292/miniconda3/envs/amoebamdpoltype/share/psi4/basis/def2-svp.gbs 
    atoms 7-8 entry H          line    15 file /home/bdw2292/miniconda3/envs/amoebamdpoltype/share/psi4/basis/def2-svp.gbs 


       N-Body: Complex Energy (fragments = (1, 2), basis = (1, 2): -1953.38025592193367)

   ==> N-Body: Counterpoise Corrected (CP) energies <==

   n-Body     Total Energy [Eh]       I.E. [kcal/mol]      Delta [kcal/mol]
        1    -1953.379179634557        0.000000000000        0.000000000000
        2    -1953.380200181291       -0.640402743891       -0.640402743891

   => Loading Basis Set <=

    Name: DEF2-SVP
    Role: ORBITAL
    Keyword: BASIS
    atoms 1-4 entry CL         line   356 file /home/bdw2292/miniconda3/envs/amoebamdpoltype/share/psi4/basis/def2-svp.gbs 
    atoms 5   entry C          line    90 file /home/bdw2292/miniconda3/envs/amoebamdpoltype/share/psi4/basis/def2-svp.gbs 
    atoms 6   entry O          line   130 file /home/bdw2292/miniconda3/envs/amoebamdpoltype/share/psi4/basis/def2-svp.gbs 
    atoms 7-8 entry H          line    15 file /home/bdw2292/miniconda3/envs/amoebamdpoltype/share/psi4/basis/def2-svp.gbs 

CP Energy =  -0.001021
    Psi4 stopped on: Tuesday, 22 February 2022 07:50PM
    Psi4 wall time for execution: 0:07:10.50

*** Psi4 exiting successfully. Buy a developer a beer!
