
    -----------------------------------------------------------------------
          Psi4: An Open-Source Ab Initio Electronic Structure Package
                               Psi4 1.3.2 release

                         Git: Rev {HEAD} ecbda83 


    R. M. Parrish, L. A. Burns, D. G. A. Smith, A. C. Simmonett,
    A. E. DePrince III, E. G. Hohenstein, U. Bozkaya, A. Yu. Sokolov,
    R. Di Remigio, R. M. Richard, J. F. Gonthier, A. M. James,
    H. R. McAlexander, A. Kumar, M. Saitow, X. Wang, B. P. Pritchard,
    P. Verma, H. F. Schaefer III, K. Patkowski, R. A. King, E. F. Valeev,
    F. A. Evangelista, J. M. Turney, T. D. Crawford, and C. D. Sherrill,
    J. Chem. Theory Comput. 13(7) pp 3185--3197 (2017).
    (doi: 10.1021/acs.jctc.7b00174)


                         Additional Contributions by
    P. Kraus, H. Kruse, M. H. Lechner, M. C. Schieber, R. A. Shaw,
    A. Alenaizan, R. Galvelis, Z. L. Glick, S. Lehtola, and J. P. Misiewicz

    -----------------------------------------------------------------------


    Psi4 started on: Tuesday, 22 February 2022 08:27PM

    Process ID: 5875
    Host:       node37.bme.utexas.edu
    PSIDATADIR: /home/bdw2292/miniconda3/envs/amoebamdpoltype/share/psi4
    Memory:     500.0 MiB
    Threads:    1
    
  ==> Input File <==

--------------------------------------------------------------------------
molecule { 
0 1
 Cl                 -1.5149002    -0.4329419     0.6007099
 Cl                 -1.6714920     1.8711931    -1.1316761
 Cl                 -2.5967290    -0.7042083    -2.0629299
 Cl                  0.2287502    -0.2297564    -1.6989855
  C                 -1.3875751     0.1256205    -1.0727028
--
0 1
 Cl                  0.3293079    -1.4048392     2.9399803
 Cl                  1.9047528     0.1080314     1.0451444
 Cl                  1.1160758    -2.6065760     0.4289413
 Cl                  3.0920031    -2.1031714     2.4745173
  C                  1.6087340    -1.5009851     1.7203189
}
memory 15GB
set_num_threads(4)
psi4_io.set_default_path("/scratch/bdw2292/Psi4-CCl4")
set maxiter 500
set freeze_core True
set PROPERTIES_ORIGIN ["COM"]
e_dim= energy('mp2/aug-cc-pV[TQ]Z',bsse_type='cp')

psi4.print_out('CP Energy = %10.6f' % (e_dim))
clean()
--------------------------------------------------------------------------

  Memory set to  13.970 GiB by Python driver.
  Threads set to 4 by Python driver.


   ===> N-Body Interaction Abacus <===
        BSSE Treatment:                     cp
        Number of 1-body computations:     4
        Number of 2-body computations:     1

   ==> N-Body: Now computing 1-body complexes <==


       N-Body: Computing complex (1/4) with fragments (2,) in the basis of fragments (2,).


  //>>>>>>>>>>>>>>>>>>>>>>>>>>>>>>>>>>>//
  //   CBS Setup: mp2/aug-cc-pV[TQ]Z   //
  //<<<<<<<<<<<<<<<<<<<<<<<<<<<<<<<<<<<//

    Naive listing of computations required.
             hf / aug-cc-pvqz              for  HF TOTAL ENERGY
            mp2 / aug-cc-pvtz              for  MP2 TOTAL ENERGY
            mp2 / aug-cc-pvqz              for  MP2 TOTAL ENERGY
             hf / aug-cc-pvtz              for  HF TOTAL ENERGY
             hf / aug-cc-pvqz              for  HF TOTAL ENERGY

    Enlightened listing of computations required.
            mp2 / aug-cc-pvtz              for  MP2 TOTAL ENERGY
            mp2 / aug-cc-pvqz              for  MP2 TOTAL ENERGY

    Full listing of computations to be obtained (required and bonus).
             hf / aug-cc-pvtz              for  HF TOTAL ENERGY
            mp2 / aug-cc-pvtz              for  MP2 TOTAL ENERGY
             hf / aug-cc-pvqz              for  HF TOTAL ENERGY
            mp2 / aug-cc-pvqz              for  MP2 TOTAL ENERGY

  //>>>>>>>>>>>>>>>>>>>>>>>>>>>>>>>>>>>>//
  // CBS Computation: MP2 / AUG-CC-PVTZ //
  //<<<<<<<<<<<<<<<<<<<<<<<<<<<<<<<<<<<<//

    SCF Algorithm Type (re)set to DF.

*** tstart() called on node37.bme.utexas.edu
*** at Tue Feb 22 20:27:47 2022

   => Loading Basis Set <=

    Name: AUG-CC-PVTZ
    Role: ORBITAL
    Keyword: BASIS
    atoms 1-4 entry CL         line   984 file /home/bdw2292/miniconda3/envs/amoebamdpoltype/share/psi4/basis/aug-cc-pvtz.gbs 
    atoms 5   entry C          line   235 file /home/bdw2292/miniconda3/envs/amoebamdpoltype/share/psi4/basis/aug-cc-pvtz.gbs 


         ---------------------------------------------------------
                                   SCF
               by Justin Turney, Rob Parrish, Andy Simmonett
                          and Daniel G. A. Smith
                              RHF Reference
                        4 Threads,  14305 MiB Core
         ---------------------------------------------------------

  ==> Geometry <==

    Molecular point group: c1
    Full point group: C1

    Geometry (in Angstrom), charge = 0, multiplicity = 1:

       Center              X                  Y                   Z               Mass       
    ------------   -----------------  -----------------  -----------------  -----------------
         CL           0.218367768126    -0.717063615441     2.615569313780    34.968852682000
         CL           1.793812668126     0.795806984559     0.720733413780    34.968852682000
         CL           1.005135668126    -1.918800415441     0.104530313780    34.968852682000
         CL           2.981062968126    -1.415395815441     2.150106313780    34.968852682000
         C            1.497793868126    -0.813209515441     1.395907913780    12.000000000000

  Running in c1 symmetry.

  Rotational constants: A =      0.05763  B =      0.01636  C =      0.01635 [cm^-1]
  Rotational constants: A =   1727.70140  B =    490.42456  C =    490.30075 [MHz]
  Nuclear repulsion =  439.464147831905620

  Charge       = 0
  Multiplicity = 1
  Electrons    = 74
  Nalpha       = 37
  Nbeta        = 37

  ==> Algorithm <==

  SCF Algorithm Type is DF.
  DIIS enabled.
  MOM disabled.
  Fractional occupation disabled.
  Guess Type is SAD.
  Energy threshold   = 1.00e-08
  Density threshold  = 1.00e-08
  Integral threshold = 0.00e+00

  ==> Primary Basis <==

  Basis Set: AUG-CC-PVTZ
    Blend: AUG-CC-PVTZ
    Number of shells: 78
    Number of basis function: 246
    Number of Cartesian functions: 291
    Spherical Harmonics?: true
    Max angular momentum: 3

   => Loading Basis Set <=

    Name: (AUG-CC-PVTZ AUX)
    Role: JKFIT
    Keyword: DF_BASIS_SCF
    atoms 1-4 entry CL         line   816 file /home/bdw2292/miniconda3/envs/amoebamdpoltype/share/psi4/basis/aug-cc-pvtz-jkfit.gbs 
    atoms 5   entry C          line   162 file /home/bdw2292/miniconda3/envs/amoebamdpoltype/share/psi4/basis/aug-cc-pvtz-jkfit.gbs 

  ==> Pre-Iterations <==

   -------------------------------------------------------
    Irrep   Nso     Nmo     Nalpha   Nbeta   Ndocc  Nsocc
   -------------------------------------------------------
     A        246     246       0       0       0       0
   -------------------------------------------------------
    Total     246     246      37      37      37       0
   -------------------------------------------------------

  ==> Integral Setup <==

  DFHelper Memory: AOs need 0.328 GiB; user supplied 10.477 GiB. Using in-core AOs.

  ==> MemDFJK: Density-Fitted J/K Matrices <==

    J tasked:                   Yes
    K tasked:                   Yes
    wK tasked:                   No
    OpenMP threads:               4
    Memory [MiB]:             10728
    Algorithm:                 Core
    Schwarz Cutoff:           1E-12
    Mask sparsity (%):       0.0000
    Fitting Condition:        1E-10

   => Auxiliary Basis Set <=

  Basis Set: (AUG-CC-PVTZ AUX)
    Blend: AUG-CC-PVTZ-JKFIT
    Number of shells: 198
    Number of basis function: 688
    Number of Cartesian functions: 851
    Spherical Harmonics?: true
    Max angular momentum: 4

  Minimum eigenvalue in the overlap matrix is 8.0653703592E-05.
  Using Symmetric Orthogonalization.

  SCF Guess: Superposition of Atomic Densities via on-the-fly atomic UHF.

  ==> Iterations <==

                           Total Energy        Delta E     RMS |[F,P]|

   @DF-RHF iter SAD: -1875.94739064351415   -1.87595e+03   0.00000e+00 
   @DF-RHF iter   1: -1875.79715759777628    1.50233e-01   1.87152e-03 DIIS
   @DF-RHF iter   2: -1875.83576533625637   -3.86077e-02   1.72633e-03 DIIS
   @DF-RHF iter   3: -1875.91353992304289   -7.77746e-02   1.84940e-04 DIIS
   @DF-RHF iter   4: -1875.91602064311246   -2.48072e-03   6.47784e-05 DIIS
   @DF-RHF iter   5: -1875.91635362275315   -3.32980e-04   1.31615e-05 DIIS
   @DF-RHF iter   6: -1875.91636982780915   -1.62051e-05   2.18486e-06 DIIS
   @DF-RHF iter   7: -1875.91637003753408   -2.09725e-07   2.46483e-07 DIIS
   @DF-RHF iter   8: -1875.91637004192648   -4.39240e-09   5.71602e-08 DIIS
   @DF-RHF iter   9: -1875.91637004214044   -2.13959e-10   1.87947e-08 DIIS
   @DF-RHF iter  10: -1875.91637004215954   -1.90994e-11   4.96382e-09 DIIS
  Energy and wave function converged.


  ==> Post-Iterations <==

    Orbital Energies [Eh]
    ---------------------

    Doubly Occupied:                                                      

       1A   -104.878877     2A   -104.878829     3A   -104.878715  
       4A   -104.878430     5A    -11.499720     6A    -10.603289  
       7A    -10.603245     8A    -10.603132     9A    -10.602885  
      10A     -8.070056    11A     -8.070013    12A     -8.069900  
      13A     -8.069652    14A     -8.067767    15A     -8.067767  
      16A     -8.067724    17A     -8.067724    18A     -8.067612  
      19A     -8.067612    20A     -8.067363    21A     -8.067363  
      22A     -1.282453    23A     -1.128490    24A     -1.128321  
      25A     -1.128008    26A     -0.834212    27A     -0.658324  
      28A     -0.658219    29A     -0.657991    30A     -0.532336  
      31A     -0.532274    32A     -0.489353    33A     -0.489212  
      34A     -0.488881    35A     -0.461024    36A     -0.460755  
      37A     -0.460677  

    Virtual:                                                              

      38A      0.047763    39A      0.070249    40A      0.070269  
      41A      0.070317    42A      0.086441    43A      0.107621  
      44A      0.107650    45A      0.107683    46A      0.120442  
      47A      0.120448    48A      0.161707    49A      0.161747  
      50A      0.161761    51A      0.181007    52A      0.181190  
      53A      0.181307    54A      0.192729    55A      0.192964  
      56A      0.193031    57A      0.211263    58A      0.260136  
      59A      0.260328    60A      0.260379    61A      0.267966  
      62A      0.318119    63A      0.318209    64A      0.318592  
      65A      0.351898    66A      0.351934    67A      0.393880  
      68A      0.394037    69A      0.394063    70A      0.414689  
      71A      0.414723    72A      0.430223    73A      0.430429  
      74A      0.430518    75A      0.498936    76A      0.499076  
      77A      0.499124    78A      0.518118    79A      0.518132  
      80A      0.518204    81A      0.521142    82A      0.523858  
      83A      0.523921    84A      0.572406    85A      0.572441  
      86A      0.572453    87A      0.734350    88A      0.745338  
      89A      0.745663    90A      0.745725    91A      0.785950  
      92A      0.786093    93A      0.786139    94A      0.817415  
      95A      0.817470    96A      0.819988    97A      0.820418  
      98A      0.820465    99A      0.830404   100A      0.831042  
     101A      0.831187   102A      0.845040   103A      0.872120  
     104A      0.872133   105A      0.872175   106A      0.904719  
     107A      0.904788   108A      0.904816   109A      0.940050  
     110A      0.940082   111A      0.957224   112A      0.957482  
     113A      0.957568   114A      1.048943   115A      1.050568  
     116A      1.051147   117A      1.051392   118A      1.081613  
     119A      1.081634   120A      1.126670   121A      1.126825  
     122A      1.127342   123A      1.128619   124A      1.161675  
     125A      1.161854   126A      1.161958   127A      1.210545  
     128A      1.211023   129A      1.211178   130A      1.314792  
     131A      1.314912   132A      1.315445   133A      1.322735  
     134A      1.322955   135A      1.342700   136A      1.511477  
     137A      1.511772   138A      1.518115   139A      1.518648  
     140A      1.518747   141A      1.564648   142A      1.564719  
     143A      1.564751   144A      1.661067   145A      1.661607  
     146A      1.663447   147A      1.673997   148A      1.746148  
     149A      1.746548   150A      1.746666   151A      1.759356  
     152A      1.759672   153A      1.759854   154A      1.874151  
     155A      1.874486   156A      1.875088   157A      1.875487  
     158A      1.888308   159A      1.889185   160A      1.889375  
     161A      1.906617   162A      1.906690   163A      1.992682  
     164A      1.992760   165A      1.993249   166A      2.274255  
     167A      2.500402   168A      2.500466   169A      2.579336  
     170A      2.580106   171A      2.580345   172A      2.586885  
     173A      2.586992   174A      2.587055   175A      2.611730  
     176A      2.611862   177A      2.613830   178A      2.613946  
     179A      2.614024   180A      2.685616   181A      2.697456  
     182A      2.697515   183A      2.697532   184A      2.717455  
     185A      2.719239   186A      2.719626   187A      2.904655  
     188A      2.904770   189A      2.905274   190A      2.984936  
     191A      2.985050   192A      2.985100   193A      3.029587  
     194A      3.035086   195A      3.035200   196A      3.073288  
     197A      3.073536   198A      3.074219   199A      3.084515  
     200A      3.085511   201A      3.088584   202A      3.096577  
     203A      3.096664   204A      3.096705   205A      3.122713  
     206A      3.140368   207A      3.148256   208A      3.148567  
     209A      3.149762   210A      3.206935   211A      3.207281  
     212A      3.207491   213A      3.215292   214A      3.215316  
     215A      3.242959   216A      3.243143   217A      3.243197  
     218A      3.348346   219A      3.349182   220A      3.349473  
     221A      3.427750   222A      3.427979   223A      3.428366  
     224A      3.535393   225A      3.535643   226A      3.771370  
     227A      3.771546   228A      3.771811   229A      3.873732  
     230A      4.006600   231A      4.007113   232A      4.008256  
     233A      4.107461   234A      4.108015   235A      4.297633  
     236A      4.297733   237A      4.297875   238A      4.723834  
     239A      4.724203   240A      4.724445   241A      4.848036  
     242A      6.591877   243A      7.634913   244A      7.636341  
     245A      7.642480   246A     10.773355  

    Final Occupation by Irrep:
              A 
    DOCC [    37 ]

  @DF-RHF Final Energy: -1875.91637004215954

   => Energetics <=

    Nuclear Repulsion Energy =            439.4641478319056205
    One-Electron Energy =               -3467.4846228382184563
    Two-Electron Energy =                1152.1041049641535210
    Total Energy =                      -1875.9163700421595422

Computation Completed


Properties will be evaluated at   2.833555,  -1.537881,   2.641063 [a0]

Properties computed using the SCF density matrix

  Nuclear Dipole Moment: [e a0]
     X:    -0.0005      Y:     0.0002      Z:    -0.0005

  Electronic Dipole Moment: [e a0]
     X:    -0.0005      Y:     0.0003      Z:    -0.0012

  Dipole Moment: [e a0]
     X:    -0.0011      Y:     0.0005      Z:    -0.0017     Total:     0.0021

  Dipole Moment: [D]
     X:    -0.0027      Y:     0.0013      Z:    -0.0044     Total:     0.0053


*** tstop() called on node37.bme.utexas.edu at Tue Feb 22 20:27:52 2022
Module time:
	user time   =      16.96 seconds =       0.28 minutes
	system time =       1.43 seconds =       0.02 minutes
	total time  =          5 seconds =       0.08 minutes
Total time:
	user time   =      16.96 seconds =       0.28 minutes
	system time =       1.43 seconds =       0.02 minutes
	total time  =          5 seconds =       0.08 minutes

*** tstart() called on node37.bme.utexas.edu
*** at Tue Feb 22 20:27:52 2022


  //>>>>>>>>>>>>>>>>>>>>>>>>>>>>>>>>>>>//
  //               DFMP2               //
  //<<<<<<<<<<<<<<<<<<<<<<<<<<<<<<<<<<<//

   => Loading Basis Set <=

    Name: (AUG-CC-PVTZ AUX)
    Role: RIFIT
    Keyword: DF_BASIS_MP2
    atoms 1-4 entry CL         line   742 file /home/bdw2292/miniconda3/envs/amoebamdpoltype/share/psi4/basis/aug-cc-pvtz-ri.gbs 
    atoms 5   entry C          line   148 file /home/bdw2292/miniconda3/envs/amoebamdpoltype/share/psi4/basis/aug-cc-pvtz-ri.gbs 

	 --------------------------------------------------------
	                          DF-MP2                         
	      2nd-Order Density-Fitted Moller-Plesset Theory     
	              RMP2 Wavefunction,   4 Threads             
	                                                         
	        Rob Parrish, Justin Turney, Andy Simmonett,      
	           Ed Hohenstein, and C. David Sherrill          
	 --------------------------------------------------------

   => Auxiliary Basis Set <=

  Basis Set: (AUG-CC-PVTZ AUX)
    Blend: AUG-CC-PVTZ-RI
    Number of shells: 176
    Number of basis function: 694
    Number of Cartesian functions: 900
    Spherical Harmonics?: true
    Max angular momentum: 4

	 --------------------------------------------------------
	                 NBF =   246, NAUX =   694
	 --------------------------------------------------------
	   CLASS    FOCC     OCC    AOCC    AVIR     VIR    FVIR
	   PAIRS      21      37      16     209     209       0
	 --------------------------------------------------------

	-----------------------------------------------------------
	 ==================> DF-MP2 Energies <==================== 
	-----------------------------------------------------------
	 Reference Energy          =   -1875.9163700421595422 [Eh]
	 Singles Energy            =      -0.0000000000000000 [Eh]
	 Same-Spin Energy          =      -0.2463651752423048 [Eh]
	 Opposite-Spin Energy      =      -0.7042355724292739 [Eh]
	 Correlation Energy        =      -0.9506007476715788 [Eh]
	 Total Energy              =   -1876.8669707898311572 [Eh]
	-----------------------------------------------------------
	 ================> DF-SCS-MP2 Energies <================== 
	-----------------------------------------------------------
	 SCS Same-Spin Scale       =       0.3333333333333333 [-]
	 SCS Opposite-Spin Scale   =       1.2000000000000000 [-]
	 SCS Same-Spin Energy      =      -0.0821217250807683 [Eh]
	 SCS Opposite-Spin Energy  =      -0.8450826869151287 [Eh]
	 SCS Correlation Energy    =      -0.9272044119958970 [Eh]
	 SCS Total Energy          =   -1876.8435744541554868 [Eh]
	-----------------------------------------------------------


*** tstop() called on node37.bme.utexas.edu at Tue Feb 22 20:27:55 2022
Module time:
	user time   =       7.95 seconds =       0.13 minutes
	system time =       0.44 seconds =       0.01 minutes
	total time  =          3 seconds =       0.05 minutes
Total time:
	user time   =      24.91 seconds =       0.42 minutes
	system time =       1.87 seconds =       0.03 minutes
	total time  =          8 seconds =       0.13 minutes

  //>>>>>>>>>>>>>>>>>>>>>>>>>>>>>>>>>>>>//
  // CBS Computation: MP2 / AUG-CC-PVQZ //
  //<<<<<<<<<<<<<<<<<<<<<<<<<<<<<<<<<<<<//

    SCF Algorithm Type (re)set to DF.

*** tstart() called on node37.bme.utexas.edu
*** at Tue Feb 22 20:27:55 2022

   => Loading Basis Set <=

    Name: AUG-CC-PVQZ
    Role: ORBITAL
    Keyword: BASIS
    atoms 1-4 entry CL         line  1218 file /home/bdw2292/miniconda3/envs/amoebamdpoltype/share/psi4/basis/aug-cc-pvqz.gbs 
    atoms 5   entry C          line   299 file /home/bdw2292/miniconda3/envs/amoebamdpoltype/share/psi4/basis/aug-cc-pvqz.gbs 


         ---------------------------------------------------------
                                   SCF
               by Justin Turney, Rob Parrish, Andy Simmonett
                          and Daniel G. A. Smith
                              RHF Reference
                        4 Threads,  14305 MiB Core
         ---------------------------------------------------------

  ==> Geometry <==

    Molecular point group: c1
    Full point group: C1

    Geometry (in Angstrom), charge = 0, multiplicity = 1:

       Center              X                  Y                   Z               Mass       
    ------------   -----------------  -----------------  -----------------  -----------------
         CL           0.218367768126    -0.717063615441     2.615569313780    34.968852682000
         CL           1.793812668126     0.795806984559     0.720733413780    34.968852682000
         CL           1.005135668126    -1.918800415441     0.104530313780    34.968852682000
         CL           2.981062968126    -1.415395815441     2.150106313780    34.968852682000
         C            1.497793868126    -0.813209515441     1.395907913780    12.000000000000

  Running in c1 symmetry.

  Rotational constants: A =      0.05763  B =      0.01636  C =      0.01635 [cm^-1]
  Rotational constants: A =   1727.70140  B =    490.42456  C =    490.30075 [MHz]
  Nuclear repulsion =  439.464147831905620

  Charge       = 0
  Multiplicity = 1
  Electrons    = 74
  Nalpha       = 37
  Nbeta        = 37

  ==> Algorithm <==

  SCF Algorithm Type is DF.
  DIIS enabled.
  MOM disabled.
  Fractional occupation disabled.
  Guess Type is SAD.
  Energy threshold   = 1.00e-08
  Density threshold  = 1.00e-08
  Integral threshold = 0.00e+00

  ==> Primary Basis <==

  Basis Set: AUG-CC-PVQZ
    Blend: AUG-CC-PVQZ
    Number of shells: 108
    Number of basis function: 416
    Number of Cartesian functions: 541
    Spherical Harmonics?: true
    Max angular momentum: 4

   => Loading Basis Set <=

    Name: (AUG-CC-PVQZ AUX)
    Role: JKFIT
    Keyword: DF_BASIS_SCF
    atoms 1-4 entry CL         line   904 file /home/bdw2292/miniconda3/envs/amoebamdpoltype/share/psi4/basis/aug-cc-pvqz-jkfit.gbs 
    atoms 5   entry C          line   178 file /home/bdw2292/miniconda3/envs/amoebamdpoltype/share/psi4/basis/aug-cc-pvqz-jkfit.gbs 

  ==> Pre-Iterations <==

   -------------------------------------------------------
    Irrep   Nso     Nmo     Nalpha   Nbeta   Ndocc  Nsocc
   -------------------------------------------------------
     A        416     416       0       0       0       0
   -------------------------------------------------------
    Total     416     416      37      37      37       0
   -------------------------------------------------------

  ==> Integral Setup <==

  DFHelper Memory: AOs need 1.181 GiB; user supplied 10.477 GiB. Using in-core AOs.

  ==> MemDFJK: Density-Fitted J/K Matrices <==

    J tasked:                   Yes
    K tasked:                   Yes
    wK tasked:                   No
    OpenMP threads:               4
    Memory [MiB]:             10728
    Algorithm:                 Core
    Schwarz Cutoff:           1E-12
    Mask sparsity (%):       0.4253
    Fitting Condition:        1E-10

   => Auxiliary Basis Set <=

  Basis Set: (AUG-CC-PVQZ AUX)
    Blend: AUG-CC-PVQZ-JKFIT
    Number of shells: 218
    Number of basis function: 878
    Number of Cartesian functions: 1186
    Spherical Harmonics?: true
    Max angular momentum: 5

  Minimum eigenvalue in the overlap matrix is 1.3117249636E-05.
  Using Symmetric Orthogonalization.

  SCF Guess: Superposition of Atomic Densities via on-the-fly atomic UHF.

  ==> Iterations <==

                           Total Energy        Delta E     RMS |[F,P]|

   @DF-RHF iter SAD: -1875.95817397195401   -1.87596e+03   0.00000e+00 
   @DF-RHF iter   1: -1875.81433949855523    1.43834e-01   1.13073e-03 DIIS
   @DF-RHF iter   2: -1875.85328983402337   -3.89503e-02   1.03612e-03 DIIS
   @DF-RHF iter   3: -1875.93068907847464   -7.73992e-02   1.16246e-04 DIIS
   @DF-RHF iter   4: -1875.93324063281170   -2.55155e-03   4.23326e-05 DIIS
   @DF-RHF iter   5: -1875.93365689192296   -4.16259e-04   8.49140e-06 DIIS
   @DF-RHF iter   6: -1875.93367537570293   -1.84838e-05   1.39750e-06 DIIS
   @DF-RHF iter   7: -1875.93367561268815   -2.36985e-07   1.74839e-07 DIIS
   @DF-RHF iter   8: -1875.93367561867058   -5.98243e-09   4.11583e-08 DIIS
   @DF-RHF iter   9: -1875.93367561898799   -3.17414e-10   1.29808e-08 DIIS
   @DF-RHF iter  10: -1875.93367561901641   -2.84217e-11   3.78639e-09 DIIS
  Energy and wave function converged.


  ==> Post-Iterations <==

    Orbital Energies [Eh]
    ---------------------

    Doubly Occupied:                                                      

       1A   -104.876387     2A   -104.876339     3A   -104.876226  
       4A   -104.875942     5A    -11.496963     6A    -10.602042  
       7A    -10.601998     8A    -10.601886     9A    -10.601639  
      10A     -8.069013    11A     -8.068970    12A     -8.068857  
      13A     -8.068610    14A     -8.066917    15A     -8.066916  
      16A     -8.066874    17A     -8.066874    18A     -8.066762  
      19A     -8.066761    20A     -8.066514    21A     -8.066513  
      22A     -1.281360    23A     -1.127772    24A     -1.127603  
      25A     -1.127291    26A     -0.833865    27A     -0.658094  
      28A     -0.657989    29A     -0.657760    30A     -0.532041  
      31A     -0.531979    32A     -0.489044    33A     -0.488903  
      34A     -0.488572    35A     -0.460758    36A     -0.460489  
      37A     -0.460411  

    Virtual:                                                              

      38A      0.040100    39A      0.057973    40A      0.057990  
      41A      0.058028    42A      0.083893    43A      0.091776  
      44A      0.091793    45A      0.091802    46A      0.096212  
      47A      0.096216    48A      0.136296    49A      0.136317  
      50A      0.136327    51A      0.159605    52A      0.159944  
      53A      0.160104    54A      0.168416    55A      0.168436  
      56A      0.168512    57A      0.177043    58A      0.215151  
      59A      0.215277    60A      0.215307    61A      0.230039  
      62A      0.255418    63A      0.255459    64A      0.255696  
      65A      0.295646    66A      0.295665    67A      0.316619  
      68A      0.316661    69A      0.326469    70A      0.326923  
      71A      0.327055    72A      0.350595    73A      0.350658  
      74A      0.350695    75A      0.360033    76A      0.360196  
      77A      0.360731    78A      0.369654    79A      0.369665  
      80A      0.369684    81A      0.383450    82A      0.433240  
      83A      0.433265    84A      0.449852    85A      0.449866  
      86A      0.449882    87A      0.552149    88A      0.558629  
      89A      0.558786    90A      0.559288    91A      0.578705  
      92A      0.578725    93A      0.581224    94A      0.581341  
      95A      0.581362    96A      0.600131    97A      0.600538  
      98A      0.600635    99A      0.604219   100A      0.604495  
     101A      0.604557   102A      0.634642   103A      0.648008  
     104A      0.648829   105A      0.649094   106A      0.683654  
     107A      0.683688   108A      0.683747   109A      0.685659  
     110A      0.685677   111A      0.737666   112A      0.738162  
     113A      0.738283   114A      0.790587   115A      0.790594  
     116A      0.802190   117A      0.809766   118A      0.810059  
     119A      0.810175   120A      0.874573   121A      0.874636  
     122A      0.874727   123A      0.879177   124A      0.880612  
     125A      0.880657   126A      0.880733   127A      0.931849  
     128A      0.931906   129A      0.932106   130A      1.025739  
     131A      1.039017   132A      1.039056   133A      1.039132  
     134A      1.087835   135A      1.087849   136A      1.106361  
     137A      1.106484   138A      1.106743   139A      1.121361  
     140A      1.121366   141A      1.131993   142A      1.154646  
     143A      1.154796   144A      1.154837   145A      1.173952  
     146A      1.174089   147A      1.174597   148A      1.198049  
     149A      1.198139   150A      1.198186   151A      1.241177  
     152A      1.241238   153A      1.241286   154A      1.271693  
     155A      1.272252   156A      1.272378   157A      1.272740  
     158A      1.295604   159A      1.296095   160A      1.296226  
     161A      1.363771   162A      1.430311   163A      1.430358  
     164A      1.430434   165A      1.458287   166A      1.458422  
     167A      1.643856   168A      1.643977   169A      1.644520  
     170A      1.675378   171A      1.675381   172A      1.766597  
     173A      1.766693   174A      1.766854   175A      1.771913  
     176A      1.772065   177A      1.772512   178A      1.772949  
     179A      1.773102   180A      1.784384   181A      1.784469  
     182A      1.784526   183A      1.794838   184A      1.848821  
     185A      1.849259   186A      1.849375   187A      1.899765  
     188A      1.899784   189A      1.899802   190A      1.929278  
     191A      1.929459   192A      1.955084   193A      1.955570  
     194A      1.955653   195A      1.992724   196A      1.992746  
     197A      2.020243   198A      2.020637   199A      2.021806  
     200A      2.026633   201A      2.050332   202A      2.050580  
     203A      2.050629   204A      2.096634   205A      2.096945  
     206A      2.097019   207A      2.099330   208A      2.112693  
     209A      2.112918   210A      2.122171   211A      2.122320  
     212A      2.122368   213A      2.184658   214A      2.184842  
     215A      2.185548   216A      2.192057   217A      2.224916  
     218A      2.225857   219A      2.226105   220A      2.238901  
     221A      2.239164   222A      2.240094   223A      2.273003  
     224A      2.273087   225A      2.273123   226A      2.276568  
     227A      2.277145   228A      2.277294   229A      2.311824  
     230A      2.311899   231A      2.311981   232A      2.370653  
     233A      2.380004   234A      2.380042   235A      2.468157  
     236A      2.468546   237A      2.469393   238A      2.469709  
     239A      2.471380   240A      2.471582   241A      2.471622  
     242A      2.516714   243A      2.522709   244A      2.522811  
     245A      2.523479   246A      2.530884   247A      2.530923  
     248A      2.588433   249A      2.643813   250A      2.644129  
     251A      2.644282   252A      2.655010   253A      2.655304  
     254A      2.656759   255A      2.800575   256A      2.801726  
     257A      2.802163   258A      2.856570   259A      2.886845  
     260A      2.888799   261A      2.889247   262A      2.969188  
     263A      2.969264   264A      2.971583   265A      2.972493  
     266A      2.972700   267A      3.236629   268A      3.237350  
     269A      3.237785   270A      3.238095   271A      3.238846  
     272A      3.239808   273A      3.403851   274A      3.403929  
     275A      3.431100   276A      3.431208   277A      3.431869  
     278A      3.454615   279A      3.454788   280A      3.500276  
     281A      3.521079   282A      3.521324   283A      3.521441  
     284A      3.591126   285A      3.591370   286A      3.591881  
     287A      3.725200   288A      3.968781   289A      3.969464  
     290A      3.972013   291A      4.187373   292A      4.355169  
     293A      4.355309   294A      4.455352   295A      4.456596  
     296A      4.456969   297A      4.479140   298A      4.479174  
     299A      4.488509   300A      4.489288   301A      4.489432  
     302A      4.617770   303A      4.617833   304A      4.618001  
     305A      4.679432   306A      4.679572   307A      4.679935  
     308A      4.701564   309A      4.702151   310A      4.702305  
     311A      4.709705   312A      4.709969   313A      4.710119  
     314A      4.740773   315A      4.741407   316A      4.741641  
     317A      4.747728   318A      4.752591   319A      4.769455  
     320A      4.769578   321A      4.777227   322A      4.777774  
     323A      4.777927   324A      4.784416   325A      4.784493  
     326A      4.784639   327A      4.797508   328A      4.797713  
     329A      4.832116   330A      4.851115   331A      4.852016  
     332A      4.852322   333A      4.857687   334A      4.858286  
     335A      4.858463   336A      4.875547   337A      4.876159  
     338A      4.878277   339A      4.909862   340A      4.909898  
     341A      4.946837   342A      4.946879   343A      4.946964  
     344A      4.950959   345A      4.950989   346A      4.951131  
     347A      4.975784   348A      4.975906   349A      4.976139  
     350A      4.998948   351A      5.038941   352A      5.039593  
     353A      5.039724   354A      5.057770   355A      5.089404  
     356A      5.090333   357A      5.090552   358A      5.167403  
     359A      5.167490   360A      5.268192   361A      5.293271  
     362A      5.293546   363A      5.293911   364A      5.356258  
     365A      5.359659   366A      5.360516   367A      5.421335  
     368A      5.421401   369A      5.421915   370A      5.447315  
     371A      5.447628   372A      5.603016   373A      5.604423  
     374A      5.608971   375A      5.799103   376A      6.595678  
     377A      6.649088   378A      6.649469   379A      6.651149  
     380A      6.686464   381A      6.687448   382A      6.687632  
     383A      6.763722   384A      6.763885   385A      6.823467  
     386A      6.823643   387A      6.823909   388A      6.870060  
     389A      6.870334   390A      6.870594   391A      7.113378  
     392A      7.113413   393A      7.204268   394A      7.204589  
     395A      7.204778   396A      7.282128   397A      7.282527  
     398A      7.282782   399A      7.336274   400A      7.336338  
     401A      7.545834   402A      7.740933   403A      7.741416  
     404A      7.742724   405A      7.825855   406A      7.826460  
     407A      7.827622   408A      8.521096   409A      8.522384  
     410A      8.522519   411A      8.660301   412A     24.674380  
     413A     26.675107   414A     26.676221   415A     26.682895  
     416A     26.803219  

    Final Occupation by Irrep:
              A 
    DOCC [    37 ]

  @DF-RHF Final Energy: -1875.93367561901641

   => Energetics <=

    Nuclear Repulsion Energy =            439.4641478319056205
    One-Electron Energy =               -3467.5897798988189606
    Two-Electron Energy =                1152.1919564478971552
    Total Energy =                      -1875.9336756190164124

Computation Completed


Properties will be evaluated at   2.833555,  -1.537881,   2.641063 [a0]

Properties computed using the SCF density matrix

  Nuclear Dipole Moment: [e a0]
     X:    -0.0005      Y:     0.0002      Z:    -0.0005

  Electronic Dipole Moment: [e a0]
     X:    -0.0005      Y:     0.0003      Z:    -0.0012

  Dipole Moment: [e a0]
     X:    -0.0011      Y:     0.0005      Z:    -0.0017     Total:     0.0021

  Dipole Moment: [D]
     X:    -0.0027      Y:     0.0013      Z:    -0.0044     Total:     0.0053


*** tstop() called on node37.bme.utexas.edu at Tue Feb 22 20:28:10 2022
Module time:
	user time   =      51.62 seconds =       0.86 minutes
	system time =       2.83 seconds =       0.05 minutes
	total time  =         15 seconds =       0.25 minutes
Total time:
	user time   =      76.56 seconds =       1.28 minutes
	system time =       4.70 seconds =       0.08 minutes
	total time  =         23 seconds =       0.38 minutes

*** tstart() called on node37.bme.utexas.edu
*** at Tue Feb 22 20:28:10 2022


  //>>>>>>>>>>>>>>>>>>>>>>>>>>>>>>>>>>>//
  //               DFMP2               //
  //<<<<<<<<<<<<<<<<<<<<<<<<<<<<<<<<<<<//

   => Loading Basis Set <=

    Name: (AUG-CC-PVQZ AUX)
    Role: RIFIT
    Keyword: DF_BASIS_MP2
    atoms 1-4 entry CL         line   914 file /home/bdw2292/miniconda3/envs/amoebamdpoltype/share/psi4/basis/aug-cc-pvqz-ri.gbs 
    atoms 5   entry C          line   184 file /home/bdw2292/miniconda3/envs/amoebamdpoltype/share/psi4/basis/aug-cc-pvqz-ri.gbs 

	 --------------------------------------------------------
	                          DF-MP2                         
	      2nd-Order Density-Fitted Moller-Plesset Theory     
	              RMP2 Wavefunction,   4 Threads             
	                                                         
	        Rob Parrish, Justin Turney, Andy Simmonett,      
	           Ed Hohenstein, and C. David Sherrill          
	 --------------------------------------------------------

   => Auxiliary Basis Set <=

  Basis Set: (AUG-CC-PVQZ AUX)
    Blend: AUG-CC-PVQZ-RI
    Number of shells: 212
    Number of basis function: 944
    Number of Cartesian functions: 1309
    Spherical Harmonics?: true
    Max angular momentum: 5

	 --------------------------------------------------------
	                 NBF =   416, NAUX =   944
	 --------------------------------------------------------
	   CLASS    FOCC     OCC    AOCC    AVIR     VIR    FVIR
	   PAIRS      21      37      16     379     379       0
	 --------------------------------------------------------

	-----------------------------------------------------------
	 ==================> DF-MP2 Energies <==================== 
	-----------------------------------------------------------
	 Reference Energy          =   -1875.9336756190164124 [Eh]
	 Singles Energy            =      -0.0000000000000000 [Eh]
	 Same-Spin Energy          =      -0.2544183611924230 [Eh]
	 Opposite-Spin Energy      =      -0.7716646452259897 [Eh]
	 Correlation Energy        =      -1.0260830064184128 [Eh]
	 Total Energy              =   -1876.9597586254349153 [Eh]
	-----------------------------------------------------------
	 ================> DF-SCS-MP2 Energies <================== 
	-----------------------------------------------------------
	 SCS Same-Spin Scale       =       0.3333333333333333 [-]
	 SCS Opposite-Spin Scale   =       1.2000000000000000 [-]
	 SCS Same-Spin Energy      =      -0.0848061203974743 [Eh]
	 SCS Opposite-Spin Energy  =      -0.9259975742711876 [Eh]
	 SCS Correlation Energy    =      -1.0108036946686618 [Eh]
	 SCS Total Energy          =   -1876.9444793136851786 [Eh]
	-----------------------------------------------------------


*** tstop() called on node37.bme.utexas.edu at Tue Feb 22 20:28:19 2022
Module time:
	user time   =      23.63 seconds =       0.39 minutes
	system time =       1.41 seconds =       0.02 minutes
	total time  =          9 seconds =       0.15 minutes
Total time:
	user time   =     100.19 seconds =       1.67 minutes
	system time =       6.11 seconds =       0.10 minutes
	total time  =         32 seconds =       0.53 minutes

  //>>>>>>>>>>>>>>>>>>>>>>>>>>>>>>>>>>>//
  //  CBS Results: mp2/aug-cc-pV[TQ]Z  //
  //<<<<<<<<<<<<<<<<<<<<<<<<<<<<<<<<<<<//


   ==> HF <==

   HI-zeta (4) Energy:               -1875.933675619016


   ==> Helgaker 2-point correlated extrapolation for method: MP2 <==

   LO-zeta (3) Energy:               -1876.866970789831
   HI-zeta (4) Energy:               -1876.959758625435
   Alpha (exponent) Value:             3.000000000000
   Extrapolated Energy:              -1877.027468667632

   @Extrapolated MP2/(T,Q):          -1877.027468667632



   ==> Helgaker 2-point correlated extrapolation for method: HF <==

   LO-zeta (3) Energy:               -1875.916370042160
   HI-zeta (4) Energy:               -1875.933675619016
   Alpha (exponent) Value:             3.000000000000
   Extrapolated Energy:              -1875.946304012939

   @Extrapolated HF/(T,Q):           -1875.946304012939


   ==> Components <==

  ---------------------------------------------------------------------------------------------------------
                          Method / Basis                      Rqd      Energy [Eh]   Variable
  ---------------------------------------------------------------------------------------------------------
                              hf / aug-cc-pvtz                  *   -1875.91637004   HF TOTAL ENERGY
                             mp2 / aug-cc-pvtz                  *   -1876.86697079   MP2 TOTAL ENERGY
                              hf / aug-cc-pvqz                  *   -1875.93367562   HF TOTAL ENERGY
                             mp2 / aug-cc-pvqz                  *   -1876.95975863   MP2 TOTAL ENERGY
  ---------------------------------------------------------------------------------------------------------

   ==> Stages <==

  ---------------------------------------------------------------------------------------------------------
      Stage               Method / Basis                       Wt      Energy [Eh]   Scheme
  ---------------------------------------------------------------------------------------------------------
        scf                   hf / aug-cc-pvqz                  1   -1875.93367562   xtpl_highest_1
       corl                  mp2 / aug-cc-pv[tq]z               1   -1877.02746867   corl_xtpl_helgaker_2
       corl                   hf / aug-cc-pv[tq]z              -1   -1875.94630401   corl_xtpl_helgaker_2
  ---------------------------------------------------------------------------------------------------------

   ==> CBS <==

  ---------------------------------------------------------------------------------------------------------
      Stage               Method / Basis                               Energy [Eh]   Scheme
  ---------------------------------------------------------------------------------------------------------
        scf                   hf / aug-cc-pvqz                      -1875.93367562   xtpl_highest_1
       corl                  mp2 / aug-cc-pv[tq]z                      -1.08116465   corl_xtpl_helgaker_2
      total                  CBS                                    -1877.01484027   
  ---------------------------------------------------------------------------------------------------------
   => Loading Basis Set <=

    Name: DEF2-SVP
    Role: ORBITAL
    Keyword: BASIS
    atoms 1-4 entry CL         line   356 file /home/bdw2292/miniconda3/envs/amoebamdpoltype/share/psi4/basis/def2-svp.gbs 
    atoms 5   entry C          line    90 file /home/bdw2292/miniconda3/envs/amoebamdpoltype/share/psi4/basis/def2-svp.gbs 


       N-Body: Complex Energy (fragments = (2,), basis = (2,): -1877.01484027370998)

       N-Body: Computing complex (2/4) with fragments (2,) in the basis of fragments (1, 2).


  //>>>>>>>>>>>>>>>>>>>>>>>>>>>>>>>>>>>//
  //   CBS Setup: mp2/aug-cc-pV[TQ]Z   //
  //<<<<<<<<<<<<<<<<<<<<<<<<<<<<<<<<<<<//

    Naive listing of computations required.
             hf / aug-cc-pvqz              for  HF TOTAL ENERGY
            mp2 / aug-cc-pvtz              for  MP2 TOTAL ENERGY
            mp2 / aug-cc-pvqz              for  MP2 TOTAL ENERGY
             hf / aug-cc-pvtz              for  HF TOTAL ENERGY
             hf / aug-cc-pvqz              for  HF TOTAL ENERGY

    Enlightened listing of computations required.
            mp2 / aug-cc-pvtz              for  MP2 TOTAL ENERGY
            mp2 / aug-cc-pvqz              for  MP2 TOTAL ENERGY

    Full listing of computations to be obtained (required and bonus).
             hf / aug-cc-pvtz              for  HF TOTAL ENERGY
            mp2 / aug-cc-pvtz              for  MP2 TOTAL ENERGY
             hf / aug-cc-pvqz              for  HF TOTAL ENERGY
            mp2 / aug-cc-pvqz              for  MP2 TOTAL ENERGY

  //>>>>>>>>>>>>>>>>>>>>>>>>>>>>>>>>>>>>//
  // CBS Computation: MP2 / AUG-CC-PVTZ //
  //<<<<<<<<<<<<<<<<<<<<<<<<<<<<<<<<<<<<//

    SCF Algorithm Type (re)set to DF.

*** tstart() called on node37.bme.utexas.edu
*** at Tue Feb 22 20:28:20 2022

   => Loading Basis Set <=

    Name: AUG-CC-PVTZ
    Role: ORBITAL
    Keyword: BASIS
    atoms 1-4, 6-9 entry CL         line   984 file /home/bdw2292/miniconda3/envs/amoebamdpoltype/share/psi4/basis/aug-cc-pvtz.gbs 
    atoms 5, 10    entry C          line   235 file /home/bdw2292/miniconda3/envs/amoebamdpoltype/share/psi4/basis/aug-cc-pvtz.gbs 


         ---------------------------------------------------------
                                   SCF
               by Justin Turney, Rob Parrish, Andy Simmonett
                          and Daniel G. A. Smith
                              RHF Reference
                        4 Threads,  14305 MiB Core
         ---------------------------------------------------------

  ==> Geometry <==

    Molecular point group: c1
    Full point group: C1

    Geometry (in Angstrom), charge = 0, multiplicity = 1:

       Center              X                  Y                   Z               Mass       
    ------------   -----------------  -----------------  -----------------  -----------------
      Gh(CL)         -1.625840331874     0.254833684559     0.276298913780    34.968852682000
      Gh(CL)         -1.782432131874     2.558968684559    -1.456087086220    34.968852682000
      Gh(CL)         -2.707669131874    -0.016432715441    -2.387340886220    34.968852682000
      Gh(CL)          0.117810068126     0.458019184559    -2.023396486220    34.968852682000
      Gh(C)          -1.498515231874     0.813396084559    -1.397113786220    12.000000000000
         CL           0.218367768126    -0.717063615441     2.615569313780    34.968852682000
         CL           1.793812668126     0.795806984559     0.720733413780    34.968852682000
         CL           1.005135668126    -1.918800415441     0.104530313780    34.968852682000
         CL           2.981062968126    -1.415395815441     2.150106313780    34.968852682000
         C            1.497793868126    -0.813209515441     1.395907913780    12.000000000000

  Running in c1 symmetry.

  Rotational constants: A =      0.02882  B =      0.00818  C =      0.00818 [cm^-1]
  Rotational constants: A =    863.94820  B =    245.23184  C =    245.19374 [MHz]
  Nuclear repulsion =  439.464147831905620

  Charge       = 0
  Multiplicity = 1
  Electrons    = 74
  Nalpha       = 37
  Nbeta        = 37

  ==> Algorithm <==

  SCF Algorithm Type is DF.
  DIIS enabled.
  MOM disabled.
  Fractional occupation disabled.
  Guess Type is SAD.
  Energy threshold   = 1.00e-08
  Density threshold  = 1.00e-08
  Integral threshold = 0.00e+00

  ==> Primary Basis <==

  Basis Set: AUG-CC-PVTZ
    Blend: AUG-CC-PVTZ
    Number of shells: 156
    Number of basis function: 492
    Number of Cartesian functions: 582
    Spherical Harmonics?: true
    Max angular momentum: 3

   => Loading Basis Set <=

    Name: (AUG-CC-PVTZ AUX)
    Role: JKFIT
    Keyword: DF_BASIS_SCF
    atoms 1-4, 6-9 entry CL         line   816 file /home/bdw2292/miniconda3/envs/amoebamdpoltype/share/psi4/basis/aug-cc-pvtz-jkfit.gbs 
    atoms 5, 10    entry C          line   162 file /home/bdw2292/miniconda3/envs/amoebamdpoltype/share/psi4/basis/aug-cc-pvtz-jkfit.gbs 

  ==> Pre-Iterations <==

   -------------------------------------------------------
    Irrep   Nso     Nmo     Nalpha   Nbeta   Ndocc  Nsocc
   -------------------------------------------------------
     A        492     492       0       0       0       0
   -------------------------------------------------------
    Total     492     492      37      37      37       0
   -------------------------------------------------------

  ==> Integral Setup <==

  DFHelper Memory: AOs need 2.404 GiB; user supplied 10.477 GiB. Using in-core AOs.

  ==> MemDFJK: Density-Fitted J/K Matrices <==

    J tasked:                   Yes
    K tasked:                   Yes
    wK tasked:                   No
    OpenMP threads:               4
    Memory [MiB]:             10728
    Algorithm:                 Disk
    Schwarz Cutoff:           1E-12
    Mask sparsity (%):       5.9381
    Fitting Condition:        1E-10

   => Auxiliary Basis Set <=

  Basis Set: (AUG-CC-PVTZ AUX)
    Blend: AUG-CC-PVTZ-JKFIT
    Number of shells: 396
    Number of basis function: 1376
    Number of Cartesian functions: 1702
    Spherical Harmonics?: true
    Max angular momentum: 4

  Minimum eigenvalue in the overlap matrix is 4.4966251737E-05.
  Using Symmetric Orthogonalization.

  SCF Guess: Superposition of Atomic Densities via on-the-fly atomic UHF.

  ==> Iterations <==

                           Total Energy        Delta E     RMS |[F,P]|

   @DF-RHF iter SAD: -1875.94739296426678   -1.87595e+03   0.00000e+00 
   @DF-RHF iter   1: -1875.79734594930960    1.50047e-01   9.36001e-04 DIIS
   @DF-RHF iter   2: -1875.83597413214648   -3.86282e-02   8.63219e-04 DIIS
   @DF-RHF iter   3: -1875.91373510531389   -7.77610e-02   9.25532e-05 DIIS
   @DF-RHF iter   4: -1875.91621704544355   -2.48194e-03   3.24453e-05 DIIS
   @DF-RHF iter   5: -1875.91655115432059   -3.34109e-04   6.58610e-06 DIIS
   @DF-RHF iter   6: -1875.91656738343181   -1.62291e-05   1.09441e-06 DIIS
   @DF-RHF iter   7: -1875.91656759395642   -2.10525e-07   1.23672e-07 DIIS
   @DF-RHF iter   8: -1875.91656759836064   -4.40423e-09   2.91093e-08 DIIS
   @DF-RHF iter   9: -1875.91656759858074   -2.20098e-10   9.57964e-09 DIIS
  Energy and wave function converged.


  ==> Post-Iterations <==

    Orbital Energies [Eh]
    ---------------------

    Doubly Occupied:                                                      

       1A   -104.878902     2A   -104.878855     3A   -104.878738  
       4A   -104.878454     5A    -11.499663     6A    -10.603238  
       7A    -10.603194     8A    -10.603091     9A    -10.602868  
      10A     -8.070006    11A     -8.069962    12A     -8.069858  
      13A     -8.069632    14A     -8.067718    15A     -8.067712  
      16A     -8.067675    17A     -8.067669    18A     -8.067573  
      19A     -8.067567    20A     -8.067350    21A     -8.067350  
      22A     -1.282397    23A     -1.128420    24A     -1.128257  
      25A     -1.127970    26A     -0.834155    27A     -0.658264  
      28A     -0.658163    29A     -0.657962    30A     -0.532287  
      31A     -0.532226    32A     -0.489303    33A     -0.489160  
      34A     -0.488840    35A     -0.460967    36A     -0.460732  
      37A     -0.460650  

    Virtual:                                                              

      38A      0.030970    39A      0.052797    40A      0.054263  
      41A      0.057619    42A      0.071207    43A      0.079356  
      44A      0.080952    45A      0.081534    46A      0.091238  
      47A      0.099748    48A      0.100155    49A      0.114517  
      50A      0.114918    51A      0.120525    52A      0.128835  
      53A      0.130531    54A      0.144354    55A      0.147061  
      56A      0.149505    57A      0.152133    58A      0.156145  
      59A      0.162697    60A      0.168669    61A      0.171294  
      62A      0.180075    63A      0.183380    64A      0.184032  
      65A      0.186016    66A      0.188733    67A      0.190187  
      68A      0.199471    69A      0.201454    70A      0.203773  
      71A      0.215536    72A      0.220606    73A      0.224104  
      74A      0.232033    75A      0.234790    76A      0.250809  
      77A      0.256415    78A      0.264231    79A      0.272975  
      80A      0.287712    81A      0.305597    82A      0.323218  
      83A      0.327631    84A      0.328112    85A      0.331370  
      86A      0.337118    87A      0.342164    88A      0.351822  
      89A      0.361461    90A      0.372034    91A      0.383395  
      92A      0.389832    93A      0.394408    94A      0.401652  
      95A      0.405117    96A      0.411618    97A      0.418974  
      98A      0.424861    99A      0.427681   100A      0.431784  
     101A      0.433548   102A      0.439246   103A      0.450250  
     104A      0.461980   105A      0.465075   106A      0.473353  
     107A      0.484127   108A      0.490338   109A      0.499798  
     110A      0.501164   111A      0.512884   112A      0.514478  
     113A      0.524762   114A      0.526428   115A      0.528672  
     116A      0.540904   117A      0.543727   118A      0.546191  
     119A      0.558202   120A      0.560000   121A      0.565863  
     122A      0.572212   123A      0.576597   124A      0.586984  
     125A      0.596132   126A      0.599785   127A      0.619582  
     128A      0.631321   129A      0.635367   130A      0.645272  
     131A      0.646700   132A      0.664648   133A      0.677450  
     134A      0.692721   135A      0.701415   136A      0.710188  
     137A      0.734056   138A      0.744413   139A      0.746274  
     140A      0.749849   141A      0.758261   142A      0.759923  
     143A      0.767474   144A      0.772600   145A      0.776591  
     146A      0.780862   147A      0.785254   148A      0.802314  
     149A      0.808946   150A      0.813280   151A      0.820091  
     152A      0.824906   153A      0.831279   154A      0.833012  
     155A      0.838867   156A      0.857530   157A      0.859985  
     158A      0.868036   159A      0.874363   160A      0.881528  
     161A      0.883793   162A      0.893028   163A      0.894170  
     164A      0.901940   165A      0.919020   166A      0.919547  
     167A      0.936715   168A      0.951136   169A      0.955549  
     170A      0.959316   171A      0.970781   172A      0.977245  
     173A      0.988558   174A      1.008433   175A      1.014340  
     176A      1.026018   177A      1.031901   178A      1.037575  
     179A      1.074608   180A      1.078611   181A      1.088278  
     182A      1.092060   183A      1.112082   184A      1.115631  
     185A      1.145148   186A      1.153468   187A      1.155861  
     188A      1.163604   189A      1.168593   190A      1.185737  
     191A      1.201912   192A      1.215640   193A      1.234502  
     194A      1.245340   195A      1.250073   196A      1.255372  
     197A      1.261306   198A      1.269617   199A      1.274021  
     200A      1.289496   201A      1.294766   202A      1.310644  
     203A      1.315362   204A      1.324956   205A      1.330772  
     206A      1.335788   207A      1.351047   208A      1.360943  
     209A      1.362665   210A      1.367114   211A      1.376611  
     212A      1.395747   213A      1.406212   214A      1.416142  
     215A      1.423061   216A      1.433065   217A      1.448670  
     218A      1.470752   219A      1.476086   220A      1.480518  
     221A      1.486666   222A      1.489770   223A      1.493080  
     224A      1.507332   225A      1.510577   226A      1.511873  
     227A      1.518671   228A      1.522907   229A      1.538571  
     230A      1.545380   231A      1.551220   232A      1.555608  
     233A      1.558990   234A      1.567274   235A      1.574544  
     236A      1.581222   237A      1.589625   238A      1.594694  
     239A      1.602718   240A      1.607273   241A      1.616877  
     242A      1.620809   243A      1.635145   244A      1.648280  
     245A      1.651971   246A      1.661569   247A      1.669940  
     248A      1.674678   249A      1.685875   250A      1.691048  
     251A      1.699550   252A      1.709490   253A      1.718617  
     254A      1.721233   255A      1.732358   256A      1.739453  
     257A      1.761533   258A      1.763289   259A      1.770765  
     260A      1.781302   261A      1.785751   262A      1.790819  
     263A      1.796834   264A      1.801916   265A      1.811654  
     266A      1.816637   267A      1.833449   268A      1.837282  
     269A      1.856226   270A      1.878955   271A      1.889708  
     272A      1.893215   273A      1.906255   274A      1.909015  
     275A      1.913362   276A      1.924701   277A      1.929631  
     278A      1.935250   279A      1.954240   280A      1.967022  
     281A      1.978196   282A      1.992819   283A      2.000369  
     284A      2.016195   285A      2.046862   286A      2.059403  
     287A      2.070789   288A      2.075854   289A      2.140633  
     290A      2.153280   291A      2.159915   292A      2.173857  
     293A      2.184326   294A      2.198488   295A      2.250623  
     296A      2.268405   297A      2.272635   298A      2.345456  
     299A      2.354720   300A      2.376277   301A      2.412091  
     302A      2.475628   303A      2.484214   304A      2.518037  
     305A      2.550535   306A      2.560275   307A      2.580381  
     308A      2.592652   309A      2.599153   310A      2.604823  
     311A      2.620520   312A      2.625685   313A      2.627379  
     314A      2.639264   315A      2.649127   316A      2.653336  
     317A      2.660836   318A      2.682837   319A      2.713402  
     320A      2.726180   321A      2.726315   322A      2.733865  
     323A      2.759513   324A      2.761980   325A      2.778373  
     326A      2.785145   327A      2.800222   328A      2.807558  
     329A      2.843184   330A      2.848340   331A      2.918476  
     332A      2.922106   333A      2.955554   334A      2.988265  
     335A      3.021368   336A      3.038928   337A      3.043345  
     338A      3.069311   339A      3.070206   340A      3.087168  
     341A      3.091737   342A      3.102388   343A      3.107238  
     344A      3.118900   345A      3.128128   346A      3.132473  
     347A      3.148514   348A      3.149135   349A      3.179770  
     350A      3.190502   351A      3.198877   352A      3.223235  
     353A      3.228359   354A      3.247368   355A      3.273205  
     356A      3.275582   357A      3.282283   358A      3.298730  
     359A      3.319730   360A      3.327608   361A      3.347233  
     362A      3.356724   363A      3.369977   364A      3.386995  
     365A      3.405654   366A      3.437373   367A      3.439978  
     368A      3.474843   369A      3.546215   370A      3.554674  
     371A      3.776340   372A      3.786977   373A      3.790525  
     374A      3.825291   375A      3.831655   376A      3.864416  
     377A      3.884240   378A      3.931524   379A      3.973218  
     380A      3.973832   381A      3.990272   382A      3.995551  
     383A      4.000406   384A      4.009730   385A      4.027139  
     386A      4.034160   387A      4.051419   388A      4.060781  
     389A      4.075990   390A      4.087489   391A      4.095356  
     392A      4.099051   393A      4.110254   394A      4.113806  
     395A      4.123123   396A      4.133403   397A      4.139489  
     398A      4.162268   399A      4.170203   400A      4.192671  
     401A      4.199478   402A      4.208863   403A      4.219570  
     404A      4.233785   405A      4.249839   406A      4.257661  
     407A      4.269548   408A      4.285431   409A      4.297797  
     410A      4.300642   411A      4.319058   412A      4.338345  
     413A      4.352075   414A      4.388756   415A      4.404297  
     416A      4.431484   417A      4.468663   418A      4.481303  
     419A      4.487525   420A      4.494073   421A      4.517520  
     422A      4.571470   423A      4.720636   424A      4.730933  
     425A      4.733452   426A      4.739245   427A      4.741466  
     428A      4.746283   429A      4.750708   430A      4.767677  
     431A      4.787918   432A      4.791019   433A      4.800777  
     434A      4.810004   435A      4.839214   436A      4.847987  
     437A      4.849223   438A      4.859197   439A      4.873814  
     440A      4.891064   441A      4.905373   442A      4.908805  
     443A      4.924578   444A      4.954575   445A      4.981041  
     446A      5.033858   447A      5.107307   448A      5.113750  
     449A      5.125978   450A      5.128811   451A      5.171107  
     452A      5.202439   453A      5.411960   454A      5.416081  
     455A      5.428526   456A      5.442932   457A      5.472982  
     458A      5.667775   459A      5.893799   460A      6.154508  
     461A      6.177273   462A      6.199021   463A      6.845332  
     464A      7.640999   465A      7.784919   466A      7.804575  
     467A      7.859014   468A      7.919166   469A      7.929069  
     470A      7.947192   471A     10.992236   472A     15.518392  
     473A     16.484397   474A     16.542888   475A     16.806109  
     476A     28.082086   477A     28.086230   478A     28.165419  
     479A     28.220614   480A     28.264961   481A     28.339129  
     482A     28.358246   483A     28.474969   484A     28.887386  
     485A     28.919497   486A     28.923862   487A     29.556982  
     488A     41.045606   489A    160.946783   490A    161.051513  
     491A    161.061822   492A    161.074530  

    Final Occupation by Irrep:
              A 
    DOCC [    37 ]

  @DF-RHF Final Energy: -1875.91656759858074

   => Energetics <=

    Nuclear Repulsion Energy =            439.4641478319056205
    One-Electron Energy =               -3467.4877860540254915
    Two-Electron Energy =                1152.1070706235393573
    Total Energy =                      -1875.9165675985807411

Computation Completed


Properties will be evaluated at   0.000000,  -0.000000,  -0.000000 [a0]

Properties computed using the SCF density matrix

  Nuclear Dipole Moment: [e a0]
     X:   209.6825      Y:  -113.8030      Z:   195.4382

  Electronic Dipole Moment: [e a0]
     X:  -209.6835      Y:   113.8035      Z:  -195.4397

  Dipole Moment: [e a0]
     X:    -0.0010      Y:     0.0005      Z:    -0.0016     Total:     0.0019

  Dipole Moment: [D]
     X:    -0.0025      Y:     0.0012      Z:    -0.0041     Total:     0.0049


*** tstop() called on node37.bme.utexas.edu at Tue Feb 22 20:29:32 2022
Module time:
	user time   =     184.35 seconds =       3.07 minutes
	system time =      30.38 seconds =       0.51 minutes
	total time  =         72 seconds =       1.20 minutes
Total time:
	user time   =     285.93 seconds =       4.77 minutes
	system time =      36.55 seconds =       0.61 minutes
	total time  =        105 seconds =       1.75 minutes

*** tstart() called on node37.bme.utexas.edu
*** at Tue Feb 22 20:29:32 2022


  //>>>>>>>>>>>>>>>>>>>>>>>>>>>>>>>>>>>//
  //               DFMP2               //
  //<<<<<<<<<<<<<<<<<<<<<<<<<<<<<<<<<<<//

   => Loading Basis Set <=

    Name: (AUG-CC-PVTZ AUX)
    Role: RIFIT
    Keyword: DF_BASIS_MP2
    atoms 1-4, 6-9 entry CL         line   742 file /home/bdw2292/miniconda3/envs/amoebamdpoltype/share/psi4/basis/aug-cc-pvtz-ri.gbs 
    atoms 5, 10    entry C          line   148 file /home/bdw2292/miniconda3/envs/amoebamdpoltype/share/psi4/basis/aug-cc-pvtz-ri.gbs 

	 --------------------------------------------------------
	                          DF-MP2                         
	      2nd-Order Density-Fitted Moller-Plesset Theory     
	              RMP2 Wavefunction,   4 Threads             
	                                                         
	        Rob Parrish, Justin Turney, Andy Simmonett,      
	           Ed Hohenstein, and C. David Sherrill          
	 --------------------------------------------------------

   => Auxiliary Basis Set <=

  Basis Set: (AUG-CC-PVTZ AUX)
    Blend: AUG-CC-PVTZ-RI
    Number of shells: 352
    Number of basis function: 1388
    Number of Cartesian functions: 1800
    Spherical Harmonics?: true
    Max angular momentum: 4

	 --------------------------------------------------------
	                 NBF =   492, NAUX =  1388
	 --------------------------------------------------------
	   CLASS    FOCC     OCC    AOCC    AVIR     VIR    FVIR
	   PAIRS      21      37      16     455     455       0
	 --------------------------------------------------------

	-----------------------------------------------------------
	 ==================> DF-MP2 Energies <==================== 
	-----------------------------------------------------------
	 Reference Energy          =   -1875.9165675985807411 [Eh]
	 Singles Energy            =      -0.0000000000000000 [Eh]
	 Same-Spin Energy          =      -0.2464866429002305 [Eh]
	 Opposite-Spin Energy      =      -0.7051137517048580 [Eh]
	 Correlation Energy        =      -0.9516003946050885 [Eh]
	 Total Energy              =   -1876.8681679931858071 [Eh]
	-----------------------------------------------------------
	 ================> DF-SCS-MP2 Energies <================== 
	-----------------------------------------------------------
	 SCS Same-Spin Scale       =       0.3333333333333333 [-]
	 SCS Opposite-Spin Scale   =       1.2000000000000000 [-]
	 SCS Same-Spin Energy      =      -0.0821622143000768 [Eh]
	 SCS Opposite-Spin Energy  =      -0.8461365020458296 [Eh]
	 SCS Correlation Energy    =      -0.9282987163459064 [Eh]
	 SCS Total Energy          =   -1876.8448663149265485 [Eh]
	-----------------------------------------------------------


*** tstop() called on node37.bme.utexas.edu at Tue Feb 22 20:29:52 2022
Module time:
	user time   =      59.88 seconds =       1.00 minutes
	system time =       3.92 seconds =       0.07 minutes
	total time  =         20 seconds =       0.33 minutes
Total time:
	user time   =     345.82 seconds =       5.76 minutes
	system time =      40.47 seconds =       0.67 minutes
	total time  =        125 seconds =       2.08 minutes

  //>>>>>>>>>>>>>>>>>>>>>>>>>>>>>>>>>>>>//
  // CBS Computation: MP2 / AUG-CC-PVQZ //
  //<<<<<<<<<<<<<<<<<<<<<<<<<<<<<<<<<<<<//

    SCF Algorithm Type (re)set to DF.

*** tstart() called on node37.bme.utexas.edu
*** at Tue Feb 22 20:29:52 2022

   => Loading Basis Set <=

    Name: AUG-CC-PVQZ
    Role: ORBITAL
    Keyword: BASIS
    atoms 1-4, 6-9 entry CL         line  1218 file /home/bdw2292/miniconda3/envs/amoebamdpoltype/share/psi4/basis/aug-cc-pvqz.gbs 
    atoms 5, 10    entry C          line   299 file /home/bdw2292/miniconda3/envs/amoebamdpoltype/share/psi4/basis/aug-cc-pvqz.gbs 


         ---------------------------------------------------------
                                   SCF
               by Justin Turney, Rob Parrish, Andy Simmonett
                          and Daniel G. A. Smith
                              RHF Reference
                        4 Threads,  14305 MiB Core
         ---------------------------------------------------------

  ==> Geometry <==

    Molecular point group: c1
    Full point group: C1

    Geometry (in Angstrom), charge = 0, multiplicity = 1:

       Center              X                  Y                   Z               Mass       
    ------------   -----------------  -----------------  -----------------  -----------------
      Gh(CL)         -1.625840331874     0.254833684559     0.276298913780    34.968852682000
      Gh(CL)         -1.782432131874     2.558968684559    -1.456087086220    34.968852682000
      Gh(CL)         -2.707669131874    -0.016432715441    -2.387340886220    34.968852682000
      Gh(CL)          0.117810068126     0.458019184559    -2.023396486220    34.968852682000
      Gh(C)          -1.498515231874     0.813396084559    -1.397113786220    12.000000000000
         CL           0.218367768126    -0.717063615441     2.615569313780    34.968852682000
         CL           1.793812668126     0.795806984559     0.720733413780    34.968852682000
         CL           1.005135668126    -1.918800415441     0.104530313780    34.968852682000
         CL           2.981062968126    -1.415395815441     2.150106313780    34.968852682000
         C            1.497793868126    -0.813209515441     1.395907913780    12.000000000000

  Running in c1 symmetry.

  Rotational constants: A =      0.02882  B =      0.00818  C =      0.00818 [cm^-1]
  Rotational constants: A =    863.94820  B =    245.23184  C =    245.19374 [MHz]
  Nuclear repulsion =  439.464147831905620

  Charge       = 0
  Multiplicity = 1
  Electrons    = 74
  Nalpha       = 37
  Nbeta        = 37

  ==> Algorithm <==

  SCF Algorithm Type is DF.
  DIIS enabled.
  MOM disabled.
  Fractional occupation disabled.
  Guess Type is SAD.
  Energy threshold   = 1.00e-08
  Density threshold  = 1.00e-08
  Integral threshold = 0.00e+00

  ==> Primary Basis <==

  Basis Set: AUG-CC-PVQZ
    Blend: AUG-CC-PVQZ
    Number of shells: 216
    Number of basis function: 832
    Number of Cartesian functions: 1082
    Spherical Harmonics?: true
    Max angular momentum: 4

   => Loading Basis Set <=

    Name: (AUG-CC-PVQZ AUX)
    Role: JKFIT
    Keyword: DF_BASIS_SCF
    atoms 1-4, 6-9 entry CL         line   904 file /home/bdw2292/miniconda3/envs/amoebamdpoltype/share/psi4/basis/aug-cc-pvqz-jkfit.gbs 
    atoms 5, 10    entry C          line   178 file /home/bdw2292/miniconda3/envs/amoebamdpoltype/share/psi4/basis/aug-cc-pvqz-jkfit.gbs 

  ==> Pre-Iterations <==

   -------------------------------------------------------
    Irrep   Nso     Nmo     Nalpha   Nbeta   Ndocc  Nsocc
   -------------------------------------------------------
     A        832     832       0       0       0       0
   -------------------------------------------------------
    Total     832     832      37      37      37       0
   -------------------------------------------------------

  ==> Integral Setup <==

  DFHelper Memory: AOs need 8.395 GiB; user supplied 10.477 GiB. Using in-core AOs.

  ==> MemDFJK: Density-Fitted J/K Matrices <==

    J tasked:                   Yes
    K tasked:                   Yes
    wK tasked:                   No
    OpenMP threads:               4
    Memory [MiB]:             10728
    Algorithm:                 Disk
    Schwarz Cutoff:           1E-12
    Mask sparsity (%):       9.6700
    Fitting Condition:        1E-10

   => Auxiliary Basis Set <=

  Basis Set: (AUG-CC-PVQZ AUX)
    Blend: AUG-CC-PVQZ-JKFIT
    Number of shells: 436
    Number of basis function: 1756
    Number of Cartesian functions: 2372
    Spherical Harmonics?: true
    Max angular momentum: 5

  Minimum eigenvalue in the overlap matrix is 9.5305831205E-06.
  Using Symmetric Orthogonalization.

  SCF Guess: Superposition of Atomic Densities via on-the-fly atomic UHF.

  ==> Iterations <==

                           Total Energy        Delta E     RMS |[F,P]|

   @DF-RHF iter SAD: -1875.95817436829793   -1.87596e+03   0.00000e+00 
   @DF-RHF iter   1: -1875.81438193914369    1.43792e-01   5.65390e-04 DIIS
   @DF-RHF iter   2: -1875.85333380027760   -3.89519e-02   5.18078e-04 DIIS
   @DF-RHF iter   3: -1875.93073060793085   -7.73968e-02   5.81359e-05 DIIS
   @DF-RHF iter   4: -1875.93328234836918   -2.55174e-03   2.11720e-05 DIIS
   @DF-RHF iter   5: -1875.93369885244260   -4.16504e-04   4.24668e-06 DIIS
   @DF-RHF iter   6: -1875.93371734255538   -1.84901e-05   6.99106e-07 DIIS
   @DF-RHF iter   7: -1875.93371757973568   -2.37180e-07   8.74918e-08 DIIS
   @DF-RHF iter   8: -1875.93371758574040   -6.00471e-09   2.06429e-08 DIIS
   @DF-RHF iter   9: -1875.93371758605463   -3.14230e-10   6.52363e-09 DIIS
  Energy and wave function converged.


  ==> Post-Iterations <==

    Orbital Energies [Eh]
    ---------------------

    Doubly Occupied:                                                      

       1A   -104.876392     2A   -104.876344     3A   -104.876231  
       4A   -104.875944     5A    -11.496950     6A    -10.602037  
       7A    -10.601994     8A    -10.601882     9A    -10.601635  
      10A     -8.069010    11A     -8.068967    12A     -8.068854  
      13A     -8.068607    14A     -8.066913    15A     -8.066913  
      16A     -8.066871    17A     -8.066871    18A     -8.066759  
      19A     -8.066759    20A     -8.066511    21A     -8.066510  
      22A     -1.281350    23A     -1.127763    24A     -1.127595  
      25A     -1.127284    26A     -0.833858    27A     -0.658086  
      28A     -0.657982    29A     -0.657754    30A     -0.532035  
      31A     -0.531973    32A     -0.489039    33A     -0.488898  
      34A     -0.488569    35A     -0.460753    36A     -0.460487  
      37A     -0.460408  

    Virtual:                                                              

      38A      0.026643    39A      0.044317    40A      0.046243  
      41A      0.048725    42A      0.060748    43A      0.067090  
      44A      0.068706    45A      0.075112    46A      0.081792  
      47A      0.083571    48A      0.085348    49A      0.096513  
      50A      0.097807    51A      0.101896    52A      0.108780  
      53A      0.111359    54A      0.124997    55A      0.126122  
      56A      0.127665    57A      0.131435    58A      0.135159  
      59A      0.139686    60A      0.142907    61A      0.145223  
      62A      0.153028    63A      0.158476    64A      0.159429  
      65A      0.160983    66A      0.163438    67A      0.164459  
      68A      0.170131    69A      0.173701    70A      0.175765  
      71A      0.181129    72A      0.188378    73A      0.192427  
      74A      0.200855    75A      0.201619    76A      0.208244  
      77A      0.216060    78A      0.224265    79A      0.227804  
      80A      0.233262    81A      0.246764    82A      0.255427  
      83A      0.263678    84A      0.264468    85A      0.275441  
      86A      0.277225    87A      0.279997    88A      0.291503  
      89A      0.299806    90A      0.305724    91A      0.316965  
      92A      0.321306    93A      0.322881    94A      0.326823  
      95A      0.328923    96A      0.332264    97A      0.333812  
      98A      0.337428    99A      0.342091   100A      0.346598  
     101A      0.349542   102A      0.354673   103A      0.357906  
     104A      0.360678   105A      0.364078   106A      0.365921  
     107A      0.369201   108A      0.373393   109A      0.378461  
     110A      0.382909   111A      0.390292   112A      0.401415  
     113A      0.404415   114A      0.406002   115A      0.414703  
     116A      0.420780   117A      0.433881   118A      0.441391  
     119A      0.442953   120A      0.445444   121A      0.448273  
     122A      0.456230   123A      0.457993   124A      0.466586  
     125A      0.467524   126A      0.480928   127A      0.487727  
     128A      0.491857   129A      0.502091   130A      0.508441  
     131A      0.510869   132A      0.520131   133A      0.525686  
     134A      0.539194   135A      0.547106   136A      0.553928  
     137A      0.558613   138A      0.564184   139A      0.566351  
     140A      0.574039   141A      0.574789   142A      0.578250  
     143A      0.580935   144A      0.583367   145A      0.587270  
     146A      0.588841   147A      0.591459   148A      0.598297  
     149A      0.599846   150A      0.603963   151A      0.609057  
     152A      0.614041   153A      0.617469   154A      0.622167  
     155A      0.627839   156A      0.632339   157A      0.637795  
     158A      0.649987   159A      0.659575   160A      0.660819  
     161A      0.664617   162A      0.686712   163A      0.689275  
     164A      0.693729   165A      0.697917   166A      0.703510  
     167A      0.712428   168A      0.714802   169A      0.718773  
     170A      0.719400   171A      0.724899   172A      0.731374  
     173A      0.741843   174A      0.755835   175A      0.764630  
     176A      0.785860   177A      0.788251   178A      0.804245  
     179A      0.808357   180A      0.817194   181A      0.823172  
     182A      0.842652   183A      0.852120   184A      0.857130  
     185A      0.867568   186A      0.874159   187A      0.882319  
     188A      0.888227   189A      0.896253   190A      0.904647  
     191A      0.908990   192A      0.911410   193A      0.923201  
     194A      0.930152   195A      0.937059   196A      0.943517  
     197A      0.951535   198A      0.956819   199A      0.961406  
     200A      0.966018   201A      0.972422   202A      0.977835  
     203A      0.982607   204A      0.993405   205A      0.999333  
     206A      1.009158   207A      1.013013   208A      1.015521  
     209A      1.027283   210A      1.029685   211A      1.032439  
     212A      1.041062   213A      1.045551   214A      1.047576  
     215A      1.049234   216A      1.054731   217A      1.056137  
     218A      1.070634   219A      1.077924   220A      1.083713  
     221A      1.089193   222A      1.092089   223A      1.094991  
     224A      1.097142   225A      1.103238   226A      1.108269  
     227A      1.112819   228A      1.113806   229A      1.128969  
     230A      1.137160   231A      1.146749   232A      1.147164  
     233A      1.151953   234A      1.157451   235A      1.159597  
     236A      1.161912   237A      1.170548   238A      1.174608  
     239A      1.175154   240A      1.177299   241A      1.182083  
     242A      1.187848   243A      1.191598   244A      1.199584  
     245A      1.204651   246A      1.205478   247A      1.212874  
     248A      1.216163   249A      1.224917   250A      1.227772  
     251A      1.230517   252A      1.237340   253A      1.245190  
     254A      1.255279   255A      1.259718   256A      1.264077  
     257A      1.269884   258A      1.274495   259A      1.283326  
     260A      1.294975   261A      1.300690   262A      1.305637  
     263A      1.311667   264A      1.318221   265A      1.324833  
     266A      1.337313   267A      1.338056   268A      1.355069  
     269A      1.367970   270A      1.372813   271A      1.380221  
     272A      1.382216   273A      1.397942   274A      1.401568  
     275A      1.406830   276A      1.417358   277A      1.423427  
     278A      1.428824   279A      1.431817   280A      1.443934  
     281A      1.446528   282A      1.462664   283A      1.474547  
     284A      1.480210   285A      1.494856   286A      1.511161  
     287A      1.521523   288A      1.524368   289A      1.569087  
     290A      1.608255   291A      1.612891   292A      1.617432  
     293A      1.646331   294A      1.655527   295A      1.666670  
     296A      1.676564   297A      1.680493   298A      1.700433  
     299A      1.708662   300A      1.713241   301A      1.724156  
     302A      1.732397   303A      1.739349   304A      1.744328  
     305A      1.756975   306A      1.779419   307A      1.788878  
     308A      1.798311   309A      1.807691   310A      1.813159  
     311A      1.817264   312A      1.825353   313A      1.826923  
     314A      1.833036   315A      1.841293   316A      1.848061  
     317A      1.851172   318A      1.854419   319A      1.864200  
     320A      1.873543   321A      1.888318   322A      1.899271  
     323A      1.907663   324A      1.917915   325A      1.926931  
     326A      1.932195   327A      1.937845   328A      1.948500  
     329A      1.954286   330A      1.959306   331A      1.969306  
     332A      1.972245   333A      1.982599   334A      1.987654  
     335A      2.000132   336A      2.001374   337A      2.012549  
     338A      2.022631   339A      2.027661   340A      2.030781  
     341A      2.037937   342A      2.049161   343A      2.050775  
     344A      2.052643   345A      2.064366   346A      2.076791  
     347A      2.079269   348A      2.088079   349A      2.092004  
     350A      2.096102   351A      2.103296   352A      2.106458  
     353A      2.117612   354A      2.123970   355A      2.124488  
     356A      2.129358   357A      2.133305   358A      2.140299  
     359A      2.162139   360A      2.179102   361A      2.192765  
     362A      2.200880   363A      2.205312   364A      2.206738  
     365A      2.225211   366A      2.229490   367A      2.233098  
     368A      2.238317   369A      2.247067   370A      2.249128  
     371A      2.255645   372A      2.257609   373A      2.260480  
     374A      2.264820   375A      2.272016   376A      2.277853  
     377A      2.282122   378A      2.286930   379A      2.298670  
     380A      2.307263   381A      2.314498   382A      2.316573  
     383A      2.324339   384A      2.331356   385A      2.333697  
     386A      2.342880   387A      2.355786   388A      2.359601  
     389A      2.363678   390A      2.369670   391A      2.376805  
     392A      2.381096   393A      2.393487   394A      2.395722  
[...]
     351A      1.802435   352A      1.809665   353A      1.814988  
     354A      1.817418   355A      1.822910   356A      1.826231  
     357A      1.831381   358A      1.840156   359A      1.849172  
     360A      1.853548   361A      1.862356   362A      1.870862  
     363A      1.873780   364A      1.880506   365A      1.885902  
     366A      1.889135   367A      1.894006   368A      1.902753  
     369A      1.903604   370A      1.909447   371A      1.921713  
     372A      1.926624   373A      1.939189   374A      1.944756  
     375A      1.958234   376A      1.962032   377A      1.969229  
     378A      1.973949   379A      1.979598   380A      1.994819  
     381A      2.000249   382A      2.002092   383A      2.009913  
     384A      2.013442   385A      2.019581   386A      2.024580  
     387A      2.029915   388A      2.036217   389A      2.046384  
     390A      2.049974   391A      2.060351   392A      2.065971  
     393A      2.068662   394A      2.072718   395A      2.078684  
     396A      2.083839   397A      2.093163   398A      2.095250  
     399A      2.098673   400A      2.099711   401A      2.107111  
     402A      2.112013   403A      2.114937   404A      2.119690  
     405A      2.124575   406A      2.130573   407A      2.136963  
     408A      2.138450   409A      2.142200   410A      2.149793  
     411A      2.154896   412A      2.161124   413A      2.162513  
     414A      2.173770   415A      2.182805   416A      2.187185  
     417A      2.195066   418A      2.197625   419A      2.200112  
     420A      2.209474   421A      2.212495   422A      2.222017  
     423A      2.225106   424A      2.232204   425A      2.238839  
     426A      2.240963   427A      2.241317   428A      2.245964  
     429A      2.250541   430A      2.255257   431A      2.261263  
     432A      2.262238   433A      2.264698   434A      2.268521  
     435A      2.272323   436A      2.275793   437A      2.280956  
     438A      2.288141   439A      2.291302   440A      2.292173  
     441A      2.301427   442A      2.314880   443A      2.319240  
     444A      2.326915   445A      2.336335   446A      2.337552  
     447A      2.347263   448A      2.354922   449A      2.359234  
     450A      2.364121   451A      2.375253   452A      2.376909  
     453A      2.391239   454A      2.404323   455A      2.407445  
     456A      2.411581   457A      2.414099   458A      2.421179  
     459A      2.424189   460A      2.439603   461A      2.443184  
     462A      2.454612   463A      2.463003   464A      2.479281  
     465A      2.484697   466A      2.486165   467A      2.491585  
     468A      2.498628   469A      2.502199   470A      2.504826  
     471A      2.512202   472A      2.516828   473A      2.521115  
     474A      2.522844   475A      2.532788   476A      2.536968  
     477A      2.546201   478A      2.548429   479A      2.564311  
     480A      2.571627   481A      2.573556   482A      2.584467  
     483A      2.586442   484A      2.604500   485A      2.609873  
     486A      2.615181   487A      2.625249   488A      2.630741  
     489A      2.642122   490A      2.651141   491A      2.653541  
     492A      2.666003   493A      2.677750   494A      2.683229  
     495A      2.687161   496A      2.688087   497A      2.692165  
     498A      2.702029   499A      2.708212   500A      2.713594  
     501A      2.734823   502A      2.738171   503A      2.761694  
     504A      2.768230   505A      2.787906   506A      2.803588  
     507A      2.806711   508A      2.834925   509A      2.840239  
     510A      2.869087   511A      2.875169   512A      2.882526  
     513A      2.904612   514A      2.915821   515A      2.927451  
     516A      2.934952   517A      2.944045   518A      2.949556  
     519A      2.965187   520A      2.976561   521A      2.980331  
     522A      2.990609   523A      2.995721   524A      3.009273  
     525A      3.019312   526A      3.034118   527A      3.037096  
     528A      3.045379   529A      3.054453   530A      3.060125  
     531A      3.090059   532A      3.121071   533A      3.239648  
     534A      3.244880   535A      3.255039   536A      3.260445  
     537A      3.265903   538A      3.270489   539A      3.279234  
     540A      3.283258   541A      3.296166   542A      3.319924  
     543A      3.322214   544A      3.345871   545A      3.424775  
     546A      3.433630   547A      3.441654   548A      3.450616  
     549A      3.451387   550A      3.457915   551A      3.465838  
     552A      3.470440   553A      3.473980   554A      3.477448  
     555A      3.485149   556A      3.492924   557A      3.506051  
     558A      3.534488   559A      3.550847   560A      3.565096  
     561A      3.570129   562A      3.589839   563A      3.593157  
     564A      3.604462   565A      3.606188   566A      3.613998  
     567A      3.634317   568A      3.642420   569A      3.646222  
     570A      3.656694   571A      3.708081   572A      3.739901  
     573A      3.757947   574A      3.797036   575A      3.990829  
     576A      4.008640   577A      4.023491   578A      4.032922  
     579A      4.040224   580A      4.052591   581A      4.249111  
     582A      4.283238   583A      4.386293   584A      4.412150  
     585A      4.418990   586A      4.422250   587A      4.459035  
     588A      4.475527   589A      4.479521   590A      4.485372  
     591A      4.488143   592A      4.499034   593A      4.508022  
     594A      4.517776   595A      4.521010   596A      4.524622  
     597A      4.563367   598A      4.586908   599A      4.600034  
     600A      4.606736   601A      4.614749   602A      4.625875  
     603A      4.633546   604A      4.644093   605A      4.658303  
     606A      4.663688   607A      4.667844   608A      4.676161  
     609A      4.683790   610A      4.690813   611A      4.695281  
     612A      4.708254   613A      4.718118   614A      4.720466  
     615A      4.721269   616A      4.724525   617A      4.735152  
     618A      4.738236   619A      4.740699   620A      4.745976  
     621A      4.747657   622A      4.750777   623A      4.753878  
     624A      4.757222   625A      4.759425   626A      4.761752  
     627A      4.768303   628A      4.772663   629A      4.773767  
     630A      4.775069   631A      4.778481   632A      4.783231  
     633A      4.784639   634A      4.785962   635A      4.790720  
     636A      4.798139   637A      4.802680   638A      4.804910  
     639A      4.811908   640A      4.817224   641A      4.821651  
     642A      4.824277   643A      4.833979   644A      4.836111  
     645A      4.843203   646A      4.847016   647A      4.852594  
     648A      4.856937   649A      4.857869   650A      4.860831  
     651A      4.863358   652A      4.873575   653A      4.876507  
     654A      4.882324   655A      4.889194   656A      4.891405  
     657A      4.892668   658A      4.895937   659A      4.901865  
     660A      4.906163   661A      4.906833   662A      4.909057  
     663A      4.914873   664A      4.920532   665A      4.927272  
     666A      4.928191   667A      4.929886   668A      4.933600  
     669A      4.938854   670A      4.942895   671A      4.944653  
     672A      4.952133   673A      4.953840   674A      4.956828  
     675A      4.966430   676A      4.970109   677A      4.975302  
     678A      4.978652   679A      4.980768   680A      4.984126  
     681A      4.993088   682A      4.995943   683A      5.001015  
     684A      5.003579   685A      5.005200   686A      5.010709  
     687A      5.023964   688A      5.026188   689A      5.030898  
     690A      5.043067   691A      5.049608   692A      5.053668  
     693A      5.060160   694A      5.066612   695A      5.076122  
     696A      5.085314   697A      5.086945   698A      5.112440  
     699A      5.119877   700A      5.125349   701A      5.127266  
     702A      5.134287   703A      5.139794   704A      5.152299  
     705A      5.157803   706A      5.158804   707A      5.171007  
     708A      5.183488   709A      5.189864   710A      5.209744  
     711A      5.222453   712A      5.229390   713A      5.248322  
     714A      5.257864   715A      5.273924   716A      5.286827  
     717A      5.290072   718A      5.303784   719A      5.321659  
     720A      5.327594   721A      5.338082   722A      5.345776  
     723A      5.364663   724A      5.386738   725A      5.393880  
     726A      5.395901   727A      5.407775   728A      5.413009  
     729A      5.421455   730A      5.434865   731A      5.444766  
     732A      5.449048   733A      5.460651   734A      5.462771  
     735A      5.471574   736A      5.477694   737A      5.485675  
     738A      5.493270   739A      5.507278   740A      5.540015  
     741A      5.559138   742A      5.611057   743A      5.626900  
     744A      5.646928   745A      5.672683   746A      5.682112  
     747A      5.687196   748A      5.707622   749A      5.851378  
     750A      5.858640   751A      6.655440   752A      6.670907  
     753A      6.682417   754A      6.687760   755A      6.693784  
     756A      6.694510   757A      6.697602   758A      6.702400  
     759A      6.710733   760A      6.713832   761A      6.727938  
     762A      6.732921   763A      6.736838   764A      6.754089  
     765A      6.775076   766A      6.779129   767A      6.788570  
     768A      6.798172   769A      6.855065   770A      6.855739  
     771A      6.860589   772A      6.873292   773A      6.877017  
     774A      6.880334   775A      6.911145   776A      6.917432  
     777A      6.940565   778A      6.965948   779A      7.015400  
     780A      7.025011   781A      7.116255   782A      7.122091  
     783A      7.124113   784A      7.134454   785A      7.218737  
     786A      7.221492   787A      7.232739   788A      7.237189  
     789A      7.246312   790A      7.270660   791A      7.309111  
     792A      7.311577   793A      7.315915   794A      7.328082  
     795A      7.381415   796A      7.388943   797A      7.396493  
     798A      7.407548   799A      7.418877   800A      7.438671  
     801A      7.563865   802A      7.581794   803A      7.763923  
     804A      7.766375   805A      7.770698   806A      7.778143  
     807A      7.801050   808A      7.812005   809A      7.836245  
     810A      7.839886   811A      7.851654   812A      7.855511  
     813A      7.861306   814A      7.885889   815A      8.526098  
     816A      8.529985   817A      8.539738   818A      8.540373  
     819A      8.546296   820A      8.575202   821A      8.808358  
     822A      8.850012   823A     24.869698   824A     24.987533  
     825A     26.775040   826A     26.778045   827A     26.875288  
     828A     26.942644   829A     27.018451   830A     27.036892  
     831A     27.141134   832A     27.386165  

    Final Occupation by Irrep:
              A 
    DOCC [    74 ]

  @DF-RHF Final Energy: -3751.84771290885510

   => Energetics <=

    Nuclear Repulsion Energy =           1516.1116835509783414
    One-Electron Energy =               -8209.8041503006770654
    Two-Electron Energy =                2941.8447538408436230
    Total Energy =                      -3751.8477129088551010

Computation Completed


Properties will be evaluated at   0.000000,  -0.000000,  -0.000000 [a0]

Properties computed using the SCF density matrix

  Nuclear Dipole Moment: [e a0]
     X:    -0.0002      Y:     0.0001      Z:    -0.0004

  Electronic Dipole Moment: [e a0]
     X:     0.0284      Y:    -0.0092      Z:     0.0077

  Dipole Moment: [e a0]
     X:     0.0282      Y:    -0.0092      Z:     0.0073     Total:     0.0305

  Dipole Moment: [D]
     X:     0.0716      Y:    -0.0233      Z:     0.0185     Total:     0.0775


*** tstop() called on node37.bme.utexas.edu at Tue Feb 22 20:47:34 2022
Module time:
	user time   =     674.73 seconds =      11.25 minutes
	system time =     101.35 seconds =       1.69 minutes
	total time  =        265 seconds =       4.42 minutes
Total time:
	user time   =    3108.14 seconds =      51.80 minutes
	system time =     407.89 seconds =       6.80 minutes
	total time  =       1187 seconds =      19.78 minutes

*** tstart() called on node37.bme.utexas.edu
*** at Tue Feb 22 20:47:34 2022


  //>>>>>>>>>>>>>>>>>>>>>>>>>>>>>>>>>>>//
  //               DFMP2               //
  //<<<<<<<<<<<<<<<<<<<<<<<<<<<<<<<<<<<//

   => Loading Basis Set <=

    Name: (AUG-CC-PVQZ AUX)
    Role: RIFIT
    Keyword: DF_BASIS_MP2
    atoms 1-4, 6-9 entry CL         line   914 file /home/bdw2292/miniconda3/envs/amoebamdpoltype/share/psi4/basis/aug-cc-pvqz-ri.gbs 
    atoms 5, 10    entry C          line   184 file /home/bdw2292/miniconda3/envs/amoebamdpoltype/share/psi4/basis/aug-cc-pvqz-ri.gbs 

	 --------------------------------------------------------
	                          DF-MP2                         
	      2nd-Order Density-Fitted Moller-Plesset Theory     
	              RMP2 Wavefunction,   4 Threads             
	                                                         
	        Rob Parrish, Justin Turney, Andy Simmonett,      
	           Ed Hohenstein, and C. David Sherrill          
	 --------------------------------------------------------

   => Auxiliary Basis Set <=

  Basis Set: (AUG-CC-PVQZ AUX)
    Blend: AUG-CC-PVQZ-RI
    Number of shells: 424
    Number of basis function: 1888
    Number of Cartesian functions: 2618
    Spherical Harmonics?: true
    Max angular momentum: 5

	 --------------------------------------------------------
	                 NBF =   832, NAUX =  1888
	 --------------------------------------------------------
	   CLASS    FOCC     OCC    AOCC    AVIR     VIR    FVIR
	   PAIRS      42      74      32     758     758       0
	 --------------------------------------------------------

	-----------------------------------------------------------
	 ==================> DF-MP2 Energies <==================== 
	-----------------------------------------------------------
	 Reference Energy          =   -3751.8477129088551010 [Eh]
	 Singles Energy            =      -0.0000000000000000 [Eh]
	 Same-Spin Energy          =      -0.5183243425377023 [Eh]
	 Opposite-Spin Energy      =      -1.5540802355299119 [Eh]
	 Correlation Energy        =      -2.0724045780676144 [Eh]
	 Total Energy              =   -3753.9201174869226634 [Eh]
	-----------------------------------------------------------
	 ================> DF-SCS-MP2 Energies <================== 
	-----------------------------------------------------------
	 SCS Same-Spin Scale       =       0.3333333333333333 [-]
	 SCS Opposite-Spin Scale   =       1.2000000000000000 [-]
	 SCS Same-Spin Energy      =      -0.1727747808459008 [Eh]
	 SCS Opposite-Spin Energy  =      -1.8648962826358941 [Eh]
	 SCS Correlation Energy    =      -2.0376710634817949 [Eh]
	 SCS Total Energy          =   -3753.8853839723369674 [Eh]
	-----------------------------------------------------------


*** tstop() called on node37.bme.utexas.edu at Tue Feb 22 20:48:43 2022
Module time:
	user time   =     210.39 seconds =       3.51 minutes
	system time =       9.26 seconds =       0.15 minutes
	total time  =         69 seconds =       1.15 minutes
Total time:
	user time   =    3318.53 seconds =      55.31 minutes
	system time =     417.15 seconds =       6.95 minutes
	total time  =       1256 seconds =      20.93 minutes

  //>>>>>>>>>>>>>>>>>>>>>>>>>>>>>>>>>>>//
  //  CBS Results: mp2/aug-cc-pV[TQ]Z  //
  //<<<<<<<<<<<<<<<<<<<<<<<<<<<<<<<<<<<//


   ==> HF <==

   HI-zeta (4) Energy:               -3751.847712908855


   ==> Helgaker 2-point correlated extrapolation for method: MP2 <==

   LO-zeta (3) Energy:               -3753.734607436065
   HI-zeta (4) Energy:               -3753.920117486923
   Alpha (exponent) Value:             3.000000000000
   Extrapolated Energy:              -3754.055489686197

   @Extrapolated MP2/(T,Q):          -3754.055489686197



   ==> Helgaker 2-point correlated extrapolation for method: HF <==

   LO-zeta (3) Energy:               -3751.813336657322
   HI-zeta (4) Energy:               -3751.847712908855
   Alpha (exponent) Value:             3.000000000000
   Extrapolated Energy:              -3751.872798281596

   @Extrapolated HF/(T,Q):           -3751.872798281596


   ==> Components <==

  ---------------------------------------------------------------------------------------------------------
                          Method / Basis                      Rqd      Energy [Eh]   Variable
  ---------------------------------------------------------------------------------------------------------
                              hf / aug-cc-pvtz                  *   -3751.81333666   HF TOTAL ENERGY
                             mp2 / aug-cc-pvtz                  *   -3753.73460744   MP2 TOTAL ENERGY
                              hf / aug-cc-pvqz                  *   -3751.84771291   HF TOTAL ENERGY
                             mp2 / aug-cc-pvqz                  *   -3753.92011749   MP2 TOTAL ENERGY
  ---------------------------------------------------------------------------------------------------------

   ==> Stages <==

  ---------------------------------------------------------------------------------------------------------
      Stage               Method / Basis                       Wt      Energy [Eh]   Scheme
  ---------------------------------------------------------------------------------------------------------
        scf                   hf / aug-cc-pvqz                  1   -3751.84771291   xtpl_highest_1
       corl                  mp2 / aug-cc-pv[tq]z               1   -3754.05548969   corl_xtpl_helgaker_2
       corl                   hf / aug-cc-pv[tq]z              -1   -3751.87279828   corl_xtpl_helgaker_2
  ---------------------------------------------------------------------------------------------------------

   ==> CBS <==

  ---------------------------------------------------------------------------------------------------------
      Stage               Method / Basis                               Energy [Eh]   Scheme
  ---------------------------------------------------------------------------------------------------------
        scf                   hf / aug-cc-pvqz                      -3751.84771291   xtpl_highest_1
       corl                  mp2 / aug-cc-pv[tq]z                      -2.18269140   corl_xtpl_helgaker_2
      total                  CBS                                    -3754.03040431   
  ---------------------------------------------------------------------------------------------------------
   => Loading Basis Set <=

    Name: DEF2-SVP
    Role: ORBITAL
    Keyword: BASIS
    atoms 1-4, 6-9 entry CL         line   356 file /home/bdw2292/miniconda3/envs/amoebamdpoltype/share/psi4/basis/def2-svp.gbs 
    atoms 5, 10    entry C          line    90 file /home/bdw2292/miniconda3/envs/amoebamdpoltype/share/psi4/basis/def2-svp.gbs 


       N-Body: Complex Energy (fragments = (1, 2), basis = (1, 2): -3754.03040431345607)

   ==> N-Body: Counterpoise Corrected (CP) energies <==

   n-Body     Total Energy [Eh]       I.E. [kcal/mol]      Delta [kcal/mol]
        1    -3754.029707808241        0.000000000000        0.000000000000
        2    -3754.030123907019       -0.261105924815       -0.261105924815

   => Loading Basis Set <=

    Name: DEF2-SVP
    Role: ORBITAL
    Keyword: BASIS
    atoms 1-4, 6-9 entry CL         line   356 file /home/bdw2292/miniconda3/envs/amoebamdpoltype/share/psi4/basis/def2-svp.gbs 
    atoms 5, 10    entry C          line    90 file /home/bdw2292/miniconda3/envs/amoebamdpoltype/share/psi4/basis/def2-svp.gbs 

CP Energy =  -0.000416
    Psi4 stopped on: Tuesday, 22 February 2022 08:48PM
    Psi4 wall time for execution: 0:20:56.87

*** Psi4 exiting successfully. Buy a developer a beer!
