
    -----------------------------------------------------------------------
          Psi4: An Open-Source Ab Initio Electronic Structure Package
                               Psi4 1.3.2 release

                         Git: Rev {HEAD} ecbda83 


    R. M. Parrish, L. A. Burns, D. G. A. Smith, A. C. Simmonett,
    A. E. DePrince III, E. G. Hohenstein, U. Bozkaya, A. Yu. Sokolov,
    R. Di Remigio, R. M. Richard, J. F. Gonthier, A. M. James,
    H. R. McAlexander, A. Kumar, M. Saitow, X. Wang, B. P. Pritchard,
    P. Verma, H. F. Schaefer III, K. Patkowski, R. A. King, E. F. Valeev,
    F. A. Evangelista, J. M. Turney, T. D. Crawford, and C. D. Sherrill,
    J. Chem. Theory Comput. 13(7) pp 3185--3197 (2017).
    (doi: 10.1021/acs.jctc.7b00174)


                         Additional Contributions by
    P. Kraus, H. Kruse, M. H. Lechner, M. C. Schieber, R. A. Shaw,
    A. Alenaizan, R. Galvelis, Z. L. Glick, S. Lehtola, and J. P. Misiewicz

    -----------------------------------------------------------------------


    Psi4 started on: Tuesday, 22 February 2022 06:48PM

    Process ID: 34722
    Host:       node37.bme.utexas.edu
    PSIDATADIR: /home/bdw2292/miniconda3/envs/amoebamdpoltype/share/psi4
    Memory:     500.0 MiB
    Threads:    1
    
  ==> Input File <==

--------------------------------------------------------------------------
molecule { 
0 1
 Cl                 -1.3216509    -1.2809349     0.3222521
 Cl                 -0.8136453     1.3984708    -0.6254683
 Cl                  0.5982673    -0.8387328    -1.7959308
 Cl                  1.1940644     0.0026420     0.9073311
  C                 -0.0850511    -0.1807108    -0.3019604
--
0 1
  O                 -1.2026561     0.2910206     3.0158987
  H                 -1.2621591    -0.6392268     3.2326202
  H                 -0.6510082     0.3839507     2.2391313
}
memory 15GB
set_num_threads(4)
psi4_io.set_default_path("/scratch/bdw2292/Psi4-CCl4")
set maxiter 500
set freeze_core True
set PROPERTIES_ORIGIN ["COM"]
e_dim= energy('mp2/aug-cc-pV[TQ]Z',bsse_type='cp')

psi4.print_out('CP Energy = %10.6f' % (e_dim))
clean()
--------------------------------------------------------------------------

  Memory set to  13.970 GiB by Python driver.
  Threads set to 4 by Python driver.


   ===> N-Body Interaction Abacus <===
        BSSE Treatment:                     cp
        Number of 1-body computations:     4
        Number of 2-body computations:     1

   ==> N-Body: Now computing 1-body complexes <==


       N-Body: Computing complex (1/4) with fragments (2,) in the basis of fragments (2,).


  //>>>>>>>>>>>>>>>>>>>>>>>>>>>>>>>>>>>//
  //   CBS Setup: mp2/aug-cc-pV[TQ]Z   //
  //<<<<<<<<<<<<<<<<<<<<<<<<<<<<<<<<<<<//

    Naive listing of computations required.
             hf / aug-cc-pvqz              for  HF TOTAL ENERGY
            mp2 / aug-cc-pvtz              for  MP2 TOTAL ENERGY
            mp2 / aug-cc-pvqz              for  MP2 TOTAL ENERGY
             hf / aug-cc-pvtz              for  HF TOTAL ENERGY
             hf / aug-cc-pvqz              for  HF TOTAL ENERGY

    Enlightened listing of computations required.
            mp2 / aug-cc-pvtz              for  MP2 TOTAL ENERGY
            mp2 / aug-cc-pvqz              for  MP2 TOTAL ENERGY

    Full listing of computations to be obtained (required and bonus).
             hf / aug-cc-pvtz              for  HF TOTAL ENERGY
            mp2 / aug-cc-pvtz              for  MP2 TOTAL ENERGY
             hf / aug-cc-pvqz              for  HF TOTAL ENERGY
            mp2 / aug-cc-pvqz              for  MP2 TOTAL ENERGY

  //>>>>>>>>>>>>>>>>>>>>>>>>>>>>>>>>>>>>//
  // CBS Computation: MP2 / AUG-CC-PVTZ //
  //<<<<<<<<<<<<<<<<<<<<<<<<<<<<<<<<<<<<//

    SCF Algorithm Type (re)set to DF.

*** tstart() called on node37.bme.utexas.edu
*** at Tue Feb 22 18:48:27 2022

   => Loading Basis Set <=

    Name: AUG-CC-PVTZ
    Role: ORBITAL
    Keyword: BASIS
    atoms 1   entry O          line   327 file /home/bdw2292/miniconda3/envs/amoebamdpoltype/share/psi4/basis/aug-cc-pvtz.gbs 
    atoms 2-3 entry H          line    36 file /home/bdw2292/miniconda3/envs/amoebamdpoltype/share/psi4/basis/aug-cc-pvtz.gbs 


         ---------------------------------------------------------
                                   SCF
               by Justin Turney, Rob Parrish, Andy Simmonett
                          and Daniel G. A. Smith
                              RHF Reference
                        4 Threads,  14305 MiB Core
         ---------------------------------------------------------

  ==> Geometry <==

    Molecular point group: c1
    Full point group: C1

    Geometry (in Angstrom), charge = 0, multiplicity = 1:

       Center              X                  Y                   Z               Mass       
    ------------   -----------------  -----------------  -----------------  -----------------
         O           -1.001472878579     0.425805086952     2.966137965555    15.994914619570
         H           -1.060975878579    -0.504442313048     3.182859465555     1.007825032230
         H           -0.449824978579     0.518735186952     2.189370565555     1.007825032230

  Running in c1 symmetry.

  Rotational constants: A =     16.96468  B =      0.09597  C =      0.09551 [cm^-1]
  Rotational constants: A = 508588.39887  B =   2877.23286  C =   2863.30203 [MHz]
  Nuclear repulsion =    9.187140617343394

  Charge       = 0
  Multiplicity = 1
  Electrons    = 10
  Nalpha       = 5
  Nbeta        = 5

  ==> Algorithm <==

  SCF Algorithm Type is DF.
  DIIS enabled.
  MOM disabled.
  Fractional occupation disabled.
  Guess Type is SAD.
  Energy threshold   = 1.00e-08
  Density threshold  = 1.00e-08
  Integral threshold = 0.00e+00

  ==> Primary Basis <==

  Basis Set: AUG-CC-PVTZ
    Blend: AUG-CC-PVTZ
    Number of shells: 32
    Number of basis function: 92
    Number of Cartesian functions: 105
    Spherical Harmonics?: true
    Max angular momentum: 3

   => Loading Basis Set <=

    Name: (AUG-CC-PVTZ AUX)
    Role: JKFIT
    Keyword: DF_BASIS_SCF
    atoms 1   entry O          line   286 file /home/bdw2292/miniconda3/envs/amoebamdpoltype/share/psi4/basis/aug-cc-pvtz-jkfit.gbs 
    atoms 2-3 entry H          line    70 file /home/bdw2292/miniconda3/envs/amoebamdpoltype/share/psi4/basis/aug-cc-pvtz-jkfit.gbs 

  ==> Pre-Iterations <==

   -------------------------------------------------------
    Irrep   Nso     Nmo     Nalpha   Nbeta   Ndocc  Nsocc
   -------------------------------------------------------
     A         92      92       0       0       0       0
   -------------------------------------------------------
    Total      92      92       5       5       5       0
   -------------------------------------------------------

  ==> Integral Setup <==

  DFHelper Memory: AOs need 0.015 GiB; user supplied 10.477 GiB. Using in-core AOs.

  ==> MemDFJK: Density-Fitted J/K Matrices <==

    J tasked:                   Yes
    K tasked:                   Yes
    wK tasked:                   No
    OpenMP threads:               4
    Memory [MiB]:             10728
    Algorithm:                 Core
    Schwarz Cutoff:           1E-12
    Mask sparsity (%):       0.0000
    Fitting Condition:        1E-10

   => Auxiliary Basis Set <=

  Basis Set: (AUG-CC-PVTZ AUX)
    Blend: AUG-CC-PVTZ-JKFIT
    Number of shells: 58
    Number of basis function: 196
    Number of Cartesian functions: 241
    Spherical Harmonics?: true
    Max angular momentum: 4

  Minimum eigenvalue in the overlap matrix is 3.7720848326E-04.
  Using Symmetric Orthogonalization.

  SCF Guess: Superposition of Atomic Densities via on-the-fly atomic UHF.

  ==> Iterations <==

                           Total Energy        Delta E     RMS |[F,P]|

   @DF-RHF iter SAD:   -75.47446191472766   -7.54745e+01   0.00000e+00 
   @DF-RHF iter   1:   -75.97662874977581   -5.02167e-01   5.09444e-03 DIIS
   @DF-RHF iter   2:   -76.02906115199703   -5.24324e-02   3.45112e-03 DIIS
   @DF-RHF iter   3:   -76.06006503249706   -3.10039e-02   2.34356e-04 DIIS
   @DF-RHF iter   4:   -76.06045411940681   -3.89087e-04   5.59042e-05 DIIS
   @DF-RHF iter   5:   -76.06047798567938   -2.38663e-05   1.25797e-05 DIIS
   @DF-RHF iter   6:   -76.06047993287100   -1.94719e-06   2.79844e-06 DIIS
   @DF-RHF iter   7:   -76.06048004009865   -1.07228e-07   5.28686e-07 DIIS
   @DF-RHF iter   8:   -76.06048004349489   -3.39624e-09   8.76785e-08 DIIS
   @DF-RHF iter   9:   -76.06048004356835   -7.34559e-11   2.17705e-08 DIIS
   @DF-RHF iter  10:   -76.06048004357231   -3.96483e-12   2.97242e-09 DIIS
  Energy and wave function converged.


  ==> Post-Iterations <==

    Orbital Energies [Eh]
    ---------------------

    Doubly Occupied:                                                      

       1A    -20.565480     2A     -1.350983     3A     -0.725083  
       4A     -0.577593     5A     -0.509245  

    Virtual:                                                              

       6A      0.029669     7A      0.047452     8A      0.136469  
       9A      0.157862    10A      0.174309    11A      0.182060  
      12A      0.228843    13A      0.244492    14A      0.263889  
      15A      0.304628    16A      0.313159    17A      0.365255  
      18A      0.438047    19A      0.466863    20A      0.602190  
      21A      0.654421    22A      0.711085    23A      0.719367  
      24A      0.731261    25A      0.828221    26A      0.843856  
      27A      0.889962    28A      0.912996    29A      0.920751  
      30A      0.923718    31A      0.928025    32A      0.971103  
      33A      1.023144    34A      1.045443    35A      1.085158  
      36A      1.114074    37A      1.172956    38A      1.177633  
      39A      1.259447    40A      1.514493    41A      1.562840  
      42A      1.595914    43A      1.786341    44A      1.797141  
      45A      2.003609    46A      2.116347    47A      2.259807  
      48A      2.318691    49A      2.321036    50A      2.413658  
      51A      2.414809    52A      2.438636    53A      2.471592  
      54A      2.686282    55A      2.702925    56A      2.768564  
      57A      2.856344    58A      2.884157    59A      3.646245  
      60A      3.769989    61A      4.007855    62A      4.090633  
      63A      4.211334    64A      4.232325    65A      4.335219  
      66A      4.381996    67A      4.401376    68A      4.415177  
      69A      4.494275    70A      4.708764    71A      4.814778  
      72A      5.125998    73A      5.173445    74A      5.305867  
      75A      5.332315    76A      5.515105    77A      5.721192  
      78A      6.141741    79A      6.533900    80A      6.713607  
      81A      6.860586    82A      7.146449    83A      7.263210  
      84A      7.299681    85A      7.309192    86A      7.371085  
      87A      7.387460    88A      7.559655    89A      7.899899  
      90A      7.963860    91A      8.792144    92A     15.871914  

    Final Occupation by Irrep:
              A 
    DOCC [     5 ]

  @DF-RHF Final Energy:   -76.06048004357231

   => Energetics <=

    Nuclear Repulsion Energy =              9.1871406173433936
    One-Electron Energy =                -123.0384725622961497
    Two-Electron Energy =                  37.7908519013804423
    Total Energy =                        -76.0604800435723121

Computation Completed


Properties will be evaluated at  -1.840468,   0.716114,   5.545967 [a0]

Properties computed using the SCF density matrix

  Nuclear Dipole Moment: [e a0]
     X:     0.4096      Y:    -0.6969      Z:    -0.4661

  Electronic Dipole Moment: [e a0]
     X:    -0.0782      Y:     0.1330      Z:     0.0890

  Dipole Moment: [e a0]
     X:     0.3314      Y:    -0.5639      Z:    -0.3771     Total:     0.7550

  Dipole Moment: [D]
     X:     0.8423      Y:    -1.4332      Z:    -0.9585     Total:     1.9190


*** tstop() called on node37.bme.utexas.edu at Tue Feb 22 18:48:31 2022
Module time:
	user time   =       5.57 seconds =       0.09 minutes
	system time =       0.44 seconds =       0.01 minutes
	total time  =          4 seconds =       0.07 minutes
Total time:
	user time   =       5.57 seconds =       0.09 minutes
	system time =       0.44 seconds =       0.01 minutes
	total time  =          4 seconds =       0.07 minutes

*** tstart() called on node37.bme.utexas.edu
*** at Tue Feb 22 18:48:31 2022


  //>>>>>>>>>>>>>>>>>>>>>>>>>>>>>>>>>>>//
  //               DFMP2               //
  //<<<<<<<<<<<<<<<<<<<<<<<<<<<<<<<<<<<//

   => Loading Basis Set <=

    Name: (AUG-CC-PVTZ AUX)
    Role: RIFIT
    Keyword: DF_BASIS_MP2
    atoms 1   entry O          line   264 file /home/bdw2292/miniconda3/envs/amoebamdpoltype/share/psi4/basis/aug-cc-pvtz-ri.gbs 
    atoms 2-3 entry H          line    30 file /home/bdw2292/miniconda3/envs/amoebamdpoltype/share/psi4/basis/aug-cc-pvtz-ri.gbs 

	 --------------------------------------------------------
	                          DF-MP2                         
	      2nd-Order Density-Fitted Moller-Plesset Theory     
	              RMP2 Wavefunction,   4 Threads             
	                                                         
	        Rob Parrish, Justin Turney, Andy Simmonett,      
	           Ed Hohenstein, and C. David Sherrill          
	 --------------------------------------------------------

   => Auxiliary Basis Set <=

  Basis Set: (AUG-CC-PVTZ AUX)
    Blend: AUG-CC-PVTZ-RI
    Number of shells: 56
    Number of basis function: 198
    Number of Cartesian functions: 246
    Spherical Harmonics?: true
    Max angular momentum: 4

	 --------------------------------------------------------
	                 NBF =    92, NAUX =   198
	 --------------------------------------------------------
	   CLASS    FOCC     OCC    AOCC    AVIR     VIR    FVIR
	   PAIRS       1       5       4      87      87       0
	 --------------------------------------------------------

	-----------------------------------------------------------
	 ==================> DF-MP2 Energies <==================== 
	-----------------------------------------------------------
	 Reference Energy          =     -76.0604800435723121 [Eh]
	 Singles Energy            =      -0.0000000000000000 [Eh]
	 Same-Spin Energy          =      -0.0650883045902914 [Eh]
	 Opposite-Spin Energy      =      -0.2029563678189785 [Eh]
	 Correlation Energy        =      -0.2680446724092698 [Eh]
	 Total Energy              =     -76.3285247159815867 [Eh]
	-----------------------------------------------------------
	 ================> DF-SCS-MP2 Energies <================== 
	-----------------------------------------------------------
	 SCS Same-Spin Scale       =       0.3333333333333333 [-]
	 SCS Opposite-Spin Scale   =       1.2000000000000000 [-]
	 SCS Same-Spin Energy      =      -0.0216961015300971 [Eh]
	 SCS Opposite-Spin Energy  =      -0.2435476413827742 [Eh]
	 SCS Correlation Energy    =      -0.2652437429128713 [Eh]
	 SCS Total Energy          =     -76.3257237864851845 [Eh]
	-----------------------------------------------------------


*** tstop() called on node37.bme.utexas.edu at Tue Feb 22 18:48:31 2022
Module time:
	user time   =       1.51 seconds =       0.03 minutes
	system time =       0.12 seconds =       0.00 minutes
	total time  =          0 seconds =       0.00 minutes
Total time:
	user time   =       7.09 seconds =       0.12 minutes
	system time =       0.56 seconds =       0.01 minutes
	total time  =          4 seconds =       0.07 minutes

  //>>>>>>>>>>>>>>>>>>>>>>>>>>>>>>>>>>>>//
  // CBS Computation: MP2 / AUG-CC-PVQZ //
  //<<<<<<<<<<<<<<<<<<<<<<<<<<<<<<<<<<<<//

    SCF Algorithm Type (re)set to DF.

*** tstart() called on node37.bme.utexas.edu
*** at Tue Feb 22 18:48:31 2022

   => Loading Basis Set <=

    Name: AUG-CC-PVQZ
    Role: ORBITAL
    Keyword: BASIS
    atoms 1   entry O          line   419 file /home/bdw2292/miniconda3/envs/amoebamdpoltype/share/psi4/basis/aug-cc-pvqz.gbs 
    atoms 2-3 entry H          line    36 file /home/bdw2292/miniconda3/envs/amoebamdpoltype/share/psi4/basis/aug-cc-pvqz.gbs 


         ---------------------------------------------------------
                                   SCF
               by Justin Turney, Rob Parrish, Andy Simmonett
                          and Daniel G. A. Smith
                              RHF Reference
                        4 Threads,  14305 MiB Core
         ---------------------------------------------------------

  ==> Geometry <==

    Molecular point group: c1
    Full point group: C1

    Geometry (in Angstrom), charge = 0, multiplicity = 1:

       Center              X                  Y                   Z               Mass       
    ------------   -----------------  -----------------  -----------------  -----------------
         O           -1.001472878579     0.425805086952     2.966137965555    15.994914619570
         H           -1.060975878579    -0.504442313048     3.182859465555     1.007825032230
         H           -0.449824978579     0.518735186952     2.189370565555     1.007825032230

  Running in c1 symmetry.

  Rotational constants: A =     16.96468  B =      0.09597  C =      0.09551 [cm^-1]
  Rotational constants: A = 508588.39887  B =   2877.23286  C =   2863.30203 [MHz]
  Nuclear repulsion =    9.187140617343394

  Charge       = 0
  Multiplicity = 1
  Electrons    = 10
  Nalpha       = 5
  Nbeta        = 5

  ==> Algorithm <==

  SCF Algorithm Type is DF.
  DIIS enabled.
  MOM disabled.
  Fractional occupation disabled.
  Guess Type is SAD.
  Energy threshold   = 1.00e-08
  Density threshold  = 1.00e-08
  Integral threshold = 0.00e+00

  ==> Primary Basis <==

  Basis Set: AUG-CC-PVQZ
    Blend: AUG-CC-PVQZ
    Number of shells: 48
    Number of basis function: 172
    Number of Cartesian functions: 215
    Spherical Harmonics?: true
    Max angular momentum: 4

   => Loading Basis Set <=

    Name: (AUG-CC-PVQZ AUX)
    Role: JKFIT
    Keyword: DF_BASIS_SCF
    atoms 1   entry O          line   318 file /home/bdw2292/miniconda3/envs/amoebamdpoltype/share/psi4/basis/aug-cc-pvqz-jkfit.gbs 
    atoms 2-3 entry H          line    70 file /home/bdw2292/miniconda3/envs/amoebamdpoltype/share/psi4/basis/aug-cc-pvqz-jkfit.gbs 

  ==> Pre-Iterations <==

   -------------------------------------------------------
    Irrep   Nso     Nmo     Nalpha   Nbeta   Ndocc  Nsocc
   -------------------------------------------------------
     A        172     172       0       0       0       0
   -------------------------------------------------------
    Total     172     172       5       5       5       0
   -------------------------------------------------------

  ==> Integral Setup <==

  DFHelper Memory: AOs need 0.074 GiB; user supplied 10.477 GiB. Using in-core AOs.

  ==> MemDFJK: Density-Fitted J/K Matrices <==

    J tasked:                   Yes
    K tasked:                   Yes
    wK tasked:                   No
    OpenMP threads:               4
    Memory [MiB]:             10728
    Algorithm:                 Core
    Schwarz Cutoff:           1E-12
    Mask sparsity (%):       0.0000
    Fitting Condition:        1E-10

   => Auxiliary Basis Set <=

  Basis Set: (AUG-CC-PVQZ AUX)
    Blend: AUG-CC-PVQZ-JKFIT
    Number of shells: 70
    Number of basis function: 294
    Number of Cartesian functions: 400
    Spherical Harmonics?: true
    Max angular momentum: 5

  Minimum eigenvalue in the overlap matrix is 8.5307515668E-05.
  Using Symmetric Orthogonalization.

  SCF Guess: Superposition of Atomic Densities via on-the-fly atomic UHF.

  ==> Iterations <==

                           Total Energy        Delta E     RMS |[F,P]|

   @DF-RHF iter SAD:   -75.47961869703462   -7.54796e+01   0.00000e+00 
   @DF-RHF iter   1:   -75.98171257023905   -5.02094e-01   2.73070e-03 DIIS
   @DF-RHF iter   2:   -76.03424945884268   -5.25369e-02   1.85419e-03 DIIS
   @DF-RHF iter   3:   -76.06545139051914   -3.12019e-02   1.26266e-04 DIIS
   @DF-RHF iter   4:   -76.06584253204501   -3.91142e-04   3.08188e-05 DIIS
   @DF-RHF iter   5:   -76.06586729401273   -2.47620e-05   6.90944e-06 DIIS
   @DF-RHF iter   6:   -76.06586932314896   -2.02914e-06   1.57824e-06 DIIS
   @DF-RHF iter   7:   -76.06586944156780   -1.18419e-07   3.07734e-07 DIIS
   @DF-RHF iter   8:   -76.06586944556975   -4.00195e-09   4.92315e-08 DIIS
   @DF-RHF iter   9:   -76.06586944565346   -8.37161e-11   1.19100e-08 DIIS
   @DF-RHF iter  10:   -76.06586944565761   -4.14957e-12   1.65734e-09 DIIS
  Energy and wave function converged.


  ==> Post-Iterations <==

    Orbital Energies [Eh]
    ---------------------

    Doubly Occupied:                                                      

       1A    -20.563025     2A     -1.350258     3A     -0.725049  
       4A     -0.577646     5A     -0.509374  

    Virtual:                                                              

       6A      0.027148     7A      0.042882     8A      0.114688  
       9A      0.132613    10A      0.150379    11A      0.157883  
      12A      0.185976    13A      0.197127    14A      0.208301  
      15A      0.241252    16A      0.258891    17A      0.290469  
      18A      0.358173    19A      0.390665    20A      0.471786  
      21A      0.506779    22A      0.542998    23A      0.545770  
      24A      0.554176    25A      0.613341    26A      0.634158  
      27A      0.649554    28A      0.662648    29A      0.665776  
      30A      0.690150    31A      0.705207    32A      0.715054  
      33A      0.769609    34A      0.787841    35A      0.803431  
      36A      0.809958    37A      0.846594    38A      0.855320  
      39A      0.967397    40A      1.134306    41A      1.140478  
      42A      1.216762    43A      1.329195    44A      1.418837  
      45A      1.480667    46A      1.506204    47A      1.521715  
      48A      1.525052    49A      1.555840    50A      1.595269  
      51A      1.618263    52A      1.636875    53A      1.659626  
      54A      1.672311    55A      1.685941    56A      1.702533  
      57A      1.720144    58A      1.763152    59A      1.781162  
      60A      1.793580    61A      1.828907    62A      1.862869  
      63A      1.882185    64A      1.900964    65A      1.954650  
      66A      2.013762    67A      2.021866    68A      2.029518  
      69A      2.098824    70A      2.218554    71A      2.225678  
      72A      2.307422    73A      2.491388    74A      2.642472  
      75A      2.643741    76A      2.891317    77A      2.962915  
      78A      3.010174    79A      3.024318    80A      3.061759  
      81A      3.088679    82A      3.254558    83A      3.283877  
      84A      3.310324    85A      3.529326    86A      3.591026  
      87A      3.658140    88A      3.682338    89A      3.741225  
      90A      3.742156    91A      3.920800    92A      4.066711  
      93A      4.159502    94A      4.170243    95A      4.174768  
      96A      4.181063    97A      4.250310    98A      4.344073  
      99A      4.419181   100A      4.566979   101A      4.665850  
     102A      4.760970   103A      4.803130   104A      4.806975  
     105A      4.838802   106A      4.876067   107A      4.998867  
     108A      5.275547   109A      5.315917   110A      5.514078  
     111A      5.548485   112A      5.879463   113A      5.883429  
     114A      6.080824   115A      6.232025   116A      6.837469  
     117A      6.859268   118A      6.862730   119A      6.955711  
     120A      7.715520   121A      7.780100   122A      7.828800  
     123A      7.846769   124A      7.877826   125A      7.919770  
     126A      7.946230   127A      8.007624   128A      8.199738  
     129A      8.336411   130A      8.537635   131A      8.592348  
     132A      8.703739   133A      8.757567   134A      8.800909  
     135A      8.875875   136A      8.981670   137A      9.063757  
     138A      9.145576   139A      9.533676   140A      9.844743  
     141A      9.964010   142A      9.966412   143A     10.014538  
     144A     10.439993   145A     10.480287   146A     10.651972  
     147A     10.993982   148A     11.039743   149A     11.077056  
     150A     11.260036   151A     11.368468   152A     11.439043  
     153A     11.698572   154A     11.797250   155A     11.834435  
     156A     12.013065   157A     12.176403   158A     12.226806  
     159A     12.535616   160A     12.738760   161A     12.877357  
     162A     12.897237   163A     13.210698   164A     14.003924  
     165A     14.040821   166A     14.492261   167A     14.849613  
     168A     14.880439   169A     15.305457   170A     16.929537  
     171A     17.270965   172A     45.497542  

    Final Occupation by Irrep:
              A 
    DOCC [     5 ]

  @DF-RHF Final Energy:   -76.06586944565761

   => Energetics <=

    Nuclear Repulsion Energy =              9.1871406173433936
    One-Electron Energy =                -123.0553179452349468
    Two-Electron Energy =                  37.8023078822339471
    Total Energy =                        -76.0658694456576114

Computation Completed


Properties will be evaluated at  -1.840468,   0.716114,   5.545967 [a0]

Properties computed using the SCF density matrix

  Nuclear Dipole Moment: [e a0]
     X:     0.4096      Y:    -0.6969      Z:    -0.4661

  Electronic Dipole Moment: [e a0]
     X:    -0.0786      Y:     0.1336      Z:     0.0894

  Dipole Moment: [e a0]
     X:     0.3310      Y:    -0.5632      Z:    -0.3767     Total:     0.7541

  Dipole Moment: [D]
     X:     0.8414      Y:    -1.4316      Z:    -0.9575     Total:     1.9168


*** tstop() called on node37.bme.utexas.edu at Tue Feb 22 18:48:35 2022
Module time:
	user time   =       9.72 seconds =       0.16 minutes
	system time =       0.68 seconds =       0.01 minutes
	total time  =          4 seconds =       0.07 minutes
Total time:
	user time   =      16.85 seconds =       0.28 minutes
	system time =       1.24 seconds =       0.02 minutes
	total time  =          8 seconds =       0.13 minutes

*** tstart() called on node37.bme.utexas.edu
*** at Tue Feb 22 18:48:35 2022


  //>>>>>>>>>>>>>>>>>>>>>>>>>>>>>>>>>>>//
  //               DFMP2               //
  //<<<<<<<<<<<<<<<<<<<<<<<<<<<<<<<<<<<//

   => Loading Basis Set <=

    Name: (AUG-CC-PVQZ AUX)
    Role: RIFIT
    Keyword: DF_BASIS_MP2
    atoms 1   entry O          line   332 file /home/bdw2292/miniconda3/envs/amoebamdpoltype/share/psi4/basis/aug-cc-pvqz-ri.gbs 
    atoms 2-3 entry H          line    30 file /home/bdw2292/miniconda3/envs/amoebamdpoltype/share/psi4/basis/aug-cc-pvqz-ri.gbs 

	 --------------------------------------------------------
	                          DF-MP2                         
	      2nd-Order Density-Fitted Moller-Plesset Theory     
	              RMP2 Wavefunction,   4 Threads             
	                                                         
	        Rob Parrish, Justin Turney, Andy Simmonett,      
	           Ed Hohenstein, and C. David Sherrill          
	 --------------------------------------------------------

   => Auxiliary Basis Set <=

  Basis Set: (AUG-CC-PVQZ AUX)
    Blend: AUG-CC-PVQZ-RI
    Number of shells: 76
    Number of basis function: 328
    Number of Cartesian functions: 447
    Spherical Harmonics?: true
    Max angular momentum: 5

	 --------------------------------------------------------
	                 NBF =   172, NAUX =   328
	 --------------------------------------------------------
	   CLASS    FOCC     OCC    AOCC    AVIR     VIR    FVIR
	   PAIRS       1       5       4     167     167       0
	 --------------------------------------------------------

	-----------------------------------------------------------
	 ==================> DF-MP2 Energies <==================== 
	-----------------------------------------------------------
	 Reference Energy          =     -76.0658694456576114 [Eh]
	 Singles Energy            =      -0.0000000000000000 [Eh]
	 Same-Spin Energy          =      -0.0671579842004730 [Eh]
	 Opposite-Spin Energy      =      -0.2184969806175546 [Eh]
	 Correlation Energy        =      -0.2856549648180276 [Eh]
	 Total Energy              =     -76.3515244104756334 [Eh]
	-----------------------------------------------------------
	 ================> DF-SCS-MP2 Energies <================== 
	-----------------------------------------------------------
	 SCS Same-Spin Scale       =       0.3333333333333333 [-]
	 SCS Opposite-Spin Scale   =       1.2000000000000000 [-]
	 SCS Same-Spin Energy      =      -0.0223859947334910 [Eh]
	 SCS Opposite-Spin Energy  =      -0.2621963767410656 [Eh]
	 SCS Correlation Energy    =      -0.2845823714745566 [Eh]
	 SCS Total Energy          =     -76.3504518171321678 [Eh]
	-----------------------------------------------------------


*** tstop() called on node37.bme.utexas.edu at Tue Feb 22 18:48:36 2022
Module time:
	user time   =       2.78 seconds =       0.05 minutes
	system time =       0.18 seconds =       0.00 minutes
	total time  =          1 seconds =       0.02 minutes
Total time:
	user time   =      19.64 seconds =       0.33 minutes
	system time =       1.42 seconds =       0.02 minutes
	total time  =          9 seconds =       0.15 minutes

  //>>>>>>>>>>>>>>>>>>>>>>>>>>>>>>>>>>>//
  //  CBS Results: mp2/aug-cc-pV[TQ]Z  //
  //<<<<<<<<<<<<<<<<<<<<<<<<<<<<<<<<<<<//


   ==> HF <==

   HI-zeta (4) Energy:               -76.065869445658


   ==> Helgaker 2-point correlated extrapolation for method: MP2 <==

   LO-zeta (3) Energy:               -76.328524715982
   HI-zeta (4) Energy:               -76.351524410476
   Alpha (exponent) Value:             3.000000000000
   Extrapolated Energy:              -76.368307971323

   @Extrapolated MP2/(T,Q):          -76.368307971323



   ==> Helgaker 2-point correlated extrapolation for method: HF <==

   LO-zeta (3) Energy:               -76.060480043572
   HI-zeta (4) Energy:               -76.065869445658
   Alpha (exponent) Value:             3.000000000000
   Extrapolated Energy:              -76.069802252585

   @Extrapolated HF/(T,Q):           -76.069802252585


   ==> Components <==

  ---------------------------------------------------------------------------------------------------------
                          Method / Basis                      Rqd      Energy [Eh]   Variable
  ---------------------------------------------------------------------------------------------------------
                              hf / aug-cc-pvtz                  *     -76.06048004   HF TOTAL ENERGY
                             mp2 / aug-cc-pvtz                  *     -76.32852472   MP2 TOTAL ENERGY
                              hf / aug-cc-pvqz                  *     -76.06586945   HF TOTAL ENERGY
                             mp2 / aug-cc-pvqz                  *     -76.35152441   MP2 TOTAL ENERGY
  ---------------------------------------------------------------------------------------------------------

   ==> Stages <==

  ---------------------------------------------------------------------------------------------------------
      Stage               Method / Basis                       Wt      Energy [Eh]   Scheme
  ---------------------------------------------------------------------------------------------------------
        scf                   hf / aug-cc-pvqz                  1     -76.06586945   xtpl_highest_1
       corl                  mp2 / aug-cc-pv[tq]z               1     -76.36830797   corl_xtpl_helgaker_2
       corl                   hf / aug-cc-pv[tq]z              -1     -76.06980225   corl_xtpl_helgaker_2
  ---------------------------------------------------------------------------------------------------------

   ==> CBS <==

  ---------------------------------------------------------------------------------------------------------
      Stage               Method / Basis                               Energy [Eh]   Scheme
  ---------------------------------------------------------------------------------------------------------
        scf                   hf / aug-cc-pvqz                        -76.06586945   xtpl_highest_1
       corl                  mp2 / aug-cc-pv[tq]z                      -0.29850572   corl_xtpl_helgaker_2
      total                  CBS                                      -76.36437516   
  ---------------------------------------------------------------------------------------------------------
   => Loading Basis Set <=

    Name: DEF2-SVP
    Role: ORBITAL
    Keyword: BASIS
    atoms 1   entry O          line   130 file /home/bdw2292/miniconda3/envs/amoebamdpoltype/share/psi4/basis/def2-svp.gbs 
    atoms 2-3 entry H          line    15 file /home/bdw2292/miniconda3/envs/amoebamdpoltype/share/psi4/basis/def2-svp.gbs 


       N-Body: Complex Energy (fragments = (2,), basis = (2,):   -76.36437516439555)

       N-Body: Computing complex (2/4) with fragments (2,) in the basis of fragments (1, 2).


  //>>>>>>>>>>>>>>>>>>>>>>>>>>>>>>>>>>>//
  //   CBS Setup: mp2/aug-cc-pV[TQ]Z   //
  //<<<<<<<<<<<<<<<<<<<<<<<<<<<<<<<<<<<//

    Naive listing of computations required.
             hf / aug-cc-pvqz              for  HF TOTAL ENERGY
            mp2 / aug-cc-pvtz              for  MP2 TOTAL ENERGY
            mp2 / aug-cc-pvqz              for  MP2 TOTAL ENERGY
             hf / aug-cc-pvtz              for  HF TOTAL ENERGY
             hf / aug-cc-pvqz              for  HF TOTAL ENERGY

    Enlightened listing of computations required.
            mp2 / aug-cc-pvtz              for  MP2 TOTAL ENERGY
            mp2 / aug-cc-pvqz              for  MP2 TOTAL ENERGY

    Full listing of computations to be obtained (required and bonus).
             hf / aug-cc-pvtz              for  HF TOTAL ENERGY
            mp2 / aug-cc-pvtz              for  MP2 TOTAL ENERGY
             hf / aug-cc-pvqz              for  HF TOTAL ENERGY
            mp2 / aug-cc-pvqz              for  MP2 TOTAL ENERGY

  //>>>>>>>>>>>>>>>>>>>>>>>>>>>>>>>>>>>>//
  // CBS Computation: MP2 / AUG-CC-PVTZ //
  //<<<<<<<<<<<<<<<<<<<<<<<<<<<<<<<<<<<<//

    SCF Algorithm Type (re)set to DF.

*** tstart() called on node37.bme.utexas.edu
*** at Tue Feb 22 18:48:37 2022

   => Loading Basis Set <=

    Name: AUG-CC-PVTZ
    Role: ORBITAL
    Keyword: BASIS
    atoms 1-4 entry CL         line   984 file /home/bdw2292/miniconda3/envs/amoebamdpoltype/share/psi4/basis/aug-cc-pvtz.gbs 
    atoms 5   entry C          line   235 file /home/bdw2292/miniconda3/envs/amoebamdpoltype/share/psi4/basis/aug-cc-pvtz.gbs 
    atoms 6   entry O          line   327 file /home/bdw2292/miniconda3/envs/amoebamdpoltype/share/psi4/basis/aug-cc-pvtz.gbs 
    atoms 7-8 entry H          line    36 file /home/bdw2292/miniconda3/envs/amoebamdpoltype/share/psi4/basis/aug-cc-pvtz.gbs 


         ---------------------------------------------------------
                                   SCF
               by Justin Turney, Rob Parrish, Andy Simmonett
                          and Daniel G. A. Smith
                              RHF Reference
                        4 Threads,  14305 MiB Core
         ---------------------------------------------------------

  ==> Geometry <==

    Molecular point group: c1
    Full point group: C1

    Geometry (in Angstrom), charge = 0, multiplicity = 1:

       Center              X                  Y                   Z               Mass       
    ------------   -----------------  -----------------  -----------------  -----------------
      Gh(CL)         -1.120467678579    -1.146150413048     0.272491365555    34.968852682000
      Gh(CL)         -0.612462078579     1.533255286952    -0.675229034445    34.968852682000
      Gh(CL)          0.799450521421    -0.703948313048    -1.845691534445    34.968852682000
      Gh(CL)          1.395247621421     0.137426486952     0.857570365555    34.968852682000
      Gh(C)           0.116132121421    -0.045926313048    -0.351721134445    12.000000000000
         O           -1.001472878579     0.425805086952     2.966137965555    15.994914619570
         H           -1.060975878579    -0.504442313048     3.182859465555     1.007825032230
         H           -0.449824978579     0.518735186952     2.189370565555     1.007825032230

  Running in c1 symmetry.

  Rotational constants: A =      0.05768  B =      0.03451  C =      0.03443 [cm^-1]
  Rotational constants: A =   1729.33110  B =   1034.58108  C =   1032.07081 [MHz]
  Nuclear repulsion =    9.187140617343394

  Charge       = 0
  Multiplicity = 1
  Electrons    = 10
  Nalpha       = 5
  Nbeta        = 5

  ==> Algorithm <==

  SCF Algorithm Type is DF.
  DIIS enabled.
  MOM disabled.
  Fractional occupation disabled.
  Guess Type is SAD.
  Energy threshold   = 1.00e-08
  Density threshold  = 1.00e-08
  Integral threshold = 0.00e+00

  ==> Primary Basis <==

  Basis Set: AUG-CC-PVTZ
    Blend: AUG-CC-PVTZ
    Number of shells: 110
    Number of basis function: 338
    Number of Cartesian functions: 396
    Spherical Harmonics?: true
    Max angular momentum: 3

   => Loading Basis Set <=

    Name: (AUG-CC-PVTZ AUX)
    Role: JKFIT
    Keyword: DF_BASIS_SCF
    atoms 1-4 entry CL         line   816 file /home/bdw2292/miniconda3/envs/amoebamdpoltype/share/psi4/basis/aug-cc-pvtz-jkfit.gbs 
    atoms 5   entry C          line   162 file /home/bdw2292/miniconda3/envs/amoebamdpoltype/share/psi4/basis/aug-cc-pvtz-jkfit.gbs 
    atoms 6   entry O          line   286 file /home/bdw2292/miniconda3/envs/amoebamdpoltype/share/psi4/basis/aug-cc-pvtz-jkfit.gbs 
    atoms 7-8 entry H          line    70 file /home/bdw2292/miniconda3/envs/amoebamdpoltype/share/psi4/basis/aug-cc-pvtz-jkfit.gbs 

  ==> Pre-Iterations <==

   -------------------------------------------------------
    Irrep   Nso     Nmo     Nalpha   Nbeta   Ndocc  Nsocc
   -------------------------------------------------------
     A        338     338       0       0       0       0
   -------------------------------------------------------
    Total     338     338       5       5       5       0
   -------------------------------------------------------

  ==> Integral Setup <==

  DFHelper Memory: AOs need 0.770 GiB; user supplied 10.477 GiB. Using in-core AOs.

  ==> MemDFJK: Density-Fitted J/K Matrices <==

    J tasked:                   Yes
    K tasked:                   Yes
    wK tasked:                   No
    OpenMP threads:               4
    Memory [MiB]:             10728
    Algorithm:                 Core
    Schwarz Cutoff:           1E-12
    Mask sparsity (%):       1.9712
    Fitting Condition:        1E-10

   => Auxiliary Basis Set <=

  Basis Set: (AUG-CC-PVTZ AUX)
    Blend: AUG-CC-PVTZ-JKFIT
    Number of shells: 256
    Number of basis function: 884
    Number of Cartesian functions: 1092
    Spherical Harmonics?: true
    Max angular momentum: 4

  Minimum eigenvalue in the overlap matrix is 6.3194583918E-05.
  Using Symmetric Orthogonalization.

  SCF Guess: Superposition of Atomic Densities via on-the-fly atomic UHF.

  ==> Iterations <==

                           Total Energy        Delta E     RMS |[F,P]|

   @DF-RHF iter SAD:   -75.47446190498002   -7.54745e+01   0.00000e+00 
   @DF-RHF iter   1:   -75.97669661329255   -5.02235e-01   1.38680e-03 DIIS
   @DF-RHF iter   2:   -76.02914165105214   -5.24450e-02   9.39521e-04 DIIS
   @DF-RHF iter   3:   -76.06014462260825   -3.10030e-02   6.38009e-05 DIIS
   @DF-RHF iter   4:   -76.06053388985121   -3.89267e-04   1.52283e-05 DIIS
   @DF-RHF iter   5:   -76.06055780980240   -2.39200e-05   3.42677e-06 DIIS
   @DF-RHF iter   6:   -76.06055976143217   -1.95163e-06   7.63253e-07 DIIS
   @DF-RHF iter   7:   -76.06055986926330   -1.07831e-07   1.44494e-07 DIIS
   @DF-RHF iter   8:   -76.06055987269463   -3.43132e-09   2.39496e-08 DIIS
   @DF-RHF iter   9:   -76.06055987276879   -7.41665e-11   5.93936e-09 DIIS
  Energy and wave function converged.


  ==> Post-Iterations <==

    Orbital Energies [Eh]
    ---------------------

    Doubly Occupied:                                                      

       1A    -20.565395     2A     -1.350907     3A     -0.725007  
       4A     -0.577530     5A     -0.509217  

    Virtual:                                                              

       6A      0.020702     7A      0.040267     8A      0.050631  
       9A      0.053672    10A      0.068273    11A      0.084944  
      12A      0.100349    13A      0.103936    14A      0.105237  
      15A      0.107979    16A      0.120890    17A      0.129616  
      18A      0.150341    19A      0.151954    20A      0.156629  
      21A      0.165733    22A      0.166345    23A      0.172266  
      24A      0.183209    25A      0.197495    26A      0.198541  
      27A      0.201096    28A      0.207784    29A      0.211975  
      30A      0.234380    31A      0.250808    32A      0.261421  
      33A      0.283839    34A      0.297277    35A      0.306362  
      36A      0.319704    37A      0.322964    38A      0.323500  
      39A      0.337842    40A      0.363043    41A      0.375214  
      42A      0.382630    43A      0.393987    44A      0.405113  
      45A      0.406136    46A      0.436230    47A      0.438585  
      48A      0.448933    49A      0.463049    50A      0.470647  
      51A      0.490338    52A      0.500238    53A      0.513727  
      54A      0.517831    55A      0.526569    56A      0.534995  
      57A      0.535797    58A      0.543524    59A      0.548627  
      60A      0.552677    61A      0.577896    62A      0.586567  
      63A      0.606940    64A      0.609966    65A      0.616761  
      66A      0.629051    67A      0.640761    68A      0.645468  
      69A      0.664896    70A      0.698125    71A      0.707847  
      72A      0.715240    73A      0.723512    74A      0.733431  
      75A      0.737381    76A      0.744908    77A      0.750411  
      78A      0.756515    79A      0.762936    80A      0.777078  
      81A      0.779879    82A      0.782919    83A      0.800455  
      84A      0.809710    85A      0.829075    86A      0.840777  
      87A      0.882040    88A      0.900366    89A      0.913543  
      90A      0.951416    91A      0.958636    92A      0.979264  
      93A      1.001120    94A      1.022983    95A      1.042224  
      96A      1.054379    97A      1.081000    98A      1.120080  
      99A      1.142276   100A      1.164504   101A      1.176477  
     102A      1.197476   103A      1.238776   104A      1.249224  
     105A      1.254139   106A      1.270985   107A      1.280204  
     108A      1.302229   109A      1.308491   110A      1.320460  
     111A      1.331502   112A      1.339265   113A      1.347120  
     114A      1.349336   115A      1.359703   116A      1.362521  
     117A      1.379414   118A      1.391668   119A      1.404572  
     120A      1.417520   121A      1.433128   122A      1.447301  
     123A      1.456429   124A      1.464047   125A      1.477318  
     126A      1.481977   127A      1.498255   128A      1.505509  
     129A      1.514953   130A      1.520416   131A      1.529262  
     132A      1.538102   133A      1.545478   134A      1.552781  
     135A      1.557113   136A      1.564467   137A      1.569327  
     138A      1.586363   139A      1.596515   140A      1.607579  
     141A      1.619762   142A      1.634795   143A      1.643703  
     144A      1.650772   145A      1.660151   146A      1.666020  
     147A      1.680220   148A      1.686794   149A      1.691700  
     150A      1.706618   151A      1.726219   152A      1.747513  
     153A      1.752901   154A      1.764505   155A      1.782150  
     156A      1.800557   157A      1.817224   158A      1.837009  
     159A      1.863186   160A      1.873391   161A      1.890010  
     162A      1.919377   163A      1.933601   164A      1.948159  
     165A      1.975727   166A      2.009760   167A      2.073223  
     168A      2.123370   169A      2.127764   170A      2.141602  
     171A      2.147117   172A      2.156812   173A      2.174088  
     174A      2.185229   175A      2.220265   176A      2.245071  
     177A      2.275346   178A      2.306297   179A      2.330029  
     180A      2.359918   181A      2.381459   182A      2.423996  
     183A      2.452129   184A      2.471440   185A      2.485673  
     186A      2.511983   187A      2.517780   188A      2.531716  
     189A      2.560337   190A      2.568076   191A      2.586545  
     192A      2.612431   193A      2.698167   194A      2.713312  
     195A      2.734665   196A      2.749907   197A      2.773701  
     198A      2.787967   199A      2.849318   200A      2.931851  
     201A      2.999815   202A      3.059288   203A      3.114228  
     204A      3.752427   205A      3.789001   206A      3.821724  
     207A      3.840105   208A      3.908411   209A      3.953237  
     210A      3.967267   211A      3.980619   212A      3.985523  
     213A      3.993933   214A      3.999333   215A      4.022163  
     216A      4.029683   217A      4.044609   218A      4.052939  
     219A      4.059944   220A      4.074839   221A      4.086828  
     222A      4.093602   223A      4.119901   224A      4.127002  
     225A      4.134660   226A      4.142990   227A      4.147462  
     228A      4.165029   229A      4.176071   230A      4.193885  
     231A      4.210405   232A      4.216135   233A      4.233158  
     234A      4.235684   235A      4.241434   236A      4.255454  
     237A      4.270610   238A      4.273685   239A      4.283073  
     240A      4.296101   241A      4.321770   242A      4.336010  
     243A      4.392536   244A      4.410969   245A      4.437995  
     246A      4.446334   247A      4.456220   248A      4.467354  
     249A      4.468703   250A      4.487288   251A      4.504040  
     252A      4.553116   253A      4.588716   254A      4.610099  
     255A      4.699444   256A      4.706772   257A      4.734199  
     258A      4.737744   259A      4.754924   260A      4.769499  
     261A      4.773788   262A      4.778497   263A      4.795155  
     264A      4.801854   265A      4.808382   266A      4.821833  
     267A      4.825149   268A      4.828109   269A      4.839180  
     270A      4.859517   271A      4.887555   272A      4.893764  
     273A      4.930535   274A      4.954154   275A      4.966664  
     276A      5.055682   277A      5.102715   278A      5.108312  
     279A      5.122291   280A      5.132332   281A      5.154046  
     282A      5.209608   283A      5.247093   284A      5.291013  
     285A      5.377428   286A      5.393585   287A      5.398829  
     288A      5.402478   289A      5.425747   290A      5.451376  
     291A      5.460679   292A      5.581607   293A      5.628040  
     294A      5.801445   295A      5.918988   296A      6.132214  
     297A      6.144641   298A      6.152691   299A      6.242557  
     300A      6.572421   301A      6.825051   302A      6.915257  
     303A      7.238100   304A      7.320333   305A      7.350288  
     306A      7.355955   307A      7.452998   308A      7.538428  
     309A      7.568870   310A      7.778212   311A      7.894866  
     312A      7.904196   313A      7.933819   314A      7.975852  
     315A      8.077462   316A      8.831105   317A     15.547576  
     318A     16.454887   319A     16.538457   320A     16.578225  
     321A     17.091557   322A     28.054161   323A     28.097598  
     324A     28.134300   325A     28.168842   326A     28.207200  
     327A     28.299132   328A     28.360648   329A     28.404272  
     330A     28.864174   331A     28.879563   332A     28.960232  
     333A     29.546051   334A     40.784847   335A    160.949579  
     336A    161.046148   337A    161.053835   338A    161.063006  

    Final Occupation by Irrep:
              A 
    DOCC [     5 ]

  @DF-RHF Final Energy:   -76.06055987276879

   => Energetics <=

    Nuclear Repulsion Energy =              9.1871406173433936
    One-Electron Energy =                -123.0392858001933689
    Two-Electron Energy =                  37.7915853100811958
    Total Energy =                        -76.0605598727687777

Computation Completed


Properties will be evaluated at   0.000000,  -0.000000,   0.000000 [a0]

Properties computed using the SCF density matrix

  Nuclear Dipole Moment: [e a0]
     X:   -17.9951      Y:     6.4642      Z:    54.9936

  Electronic Dipole Moment: [e a0]
     X:    18.3265      Y:    -7.0277      Z:   -55.3707

  Dipole Moment: [e a0]
     X:     0.3315      Y:    -0.5634      Z:    -0.3772     Total:     0.7547

  Dipole Moment: [D]
     X:     0.8425      Y:    -1.4321      Z:    -0.9586     Total:     1.9182


*** tstop() called on node37.bme.utexas.edu at Tue Feb 22 18:48:53 2022
Module time:
	user time   =      43.34 seconds =       0.72 minutes
	system time =       3.45 seconds =       0.06 minutes
	total time  =         16 seconds =       0.27 minutes
Total time:
	user time   =      64.58 seconds =       1.08 minutes
	system time =       4.93 seconds =       0.08 minutes
	total time  =         26 seconds =       0.43 minutes

*** tstart() called on node37.bme.utexas.edu
*** at Tue Feb 22 18:48:53 2022


  //>>>>>>>>>>>>>>>>>>>>>>>>>>>>>>>>>>>//
  //               DFMP2               //
  //<<<<<<<<<<<<<<<<<<<<<<<<<<<<<<<<<<<//

   => Loading Basis Set <=

    Name: (AUG-CC-PVTZ AUX)
    Role: RIFIT
    Keyword: DF_BASIS_MP2
    atoms 1-4 entry CL         line   742 file /home/bdw2292/miniconda3/envs/amoebamdpoltype/share/psi4/basis/aug-cc-pvtz-ri.gbs 
    atoms 5   entry C          line   148 file /home/bdw2292/miniconda3/envs/amoebamdpoltype/share/psi4/basis/aug-cc-pvtz-ri.gbs 
    atoms 6   entry O          line   264 file /home/bdw2292/miniconda3/envs/amoebamdpoltype/share/psi4/basis/aug-cc-pvtz-ri.gbs 
    atoms 7-8 entry H          line    30 file /home/bdw2292/miniconda3/envs/amoebamdpoltype/share/psi4/basis/aug-cc-pvtz-ri.gbs 

	 --------------------------------------------------------
	                          DF-MP2                         
	      2nd-Order Density-Fitted Moller-Plesset Theory     
	              RMP2 Wavefunction,   4 Threads             
	                                                         
	        Rob Parrish, Justin Turney, Andy Simmonett,      
	           Ed Hohenstein, and C. David Sherrill          
	 --------------------------------------------------------

   => Auxiliary Basis Set <=

  Basis Set: (AUG-CC-PVTZ AUX)
    Blend: AUG-CC-PVTZ-RI
    Number of shells: 232
    Number of basis function: 892
    Number of Cartesian functions: 1146
    Spherical Harmonics?: true
    Max angular momentum: 4

	 --------------------------------------------------------
	                 NBF =   338, NAUX =   892
	 --------------------------------------------------------
	   CLASS    FOCC     OCC    AOCC    AVIR     VIR    FVIR
	   PAIRS       1       5       4     333     333       0
	 --------------------------------------------------------

	-----------------------------------------------------------
	 ==================> DF-MP2 Energies <==================== 
	-----------------------------------------------------------
	 Reference Energy          =     -76.0605598727687919 [Eh]
	 Singles Energy            =      -0.0000000000000000 [Eh]
	 Same-Spin Energy          =      -0.0651152801906175 [Eh]
	 Opposite-Spin Energy      =      -0.2032756995318987 [Eh]
	 Correlation Energy        =      -0.2683909797225162 [Eh]
	 Total Energy              =     -76.3289508524913032 [Eh]
	-----------------------------------------------------------
	 ================> DF-SCS-MP2 Energies <================== 
	-----------------------------------------------------------
	 SCS Same-Spin Scale       =       0.3333333333333333 [-]
	 SCS Opposite-Spin Scale   =       1.2000000000000000 [-]
	 SCS Same-Spin Energy      =      -0.0217050933968725 [Eh]
	 SCS Opposite-Spin Energy  =      -0.2439308394382785 [Eh]
	 SCS Correlation Energy    =      -0.2656359328351510 [Eh]
	 SCS Total Energy          =     -76.3261958056039447 [Eh]
	-----------------------------------------------------------


*** tstop() called on node37.bme.utexas.edu at Tue Feb 22 18:49:00 2022
Module time:
	user time   =      19.29 seconds =       0.32 minutes
	system time =       0.91 seconds =       0.02 minutes
	total time  =          7 seconds =       0.12 minutes
Total time:
	user time   =      83.87 seconds =       1.40 minutes
	system time =       5.84 seconds =       0.10 minutes
	total time  =         33 seconds =       0.55 minutes

  //>>>>>>>>>>>>>>>>>>>>>>>>>>>>>>>>>>>>//
  // CBS Computation: MP2 / AUG-CC-PVQZ //
  //<<<<<<<<<<<<<<<<<<<<<<<<<<<<<<<<<<<<//

    SCF Algorithm Type (re)set to DF.

*** tstart() called on node37.bme.utexas.edu
*** at Tue Feb 22 18:49:00 2022

   => Loading Basis Set <=

    Name: AUG-CC-PVQZ
    Role: ORBITAL
    Keyword: BASIS
    atoms 1-4 entry CL         line  1218 file /home/bdw2292/miniconda3/envs/amoebamdpoltype/share/psi4/basis/aug-cc-pvqz.gbs 
    atoms 5   entry C          line   299 file /home/bdw2292/miniconda3/envs/amoebamdpoltype/share/psi4/basis/aug-cc-pvqz.gbs 
    atoms 6   entry O          line   419 file /home/bdw2292/miniconda3/envs/amoebamdpoltype/share/psi4/basis/aug-cc-pvqz.gbs 
    atoms 7-8 entry H          line    36 file /home/bdw2292/miniconda3/envs/amoebamdpoltype/share/psi4/basis/aug-cc-pvqz.gbs 


         ---------------------------------------------------------
                                   SCF
               by Justin Turney, Rob Parrish, Andy Simmonett
                          and Daniel G. A. Smith
                              RHF Reference
                        4 Threads,  14305 MiB Core
         ---------------------------------------------------------

  ==> Geometry <==

    Molecular point group: c1
    Full point group: C1

    Geometry (in Angstrom), charge = 0, multiplicity = 1:

       Center              X                  Y                   Z               Mass       
    ------------   -----------------  -----------------  -----------------  -----------------
      Gh(CL)         -1.120467678579    -1.146150413048     0.272491365555    34.968852682000
      Gh(CL)         -0.612462078579     1.533255286952    -0.675229034445    34.968852682000
      Gh(CL)          0.799450521421    -0.703948313048    -1.845691534445    34.968852682000
      Gh(CL)          1.395247621421     0.137426486952     0.857570365555    34.968852682000
      Gh(C)           0.116132121421    -0.045926313048    -0.351721134445    12.000000000000
         O           -1.001472878579     0.425805086952     2.966137965555    15.994914619570
         H           -1.060975878579    -0.504442313048     3.182859465555     1.007825032230
         H           -0.449824978579     0.518735186952     2.189370565555     1.007825032230

  Running in c1 symmetry.

  Rotational constants: A =      0.05768  B =      0.03451  C =      0.03443 [cm^-1]
  Rotational constants: A =   1729.33110  B =   1034.58108  C =   1032.07081 [MHz]
  Nuclear repulsion =    9.187140617343394

  Charge       = 0
  Multiplicity = 1
  Electrons    = 10
  Nalpha       = 5
  Nbeta        = 5

  ==> Algorithm <==

  SCF Algorithm Type is DF.
  DIIS enabled.
  MOM disabled.
  Fractional occupation disabled.
  Guess Type is SAD.
  Energy threshold   = 1.00e-08
  Density threshold  = 1.00e-08
  Integral threshold = 0.00e+00

  ==> Primary Basis <==

  Basis Set: AUG-CC-PVQZ
    Blend: AUG-CC-PVQZ
    Number of shells: 156
    Number of basis function: 588
    Number of Cartesian functions: 756
    Spherical Harmonics?: true
    Max angular momentum: 4

   => Loading Basis Set <=

    Name: (AUG-CC-PVQZ AUX)
    Role: JKFIT
    Keyword: DF_BASIS_SCF
    atoms 1-4 entry CL         line   904 file /home/bdw2292/miniconda3/envs/amoebamdpoltype/share/psi4/basis/aug-cc-pvqz-jkfit.gbs 
    atoms 5   entry C          line   178 file /home/bdw2292/miniconda3/envs/amoebamdpoltype/share/psi4/basis/aug-cc-pvqz-jkfit.gbs 
    atoms 6   entry O          line   318 file /home/bdw2292/miniconda3/envs/amoebamdpoltype/share/psi4/basis/aug-cc-pvqz-jkfit.gbs 
    atoms 7-8 entry H          line    70 file /home/bdw2292/miniconda3/envs/amoebamdpoltype/share/psi4/basis/aug-cc-pvqz-jkfit.gbs 

  ==> Pre-Iterations <==

   -------------------------------------------------------
    Irrep   Nso     Nmo     Nalpha   Nbeta   Ndocc  Nsocc
   -------------------------------------------------------
     A        588     588       0       0       0       0
   -------------------------------------------------------
    Total     588     588       5       5       5       0
   -------------------------------------------------------

  ==> Integral Setup <==

  DFHelper Memory: AOs need 2.987 GiB; user supplied 10.477 GiB. Using in-core AOs.

  ==> MemDFJK: Density-Fitted J/K Matrices <==

    J tasked:                   Yes
    K tasked:                   Yes
    wK tasked:                   No
    OpenMP threads:               4
    Memory [MiB]:             10728
    Algorithm:                 Disk
    Schwarz Cutoff:           1E-12
    Mask sparsity (%):       4.5508
    Fitting Condition:        1E-10

   => Auxiliary Basis Set <=

  Basis Set: (AUG-CC-PVQZ AUX)
    Blend: AUG-CC-PVQZ-JKFIT
    Number of shells: 288
    Number of basis function: 1172
    Number of Cartesian functions: 1586
    Spherical Harmonics?: true
    Max angular momentum: 5

  Minimum eigenvalue in the overlap matrix is 1.0331604215E-05.
  Using Symmetric Orthogonalization.

  SCF Guess: Superposition of Atomic Densities via on-the-fly atomic UHF.

  ==> Iterations <==

                           Total Energy        Delta E     RMS |[F,P]|

   @DF-RHF iter SAD:   -75.47961868756092   -7.54796e+01   0.00000e+00 
   @DF-RHF iter   1:   -75.98174045178570   -5.02122e-01   7.98803e-04 DIIS
   @DF-RHF iter   2:   -76.03428150513017   -5.25411e-02   5.42408e-04 DIIS
   @DF-RHF iter   3:   -76.06548130542981   -3.11998e-02   3.69388e-05 DIIS
   @DF-RHF iter   4:   -76.06587249313399   -3.91188e-04   9.01494e-06 DIIS
   @DF-RHF iter   5:   -76.06589725531478   -2.47622e-05   2.02195e-06 DIIS
   @DF-RHF iter   6:   -76.06589928610818   -2.03079e-06   4.61795e-07 DIIS
   @DF-RHF iter   7:   -76.06589940465750   -1.18549e-07   9.01585e-08 DIIS
   @DF-RHF iter   8:   -76.06589940867883   -4.02133e-09   1.44391e-08 DIIS
   @DF-RHF iter   9:   -76.06589940876290   -8.40714e-11   3.48995e-09 DIIS
  Energy and wave function converged.


  ==> Post-Iterations <==

    Orbital Energies [Eh]
    ---------------------

    Doubly Occupied:                                                      

       1A    -20.562994     2A     -1.350226     3A     -0.725021  
       4A     -0.577618     5A     -0.509361  

    Virtual:                                                              

       6A      0.017914     7A      0.035931     8A      0.043998  
       9A      0.046101    10A      0.060159    11A      0.076056  
      12A      0.085457    13A      0.087174    14A      0.088405  
      15A      0.089962    16A      0.103245    17A      0.110536  
      18A      0.127900    19A      0.129545    20A      0.133640  
      21A      0.140460    22A      0.140575    23A      0.144728  
      24A      0.158116    25A      0.168465    26A      0.169985  
      27A      0.173750    28A      0.175341    29A      0.180054  
      30A      0.202823    31A      0.212858    32A      0.223321  
      33A      0.234623    34A      0.242822    35A      0.244890  
      36A      0.250853    37A      0.253066    38A      0.256845  
      39A      0.277753    40A      0.288781    41A      0.294928  
      42A      0.309344    43A      0.315620    44A      0.325191  
      45A      0.327056    46A      0.332295    47A      0.336033  
      48A      0.354979    49A      0.365979    50A      0.373882  
      51A      0.381555    52A      0.384038    53A      0.398221  
      54A      0.405221    55A      0.408273    56A      0.417475  
      57A      0.421248    58A      0.424666    59A      0.426980  
      60A      0.433730    61A      0.445399    62A      0.449121  
      63A      0.452566    64A      0.459733    65A      0.473688  
      66A      0.478089    67A      0.484710    68A      0.494185  
      69A      0.512893    70A      0.529286    71A      0.532574  
      72A      0.534303    73A      0.544335    74A      0.545807  
      75A      0.554036    76A      0.562238    77A      0.562475  
      78A      0.569864    79A      0.580268    80A      0.584149  
      81A      0.592690    82A      0.598849    83A      0.617611  
      84A      0.632813    85A      0.646779    86A      0.657288  
      87A      0.682156    88A      0.697762    89A      0.698279  
      90A      0.715190    91A      0.743112    92A      0.747534  
      93A      0.755624    94A      0.772304    95A      0.798598  
      96A      0.813441    97A      0.824820    98A      0.840181  
      99A      0.857797   100A      0.864463   101A      0.876614  
     102A      0.883748   103A      0.899123   104A      0.903499  
     105A      0.909182   106A      0.922859   107A      0.926850  
     108A      0.935362   109A      0.939397   110A      0.949781  
     111A      0.960814   112A      0.964117   113A      0.972912  
     114A      0.986694   115A      0.989873   116A      0.997375  
     117A      1.001724   118A      1.007156   119A      1.011096  
     120A      1.014508   121A      1.018390   122A      1.027827  
     123A      1.041186   124A      1.043863   125A      1.053058  
     126A      1.056215   127A      1.060103   128A      1.067772  
     129A      1.074474   130A      1.083333   131A      1.094062  
     132A      1.102002   133A      1.112078   134A      1.131689  
     135A      1.132179   136A      1.143101   137A      1.152295  
     138A      1.157040   139A      1.165734   140A      1.177714  
     141A      1.181768   142A      1.194447   143A      1.204694  
     144A      1.213090   145A      1.217011   146A      1.225644  
     147A      1.234752   148A      1.239465   149A      1.248499  
     150A      1.251836   151A      1.258411   152A      1.277852  
     153A      1.287717   154A      1.290484   155A      1.310311  
     156A      1.320841   157A      1.354240   158A      1.373942  
     159A      1.396076   160A      1.396716   161A      1.405796  
     162A      1.419881   163A      1.440669   164A      1.496023  
     165A      1.499058   166A      1.512392   167A      1.559627  
     168A      1.576413   169A      1.598657   170A      1.600959  
     171A      1.613620   172A      1.628169   173A      1.642144  
     174A      1.646130   175A      1.649129   176A      1.659379  
     177A      1.664430   178A      1.676484   179A      1.677863  
     180A      1.687907   181A      1.697046   182A      1.706364  
     183A      1.721367   184A      1.750913   185A      1.753995  
     186A      1.768335   187A      1.776093   188A      1.790321  
     189A      1.810404   190A      1.815983   191A      1.845230  
     192A      1.850854   193A      1.861952   194A      1.867935  
     195A      1.876288   196A      1.897716   197A      1.910498  
     198A      1.924635   199A      1.927768   200A      1.944069  
     201A      1.947501   202A      1.957617   203A      1.973354  
     204A      1.982144   205A      1.988516   206A      1.999156  
     207A      2.005128   208A      2.015020   209A      2.030229  
     210A      2.065306   211A      2.082443   212A      2.092410  
     213A      2.115855   214A      2.125390   215A      2.147508  
     216A      2.178905   217A      2.183782   218A      2.200259  
     219A      2.208433   220A      2.218300   221A      2.232680  
     222A      2.257659   223A      2.264352   224A      2.276128  
     225A      2.291756   226A      2.302540   227A      2.310766  
     228A      2.319248   229A      2.345736   230A      2.356525  
     231A      2.372210   232A      2.378593   233A      2.386388  
     234A      2.393032   235A      2.413614   236A      2.432657  
     237A      2.445108   238A      2.449326   239A      2.464794  
     240A      2.471666   241A      2.475472   242A      2.478880  
     243A      2.485894   244A      2.489121   245A      2.507053  
     246A      2.510709   247A      2.518922   248A      2.526008  
     249A      2.550098   250A      2.553306   251A      2.558526  
     252A      2.561174   253A      2.573120   254A      2.578951  
     255A      2.593764   256A      2.599595   257A      2.603018  
     258A      2.612412   259A      2.616858   260A      2.629260  
     261A      2.642270   262A      2.652112   263A      2.661092  
     264A      2.662249   265A      2.670600   266A      2.688880  
     267A      2.703148   268A      2.718096   269A      2.723885  
     270A      2.739471   271A      2.742319   272A      2.771203  
     273A      2.782952   274A      2.800959   275A      2.810544  
     276A      2.825079   277A      2.830672   278A      2.845586  
     279A      2.856078   280A      2.857258   281A      2.866931  
     282A      2.900759   283A      2.930393   284A      2.947729  
     285A      2.976680   286A      2.986779   287A      3.004998  
     288A      3.019068   289A      3.046044   290A      3.050661  
     291A      3.094928   292A      3.099598   293A      3.104275  
     294A      3.124698   295A      3.144713   296A      3.147339  
     297A      3.166117   298A      3.180574   299A      3.182801  
     300A      3.189392   301A      3.221470   302A      3.242920  
     303A      3.248225   304A      3.253722   305A      3.274700  
     306A      3.284287   307A      3.311620   308A      3.320514  
     309A      3.357673   310A      3.376286   311A      3.376822  
     312A      3.400184   313A      3.434194   314A      3.445823  
     315A      3.477394   316A      3.480682   317A      3.504579  
     318A      3.548595   319A      3.566410   320A      3.580591  
     321A      3.586538   322A      3.592493   323A      3.612118  
     324A      3.619882   325A      3.631207   326A      3.647582  
     327A      3.673438   328A      3.727014   329A      3.735823  
     330A      3.760770   331A      3.777992   332A      3.809251  
     333A      3.821076   334A      3.841135   335A      3.867838  
     336A      3.876351   337A      3.885877   338A      3.908339  
     339A      3.921149   340A      3.940798   341A      3.944462  
     342A      3.967096   343A      4.085627   344A      4.121215  
     345A      4.126365   346A      4.143832   347A      4.155792  
     348A      4.164236   349A      4.196989   350A      4.210713  
     351A      4.237153   352A      4.246074   353A      4.259779  
     354A      4.272556   355A      4.287116   356A      4.300386  
     357A      4.369664   358A      4.417599   359A      4.441944  
     360A      4.455908   361A      4.505173   362A      4.548150  
     363A      4.598520   364A      4.615249   365A      4.750910  
     366A      4.806209   367A      4.815805   368A      4.839090  
     369A      4.870320   370A      4.898604   371A      4.902982  
     372A      4.921804   373A      5.018178   374A      5.097890  
     375A      5.110332   376A      5.232673   377A      5.345538  
     378A      5.411213   379A      5.453669   380A      5.455958  
     381A      5.485805   382A      5.511210   383A      5.523582  
     384A      5.541680   385A      5.561561   386A      5.577914  
     387A      5.599431   388A      5.615389   389A      5.625869  
     390A      5.640352   391A      5.648034   392A      5.660605  
     393A      5.678047   394A      5.697915   395A      5.711753  
     396A      5.729918   397A      5.745094   398A      5.750500  
     399A      5.767732   400A      5.775022   401A      5.784309  
     402A      5.800340   403A      5.840918   404A      5.855670  
     405A      5.874600   406A      5.883538   407A      5.899895  
     408A      5.957377   409A      5.980417   410A      6.008398  
     411A      6.013210   412A      6.026417   413A      6.051719  
     414A      6.120062   415A      6.130742   416A      6.140523  
     417A      6.172554   418A      6.191111   419A      6.217624  
     420A      6.238617   421A      6.322045   422A      6.344746  
     423A      6.351451   424A      6.375769   425A      6.405014  
     426A      6.421532   427A      6.424513   428A      6.430688  
     429A      6.437057   430A      6.455670   431A      6.462332  
     432A      6.483897   433A      6.488514   434A      6.498898  
     435A      6.509379   436A      6.553618   437A      6.576521  
     438A      6.585877   439A      6.593092   440A      6.611949  
     441A      6.622866   442A      6.632674   443A      6.646616  
     444A      6.663833   445A      6.671001   446A      6.694887  
     447A      6.733733   448A      6.777288   449A      6.923478  
     450A      6.967453   451A      6.994890   452A      7.035508  
     453A      7.088539   454A      7.350475   455A      7.397586  
     456A      7.410130   457A      7.421109   458A      7.431459  
     459A      7.498783   460A      7.523211   461A      7.538745  
     462A      7.567108   463A      7.724100   464A      7.733701  
     465A      7.748938   466A      7.787840   467A      7.802140  
     468A      7.824619   469A      7.856370   470A      7.871357  
     471A      7.880992   472A      7.910554   473A      7.925985  
     474A      7.929722   475A      7.982932   476A      8.002551  
     477A      8.017378   478A      8.029773   479A      8.041278  
     480A      8.052727   481A      8.083565   482A      8.085456  
     483A      8.109724   484A      8.123122   485A      8.147896  
     486A      8.175108   487A      8.196923   488A      8.213171  
     489A      8.228204   490A      8.276008   491A      8.285818  
     492A      8.299589   493A      8.312581   494A      8.371125  
     495A      8.412432   496A      8.426894   497A      8.451479  
     498A      8.489585   499A      8.519927   500A      8.539774  
     501A      8.647868   502A      8.662197   503A      8.665132  
     504A      8.703005   505A      8.707398   506A      8.764450  
     507A      8.840564   508A      8.852491   509A      8.858803  
     510A      8.886541   511A      8.921433   512A      8.989340  
     513A      9.105071   514A      9.154512   515A      9.195568  
     516A      9.256359   517A      9.264731   518A      9.274318  
     519A      9.279151   520A      9.306685   521A      9.307678  
     522A      9.319122   523A      9.341504   524A      9.369537  
     525A      9.432973   526A      9.666481   527A      9.936320  
     528A     10.053194   529A     10.089117   530A     10.131335  
     531A     10.218101   532A     10.516329   533A     10.610246  
     534A     10.785731   535A     10.792602   536A     10.838186  
     537A     10.894569   538A     11.073496   539A     11.124012  
     540A     11.291121   541A     11.465944   542A     11.531434  
     543A     11.536071   544A     11.787326   545A     11.870229  
     546A     12.040043   547A     12.117313   548A     12.320377  
     549A     12.393817   550A     12.655688   551A     12.859365  
     552A     12.935506   553A     13.000557   554A     13.049886  
     555A     13.298268   556A     13.416168   557A     13.431210  
     558A     13.715857   559A     14.029897   560A     14.239844  
     561A     14.556089   562A     14.884040   563A     14.942564  
     564A     15.359687   565A     17.125463   566A     17.364533  
     567A     31.095865   568A     31.100710   569A     31.109852  
     570A     31.125074   571A     31.140789   572A     31.144208  
     573A     31.184176   574A     31.212356   575A     31.294518  
     576A     31.301917   577A     31.304495   578A     31.377624  
     579A     42.854562   580A     43.645386   581A     43.838357  
     582A     44.093496   583A     45.953101   584A     68.543264  
     585A    160.367534   586A    160.453224   587A    160.480245  
     588A    160.502273  

    Final Occupation by Irrep:
              A 
    DOCC [     5 ]

  @DF-RHF Final Energy:   -76.06589940876290

   => Energetics <=

    Nuclear Repulsion Energy =              9.1871406173433936
    One-Electron Energy =                -123.0556369076501539
    Two-Electron Energy =                  37.8025968815438631
    Total Energy =                        -76.0658994087629026

Computation Completed


Properties will be evaluated at   0.000000,  -0.000000,   0.000000 [a0]

Properties computed using the SCF density matrix

  Nuclear Dipole Moment: [e a0]
     X:   -17.9951      Y:     6.4642      Z:    54.9936

  Electronic Dipole Moment: [e a0]
     X:    18.3261      Y:    -7.0274      Z:   -55.3702

  Dipole Moment: [e a0]
     X:     0.3310      Y:    -0.5631      Z:    -0.3767     Total:     0.7541

  Dipole Moment: [D]
     X:     0.8414      Y:    -1.4313      Z:    -0.9575     Total:     1.9166


*** tstop() called on node37.bme.utexas.edu at Tue Feb 22 18:50:44 2022
Module time:
	user time   =     216.31 seconds =       3.61 minutes
	system time =      52.36 seconds =       0.87 minutes
	total time  =        104 seconds =       1.73 minutes
Total time:
	user time   =     300.24 seconds =       5.00 minutes
	system time =      58.21 seconds =       0.97 minutes
	total time  =        137 seconds =       2.28 minutes

*** tstart() called on node37.bme.utexas.edu
*** at Tue Feb 22 18:50:44 2022


  //>>>>>>>>>>>>>>>>>>>>>>>>>>>>>>>>>>>//
  //               DFMP2               //
  //<<<<<<<<<<<<<<<<<<<<<<<<<<<<<<<<<<<//

   => Loading Basis Set <=

    Name: (AUG-CC-PVQZ AUX)
    Role: RIFIT
    Keyword: DF_BASIS_MP2
    atoms 1-4 entry CL         line   914 file /home/bdw2292/miniconda3/envs/amoebamdpoltype/share/psi4/basis/aug-cc-pvqz-ri.gbs 
    atoms 5   entry C          line   184 file /home/bdw2292/miniconda3/envs/amoebamdpoltype/share/psi4/basis/aug-cc-pvqz-ri.gbs 
    atoms 6   entry O          line   332 file /home/bdw2292/miniconda3/envs/amoebamdpoltype/share/psi4/basis/aug-cc-pvqz-ri.gbs 
    atoms 7-8 entry H          line    30 file /home/bdw2292/miniconda3/envs/amoebamdpoltype/share/psi4/basis/aug-cc-pvqz-ri.gbs 

	 --------------------------------------------------------
	                          DF-MP2                         
	      2nd-Order Density-Fitted Moller-Plesset Theory     
	              RMP2 Wavefunction,   4 Threads             
	                                                         
	        Rob Parrish, Justin Turney, Andy Simmonett,      
	           Ed Hohenstein, and C. David Sherrill          
	 --------------------------------------------------------

   => Auxiliary Basis Set <=

  Basis Set: (AUG-CC-PVQZ AUX)
    Blend: AUG-CC-PVQZ-RI
    Number of shells: 288
    Number of basis function: 1272
    Number of Cartesian functions: 1756
    Spherical Harmonics?: true
    Max angular momentum: 5

	 --------------------------------------------------------
	                 NBF =   588, NAUX =  1272
	 --------------------------------------------------------
	   CLASS    FOCC     OCC    AOCC    AVIR     VIR    FVIR
	   PAIRS       1       5       4     583     583       0
	 --------------------------------------------------------

	-----------------------------------------------------------
	 ==================> DF-MP2 Energies <==================== 
	-----------------------------------------------------------
	 Reference Energy          =     -76.0658994087629026 [Eh]
	 Singles Energy            =      -0.0000000000000000 [Eh]
	 Same-Spin Energy          =      -0.0671687033541012 [Eh]
	 Opposite-Spin Energy      =      -0.2186582754603877 [Eh]
	 Correlation Energy        =      -0.2858269788144889 [Eh]
	 Total Energy              =     -76.3517263875773864 [Eh]
	-----------------------------------------------------------
	 ================> DF-SCS-MP2 Energies <================== 
	-----------------------------------------------------------
	 SCS Same-Spin Scale       =       0.3333333333333333 [-]
	 SCS Opposite-Spin Scale   =       1.2000000000000000 [-]
	 SCS Same-Spin Energy      =      -0.0223895677847004 [Eh]
	 SCS Opposite-Spin Energy  =      -0.2623899305524652 [Eh]
	 SCS Correlation Energy    =      -0.2847794983371656 [Eh]
	 SCS Total Energy          =     -76.3506789071000753 [Eh]
	-----------------------------------------------------------


*** tstop() called on node37.bme.utexas.edu at Tue Feb 22 18:51:08 2022
Module time:
	user time   =      64.28 seconds =       1.07 minutes
	system time =       4.70 seconds =       0.08 minutes
	total time  =         24 seconds =       0.40 minutes
Total time:
	user time   =     364.52 seconds =       6.08 minutes
	system time =      62.91 seconds =       1.05 minutes
	total time  =        161 seconds =       2.68 minutes

  //>>>>>>>>>>>>>>>>>>>>>>>>>>>>>>>>>>>//
  //  CBS Results: mp2/aug-cc-pV[TQ]Z  //
  //<<<<<<<<<<<<<<<<<<<<<<<<<<<<<<<<<<<//


   ==> HF <==

   HI-zeta (4) Energy:               -76.065899408763


   ==> Helgaker 2-point correlated extrapolation for method: MP2 <==

   LO-zeta (3) Energy:               -76.328950852491
   HI-zeta (4) Energy:               -76.351726387577
   Alpha (exponent) Value:             3.000000000000
   Extrapolated Energy:              -76.368346372640

   @Extrapolated MP2/(T,Q):          -76.368346372640



   ==> Helgaker 2-point correlated extrapolation for method: HF <==

   LO-zeta (3) Energy:               -76.060559872769
   HI-zeta (4) Energy:               -76.065899408763
   Alpha (exponent) Value:             3.000000000000
   Extrapolated Energy:              -76.069795826921

   @Extrapolated HF/(T,Q):           -76.069795826921


   ==> Components <==

  ---------------------------------------------------------------------------------------------------------
                          Method / Basis                      Rqd      Energy [Eh]   Variable
  ---------------------------------------------------------------------------------------------------------
                              hf / aug-cc-pvtz                  *     -76.06055987   HF TOTAL ENERGY
                             mp2 / aug-cc-pvtz                  *     -76.32895085   MP2 TOTAL ENERGY
                              hf / aug-cc-pvqz                  *     -76.06589941   HF TOTAL ENERGY
                             mp2 / aug-cc-pvqz                  *     -76.35172639   MP2 TOTAL ENERGY
  ---------------------------------------------------------------------------------------------------------

   ==> Stages <==

  ---------------------------------------------------------------------------------------------------------
      Stage               Method / Basis                       Wt      Energy [Eh]   Scheme
  ---------------------------------------------------------------------------------------------------------
        scf                   hf / aug-cc-pvqz                  1     -76.06589941   xtpl_highest_1
       corl                  mp2 / aug-cc-pv[tq]z               1     -76.36834637   corl_xtpl_helgaker_2
       corl                   hf / aug-cc-pv[tq]z              -1     -76.06979583   corl_xtpl_helgaker_2
  ---------------------------------------------------------------------------------------------------------

   ==> CBS <==

  ---------------------------------------------------------------------------------------------------------
      Stage               Method / Basis                               Energy [Eh]   Scheme
  ---------------------------------------------------------------------------------------------------------
        scf                   hf / aug-cc-pvqz                        -76.06589941   xtpl_highest_1
[...]
     139A      0.760999   140A      0.776847   141A      0.784634  
     142A      0.786514   143A      0.800326   144A      0.805229  
     145A      0.811425   146A      0.812987   147A      0.839060  
     148A      0.847929   149A      0.852827   150A      0.868029  
     151A      0.873110   152A      0.882973   153A      0.888277  
     154A      0.897460   155A      0.906425   156A      0.925891  
     157A      0.941801   158A      0.950143   159A      0.972234  
     160A      0.980692   161A      0.995003   162A      1.004979  
     163A      1.020266   164A      1.052565   165A      1.054824  
     166A      1.073618   167A      1.075978   168A      1.078988  
     169A      1.094200   170A      1.099704   171A      1.102296  
     172A      1.113982   173A      1.121482   174A      1.134151  
     175A      1.136227   176A      1.144865   177A      1.149792  
     178A      1.161345   179A      1.163573   180A      1.165851  
     181A      1.173155   182A      1.176982   183A      1.183208  
     184A      1.193176   185A      1.196585   186A      1.205562  
     187A      1.221151   188A      1.231258   189A      1.237972  
     190A      1.243991   191A      1.247836   192A      1.256724  
     193A      1.263800   194A      1.278210   195A      1.290814  
     196A      1.305921   197A      1.317534   198A      1.322364  
     199A      1.339962   200A      1.353533   201A      1.355793  
     202A      1.405272   203A      1.421275   204A      1.429115  
     205A      1.447838   206A      1.456205   207A      1.466741  
     208A      1.472376   209A      1.480095   210A      1.530473  
     211A      1.543398   212A      1.590860   213A      1.625032  
     214A      1.643211   215A      1.652424   216A      1.654944  
     217A      1.663087   218A      1.678745   219A      1.690742  
     220A      1.699997   221A      1.706992   222A      1.729528  
     223A      1.736678   224A      1.743402   225A      1.752726  
     226A      1.758102   227A      1.762593   228A      1.781022  
     229A      1.784954   230A      1.793195   231A      1.809841  
     232A      1.814214   233A      1.825517   234A      1.831204  
     235A      1.846082   236A      1.851707   237A      1.861097  
     238A      1.869130   239A      1.880459   240A      1.884940  
     241A      1.905584   242A      1.908998   243A      1.912743  
     244A      1.923827   245A      1.936524   246A      1.954911  
     247A      1.965942   248A      1.967439   249A      1.983191  
     250A      1.992221   251A      2.006180   252A      2.019252  
     253A      2.025053   254A      2.038645   255A      2.045687  
     256A      2.047279   257A      2.063535   258A      2.066423  
     259A      2.074199   260A      2.084469   261A      2.086690  
     262A      2.101349   263A      2.107023   264A      2.111562  
     265A      2.114712   266A      2.120928   267A      2.126833  
     268A      2.136758   269A      2.164347   270A      2.172196  
     271A      2.184293   272A      2.193597   273A      2.198158  
     274A      2.201622   275A      2.219214   276A      2.220638  
     277A      2.223694   278A      2.234628   279A      2.239731  
     280A      2.247242   281A      2.249036   282A      2.254942  
     283A      2.263160   284A      2.273010   285A      2.279369  
     286A      2.283718   287A      2.305892   288A      2.318944  
     289A      2.327210   290A      2.336183   291A      2.344087  
     292A      2.356910   293A      2.373133   294A      2.382896  
     295A      2.394801   296A      2.408126   297A      2.423404  
     298A      2.431401   299A      2.444289   300A      2.449679  
     301A      2.455870   302A      2.466980   303A      2.474915  
     304A      2.478959   305A      2.493182   306A      2.500712  
     307A      2.504870   308A      2.519734   309A      2.525837  
     310A      2.549647   311A      2.559557   312A      2.572434  
     313A      2.586030   314A      2.590567   315A      2.626896  
     316A      2.633738   317A      2.642347   318A      2.662523  
     319A      2.675042   320A      2.685317   321A      2.704400  
     322A      2.710484   323A      2.728651   324A      2.763376  
     325A      2.782896   326A      2.818005   327A      2.831315  
     328A      2.854196   329A      2.870831   330A      2.889879  
     331A      2.896297   332A      2.915424   333A      2.932699  
     334A      2.971512   335A      2.981151   336A      2.995040  
     337A      2.996935   338A      3.021665   339A      3.024695  
     340A      3.045941   341A      3.056453   342A      3.127423  
     343A      3.159311   344A      3.199028   345A      3.219077  
     346A      3.227821   347A      3.240616   348A      3.254877  
     349A      3.281392   350A      3.292281   351A      3.298993  
     352A      3.358924   353A      3.370712   354A      3.399213  
     355A      3.426832   356A      3.430830   357A      3.438375  
     358A      3.439840   359A      3.475820   360A      3.480214  
     361A      3.491761   362A      3.534664   363A      3.542843  
     364A      3.572828   365A      3.581489   366A      3.593412  
     367A      3.619841   368A      3.639772   369A      3.646381  
     370A      3.700711   371A      3.753834   372A      3.767717  
     373A      3.781059   374A      3.865718   375A      3.898040  
     376A      3.984526   377A      4.004621   378A      4.034062  
     379A      4.043036   380A      4.090372   381A      4.129051  
     382A      4.187319   383A      4.240647   384A      4.260066  
     385A      4.291923   386A      4.322479   387A      4.362328  
     388A      4.418065   389A      4.437546   390A      4.453352  
     391A      4.478626   392A      4.484683   393A      4.502622  
     394A      4.540435   395A      4.548945   396A      4.586652  
     397A      4.602797   398A      4.611392   399A      4.626408  
     400A      4.638979   401A      4.652016   402A      4.684548  
     403A      4.692773   404A      4.701426   405A      4.705811  
     406A      4.712306   407A      4.719533   408A      4.726303  
     409A      4.734415   410A      4.739567   411A      4.750723  
     412A      4.753438   413A      4.755104   414A      4.760857  
     415A      4.763915   416A      4.776214   417A      4.791740  
     418A      4.796427   419A      4.798118   420A      4.811290  
     421A      4.819507   422A      4.827186   423A      4.836537  
     424A      4.839405   425A      4.847456   426A      4.856609  
     427A      4.865163   428A      4.875012   429A      4.879243  
     430A      4.888154   431A      4.892247   432A      4.896592  
     433A      4.899653   434A      4.908078   435A      4.911635  
     436A      4.925420   437A      4.934100   438A      4.939144  
     439A      4.945484   440A      4.959160   441A      4.961393  
     442A      4.969751   443A      4.978425   444A      4.982104  
     445A      4.989904   446A      5.000007   447A      5.009579  
     448A      5.011716   449A      5.034673   450A      5.043665  
     451A      5.059634   452A      5.078266   453A      5.080450  
     454A      5.089429   455A      5.108432   456A      5.113547  
     457A      5.130260   458A      5.145489   459A      5.176057  
     460A      5.196463   461A      5.221947   462A      5.255838  
     463A      5.261764   464A      5.283370   465A      5.304159  
     466A      5.316373   467A      5.347523   468A      5.357324  
     469A      5.378132   470A      5.382082   471A      5.398719  
     472A      5.416302   473A      5.425615   474A      5.434401  
     475A      5.482742   476A      5.484905   477A      5.514437  
     478A      5.543794   479A      5.600708   480A      5.615967  
     481A      5.659214   482A      5.682744   483A      5.693029  
     484A      5.737894   485A      5.836006   486A      5.875999  
     487A      6.058091   488A      6.080951   489A      6.267808  
     490A      6.503951   491A      6.680344   492A      6.695292  
     493A      6.697267   494A      6.708327   495A      6.722740  
     496A      6.735306   497A      6.768144   498A      6.781165  
     499A      6.798292   500A      6.849435   501A      6.858364  
     502A      6.871617   503A      6.899859   504A      6.934280  
     505A      6.973891   506A      6.984498   507A      7.017695  
     508A      7.090645   509A      7.109753   510A      7.120317  
     511A      7.143777   512A      7.212032   513A      7.219120  
     514A      7.291115   515A      7.300455   516A      7.323656  
     517A      7.377531   518A      7.406148   519A      7.450698  
     520A      7.563893   521A      7.745041   522A      7.749588  
     523A      7.804228   524A      7.819300   525A      7.822706  
     526A      7.853605   527A      7.870873   528A      7.893506  
     529A      7.902876   530A      7.937175   531A      8.003362  
     532A      8.053106   533A      8.112310   534A      8.183592  
     535A      8.267341   536A      8.493959   537A      8.519642  
     538A      8.522979   539A      8.585945   540A      8.701174  
     541A      8.737931   542A      8.810063   543A      8.857872  
     544A      8.903613   545A      8.990668   546A      9.102371  
     547A      9.156062   548A      9.209588   549A      9.305755  
     550A      9.658195   551A      9.940611   552A     10.061662  
     553A     10.103678   554A     10.195743   555A     10.521203  
     556A     10.617053   557A     10.883917   558A     11.082785  
     559A     11.131049   560A     11.298501   561A     11.476828  
     562A     11.539498   563A     11.543672   564A     11.795844  
     565A     11.879472   566A     12.048913   567A     12.127211  
     568A     12.331463   569A     12.405593   570A     12.667219  
     571A     12.870230   572A     12.946692   573A     13.057485  
     574A     13.310138   575A     14.039171   576A     14.248727  
     577A     14.564829   578A     14.894289   579A     14.953005  
     580A     15.370747   581A     17.133729   582A     17.373550  
     583A     24.984310   584A     26.854908   585A     26.888402  
     586A     27.188785   587A     27.364122   588A     45.963561  

    Final Occupation by Irrep:
              A 
    DOCC [    42 ]

  @DF-RHF Final Energy: -1951.98902630904036

   => Energetics <=

    Nuclear Repulsion Energy =            557.7054969060828853
    One-Electron Energy =               -3808.1104889131252094
    Two-Electron Energy =                1298.4159656980020827
    Total Energy =                      -1951.9890263090403550

Computation Completed


Properties will be evaluated at   0.000000,  -0.000000,   0.000000 [a0]

Properties computed using the SCF density matrix

  Nuclear Dipole Moment: [e a0]
     X:    -1.8439      Y:     0.1797      Z:     6.3238

  Electronic Dipole Moment: [e a0]
     X:     2.1924      Y:    -0.7322      Z:    -6.8576

  Dipole Moment: [e a0]
     X:     0.3485      Y:    -0.5525      Z:    -0.5338     Total:     0.8436

  Dipole Moment: [D]
     X:     0.8859      Y:    -1.4043      Z:    -1.3568     Total:     2.1442


*** tstop() called on node37.bme.utexas.edu at Tue Feb 22 18:58:22 2022
Module time:
	user time   =     309.37 seconds =       5.16 minutes
	system time =      64.69 seconds =       1.08 minutes
	total time  =        148 seconds =       2.47 minutes
Total time:
	user time   =    1380.00 seconds =      23.00 minutes
	system time =     205.42 seconds =       3.42 minutes
	total time  =        595 seconds =       9.92 minutes

*** tstart() called on node37.bme.utexas.edu
*** at Tue Feb 22 18:58:22 2022


  //>>>>>>>>>>>>>>>>>>>>>>>>>>>>>>>>>>>//
  //               DFMP2               //
  //<<<<<<<<<<<<<<<<<<<<<<<<<<<<<<<<<<<//

   => Loading Basis Set <=

    Name: (AUG-CC-PVQZ AUX)
    Role: RIFIT
    Keyword: DF_BASIS_MP2
    atoms 1-4 entry CL         line   914 file /home/bdw2292/miniconda3/envs/amoebamdpoltype/share/psi4/basis/aug-cc-pvqz-ri.gbs 
    atoms 5   entry C          line   184 file /home/bdw2292/miniconda3/envs/amoebamdpoltype/share/psi4/basis/aug-cc-pvqz-ri.gbs 
    atoms 6   entry O          line   332 file /home/bdw2292/miniconda3/envs/amoebamdpoltype/share/psi4/basis/aug-cc-pvqz-ri.gbs 
    atoms 7-8 entry H          line    30 file /home/bdw2292/miniconda3/envs/amoebamdpoltype/share/psi4/basis/aug-cc-pvqz-ri.gbs 

	 --------------------------------------------------------
	                          DF-MP2                         
	      2nd-Order Density-Fitted Moller-Plesset Theory     
	              RMP2 Wavefunction,   4 Threads             
	                                                         
	        Rob Parrish, Justin Turney, Andy Simmonett,      
	           Ed Hohenstein, and C. David Sherrill          
	 --------------------------------------------------------

   => Auxiliary Basis Set <=

  Basis Set: (AUG-CC-PVQZ AUX)
    Blend: AUG-CC-PVQZ-RI
    Number of shells: 288
    Number of basis function: 1272
    Number of Cartesian functions: 1756
    Spherical Harmonics?: true
    Max angular momentum: 5

	 --------------------------------------------------------
	                 NBF =   588, NAUX =  1272
	 --------------------------------------------------------
	   CLASS    FOCC     OCC    AOCC    AVIR     VIR    FVIR
	   PAIRS      22      42      20     546     546       0
	 --------------------------------------------------------

	-----------------------------------------------------------
	 ==================> DF-MP2 Energies <==================== 
	-----------------------------------------------------------
	 Reference Energy          =   -1951.9890263090403550 [Eh]
	 Singles Energy            =      -0.0000000000000000 [Eh]
	 Same-Spin Energy          =      -0.3254522274757762 [Eh]
	 Opposite-Spin Energy      =      -0.9948084435059473 [Eh]
	 Correlation Energy        =      -1.3202606709817235 [Eh]
	 Total Energy              =   -1953.3092869800220797 [Eh]
	-----------------------------------------------------------
	 ================> DF-SCS-MP2 Energies <================== 
	-----------------------------------------------------------
	 SCS Same-Spin Scale       =       0.3333333333333333 [-]
	 SCS Opposite-Spin Scale   =       1.2000000000000000 [-]
	 SCS Same-Spin Energy      =      -0.1084840758252587 [Eh]
	 SCS Opposite-Spin Energy  =      -1.1937701322071368 [Eh]
	 SCS Correlation Energy    =      -1.3022542080323956 [Eh]
	 SCS Total Energy          =   -1953.2912805170726642 [Eh]
	-----------------------------------------------------------


*** tstop() called on node37.bme.utexas.edu at Tue Feb 22 18:58:50 2022
Module time:
	user time   =      79.31 seconds =       1.32 minutes
	system time =       4.45 seconds =       0.07 minutes
	total time  =         28 seconds =       0.47 minutes
Total time:
	user time   =    1459.32 seconds =      24.32 minutes
	system time =     209.87 seconds =       3.50 minutes
	total time  =        623 seconds =      10.38 minutes

  //>>>>>>>>>>>>>>>>>>>>>>>>>>>>>>>>>>>//
  //  CBS Results: mp2/aug-cc-pV[TQ]Z  //
  //<<<<<<<<<<<<<<<<<<<<<<<<<<<<<<<<<<<//


   ==> HF <==

   HI-zeta (4) Energy:               -1951.989026309040


   ==> Helgaker 2-point correlated extrapolation for method: MP2 <==

   LO-zeta (3) Energy:               -1953.193817941750
   HI-zeta (4) Energy:               -1953.309286980022
   Alpha (exponent) Value:             3.000000000000
   Extrapolated Energy:              -1953.393548170113

   @Extrapolated MP2/(T,Q):          -1953.393548170113



   ==> Helgaker 2-point correlated extrapolation for method: HF <==

   LO-zeta (3) Energy:               -1951.966449217508
   HI-zeta (4) Energy:               -1951.989026309040
   Alpha (exponent) Value:             3.000000000000
   Extrapolated Energy:              -1952.005501483942

   @Extrapolated HF/(T,Q):           -1952.005501483942


   ==> Components <==

  ---------------------------------------------------------------------------------------------------------
                          Method / Basis                      Rqd      Energy [Eh]   Variable
  ---------------------------------------------------------------------------------------------------------
                              hf / aug-cc-pvtz                  *   -1951.96644922   HF TOTAL ENERGY
                             mp2 / aug-cc-pvtz                  *   -1953.19381794   MP2 TOTAL ENERGY
                              hf / aug-cc-pvqz                  *   -1951.98902631   HF TOTAL ENERGY
                             mp2 / aug-cc-pvqz                  *   -1953.30928698   MP2 TOTAL ENERGY
  ---------------------------------------------------------------------------------------------------------

   ==> Stages <==

  ---------------------------------------------------------------------------------------------------------
      Stage               Method / Basis                       Wt      Energy [Eh]   Scheme
  ---------------------------------------------------------------------------------------------------------
        scf                   hf / aug-cc-pvqz                  1   -1951.98902631   xtpl_highest_1
       corl                  mp2 / aug-cc-pv[tq]z               1   -1953.39354817   corl_xtpl_helgaker_2
       corl                   hf / aug-cc-pv[tq]z              -1   -1952.00550148   corl_xtpl_helgaker_2
  ---------------------------------------------------------------------------------------------------------

   ==> CBS <==

  ---------------------------------------------------------------------------------------------------------
      Stage               Method / Basis                               Energy [Eh]   Scheme
  ---------------------------------------------------------------------------------------------------------
        scf                   hf / aug-cc-pvqz                      -1951.98902631   xtpl_highest_1
       corl                  mp2 / aug-cc-pv[tq]z                      -1.38804669   corl_xtpl_helgaker_2
      total                  CBS                                    -1953.37707300   
  ---------------------------------------------------------------------------------------------------------
   => Loading Basis Set <=

    Name: DEF2-SVP
    Role: ORBITAL
    Keyword: BASIS
    atoms 1-4 entry CL         line   356 file /home/bdw2292/miniconda3/envs/amoebamdpoltype/share/psi4/basis/def2-svp.gbs 
    atoms 5   entry C          line    90 file /home/bdw2292/miniconda3/envs/amoebamdpoltype/share/psi4/basis/def2-svp.gbs 
    atoms 6   entry O          line   130 file /home/bdw2292/miniconda3/envs/amoebamdpoltype/share/psi4/basis/def2-svp.gbs 
    atoms 7-8 entry H          line    15 file /home/bdw2292/miniconda3/envs/amoebamdpoltype/share/psi4/basis/def2-svp.gbs 


       N-Body: Complex Energy (fragments = (1, 2), basis = (1, 2): -1953.37707299521071)

   ==> N-Body: Counterpoise Corrected (CP) energies <==

   n-Body     Total Energy [Eh]       I.E. [kcal/mol]      Delta [kcal/mol]
        1    -1953.379232018724        0.000000000000        0.000000000000
        2    -1953.376629162742        1.633316788077        1.633316788077

   => Loading Basis Set <=

    Name: DEF2-SVP
    Role: ORBITAL
    Keyword: BASIS
    atoms 1-4 entry CL         line   356 file /home/bdw2292/miniconda3/envs/amoebamdpoltype/share/psi4/basis/def2-svp.gbs 
    atoms 5   entry C          line    90 file /home/bdw2292/miniconda3/envs/amoebamdpoltype/share/psi4/basis/def2-svp.gbs 
    atoms 6   entry O          line   130 file /home/bdw2292/miniconda3/envs/amoebamdpoltype/share/psi4/basis/def2-svp.gbs 
    atoms 7-8 entry H          line    15 file /home/bdw2292/miniconda3/envs/amoebamdpoltype/share/psi4/basis/def2-svp.gbs 

CP Energy =   0.002603
    Psi4 stopped on: Tuesday, 22 February 2022 06:58PM
    Psi4 wall time for execution: 0:10:23.64

*** Psi4 exiting successfully. Buy a developer a beer!
