
    -----------------------------------------------------------------------
          Psi4: An Open-Source Ab Initio Electronic Structure Package
                               Psi4 1.3.2 release

                         Git: Rev {HEAD} ecbda83 


    R. M. Parrish, L. A. Burns, D. G. A. Smith, A. C. Simmonett,
    A. E. DePrince III, E. G. Hohenstein, U. Bozkaya, A. Yu. Sokolov,
    R. Di Remigio, R. M. Richard, J. F. Gonthier, A. M. James,
    H. R. McAlexander, A. Kumar, M. Saitow, X. Wang, B. P. Pritchard,
    P. Verma, H. F. Schaefer III, K. Patkowski, R. A. King, E. F. Valeev,
    F. A. Evangelista, J. M. Turney, T. D. Crawford, and C. D. Sherrill,
    J. Chem. Theory Comput. 13(7) pp 3185--3197 (2017).
    (doi: 10.1021/acs.jctc.7b00174)


                         Additional Contributions by
    P. Kraus, H. Kruse, M. H. Lechner, M. C. Schieber, R. A. Shaw,
    A. Alenaizan, R. Galvelis, Z. L. Glick, S. Lehtola, and J. P. Misiewicz

    -----------------------------------------------------------------------


    Psi4 started on: Tuesday, 22 February 2022 07:10PM

    Process ID: 37913
    Host:       node37.bme.utexas.edu
    PSIDATADIR: /home/bdw2292/miniconda3/envs/amoebamdpoltype/share/psi4
    Memory:     500.0 MiB
    Threads:    1
    
  ==> Input File <==

--------------------------------------------------------------------------
molecule { 
0 1
 Cl                 -1.3216509    -1.2809349     0.3222521
 Cl                 -0.8136453     1.3984708    -0.6254683
 Cl                  0.5982673    -0.8387328    -1.7959308
 Cl                  1.1940644     0.0026420     0.9073311
  C                 -0.0850511    -0.1807108    -0.3019604
--
0 1
  O                 -1.1729101     0.6118746     4.4710827
  H                 -1.2324131    -0.3183728     4.6878043
  H                 -0.6212623     0.7048048     3.6943153
}
memory 15GB
set_num_threads(4)
psi4_io.set_default_path("/scratch/bdw2292/Psi4-CCl4")
set maxiter 500
set freeze_core True
set PROPERTIES_ORIGIN ["COM"]
e_dim= energy('mp2/aug-cc-pV[TQ]Z',bsse_type='cp')

psi4.print_out('CP Energy = %10.6f' % (e_dim))
clean()
--------------------------------------------------------------------------

  Memory set to  13.970 GiB by Python driver.
  Threads set to 4 by Python driver.


   ===> N-Body Interaction Abacus <===
        BSSE Treatment:                     cp
        Number of 1-body computations:     4
        Number of 2-body computations:     1

   ==> N-Body: Now computing 1-body complexes <==


       N-Body: Computing complex (1/4) with fragments (2,) in the basis of fragments (2,).


  //>>>>>>>>>>>>>>>>>>>>>>>>>>>>>>>>>>>//
  //   CBS Setup: mp2/aug-cc-pV[TQ]Z   //
  //<<<<<<<<<<<<<<<<<<<<<<<<<<<<<<<<<<<//

    Naive listing of computations required.
             hf / aug-cc-pvqz              for  HF TOTAL ENERGY
            mp2 / aug-cc-pvtz              for  MP2 TOTAL ENERGY
            mp2 / aug-cc-pvqz              for  MP2 TOTAL ENERGY
             hf / aug-cc-pvtz              for  HF TOTAL ENERGY
             hf / aug-cc-pvqz              for  HF TOTAL ENERGY

    Enlightened listing of computations required.
            mp2 / aug-cc-pvtz              for  MP2 TOTAL ENERGY
            mp2 / aug-cc-pvqz              for  MP2 TOTAL ENERGY

    Full listing of computations to be obtained (required and bonus).
             hf / aug-cc-pvtz              for  HF TOTAL ENERGY
            mp2 / aug-cc-pvtz              for  MP2 TOTAL ENERGY
             hf / aug-cc-pvqz              for  HF TOTAL ENERGY
            mp2 / aug-cc-pvqz              for  MP2 TOTAL ENERGY

  //>>>>>>>>>>>>>>>>>>>>>>>>>>>>>>>>>>>>//
  // CBS Computation: MP2 / AUG-CC-PVTZ //
  //<<<<<<<<<<<<<<<<<<<<<<<<<<<<<<<<<<<<//

    SCF Algorithm Type (re)set to DF.

*** tstart() called on node37.bme.utexas.edu
*** at Tue Feb 22 19:10:11 2022

   => Loading Basis Set <=

    Name: AUG-CC-PVTZ
    Role: ORBITAL
    Keyword: BASIS
    atoms 1   entry O          line   327 file /home/bdw2292/miniconda3/envs/amoebamdpoltype/share/psi4/basis/aug-cc-pvtz.gbs 
    atoms 2-3 entry H          line    36 file /home/bdw2292/miniconda3/envs/amoebamdpoltype/share/psi4/basis/aug-cc-pvtz.gbs 


         ---------------------------------------------------------
                                   SCF
               by Justin Turney, Rob Parrish, Andy Simmonett
                          and Daniel G. A. Smith
                              RHF Reference
                        4 Threads,  14305 MiB Core
         ---------------------------------------------------------

  ==> Geometry <==

    Molecular point group: c1
    Full point group: C1

    Geometry (in Angstrom), charge = 0, multiplicity = 1:

       Center              X                  Y                   Z               Mass       
    ------------   -----------------  -----------------  -----------------  -----------------
         O           -0.974880418211     0.712643555017     4.267049750933    15.994914619570
         H           -1.034383418211    -0.217603844983     4.483771350933     1.007825032230
         H           -0.423232618211     0.805573755017     3.490282350933     1.007825032230

  Running in c1 symmetry.

  Rotational constants: A =     15.80074  B =      0.04843  C =      0.04831 [cm^-1]
  Rotational constants: A = 473694.26489  B =   1451.80684  C =   1448.32818 [MHz]
  Nuclear repulsion =    9.187140714150987

  Charge       = 0
  Multiplicity = 1
  Electrons    = 10
  Nalpha       = 5
  Nbeta        = 5

  ==> Algorithm <==

  SCF Algorithm Type is DF.
  DIIS enabled.
  MOM disabled.
  Fractional occupation disabled.
  Guess Type is SAD.
  Energy threshold   = 1.00e-08
  Density threshold  = 1.00e-08
  Integral threshold = 0.00e+00

  ==> Primary Basis <==

  Basis Set: AUG-CC-PVTZ
    Blend: AUG-CC-PVTZ
    Number of shells: 32
    Number of basis function: 92
    Number of Cartesian functions: 105
    Spherical Harmonics?: true
    Max angular momentum: 3

   => Loading Basis Set <=

    Name: (AUG-CC-PVTZ AUX)
    Role: JKFIT
    Keyword: DF_BASIS_SCF
    atoms 1   entry O          line   286 file /home/bdw2292/miniconda3/envs/amoebamdpoltype/share/psi4/basis/aug-cc-pvtz-jkfit.gbs 
    atoms 2-3 entry H          line    70 file /home/bdw2292/miniconda3/envs/amoebamdpoltype/share/psi4/basis/aug-cc-pvtz-jkfit.gbs 

  ==> Pre-Iterations <==

   -------------------------------------------------------
    Irrep   Nso     Nmo     Nalpha   Nbeta   Ndocc  Nsocc
   -------------------------------------------------------
     A         92      92       0       0       0       0
   -------------------------------------------------------
    Total      92      92       5       5       5       0
   -------------------------------------------------------

  ==> Integral Setup <==

  DFHelper Memory: AOs need 0.015 GiB; user supplied 10.477 GiB. Using in-core AOs.

  ==> MemDFJK: Density-Fitted J/K Matrices <==

    J tasked:                   Yes
    K tasked:                   Yes
    wK tasked:                   No
    OpenMP threads:               4
    Memory [MiB]:             10728
    Algorithm:                 Core
    Schwarz Cutoff:           1E-12
    Mask sparsity (%):       0.0000
    Fitting Condition:        1E-10

   => Auxiliary Basis Set <=

  Basis Set: (AUG-CC-PVTZ AUX)
    Blend: AUG-CC-PVTZ-JKFIT
    Number of shells: 58
    Number of basis function: 196
    Number of Cartesian functions: 241
    Spherical Harmonics?: true
    Max angular momentum: 4

  Minimum eigenvalue in the overlap matrix is 3.7720844934E-04.
  Using Symmetric Orthogonalization.

  SCF Guess: Superposition of Atomic Densities via on-the-fly atomic UHF.

  ==> Iterations <==

                           Total Energy        Delta E     RMS |[F,P]|

   @DF-RHF iter SAD:   -75.47446191851481   -7.54745e+01   0.00000e+00 
   @DF-RHF iter   1:   -75.97662875080036   -5.02167e-01   5.09444e-03 DIIS
   @DF-RHF iter   2:   -76.02906115299967   -5.24324e-02   3.45112e-03 DIIS
   @DF-RHF iter   3:   -76.06006503192830   -3.10039e-02   2.34356e-04 DIIS
   @DF-RHF iter   4:   -76.06045411882953   -3.89087e-04   5.59042e-05 DIIS
   @DF-RHF iter   5:   -76.06047798510008   -2.38663e-05   1.25797e-05 DIIS
   @DF-RHF iter   6:   -76.06047993229141   -1.94719e-06   2.79844e-06 DIIS
   @DF-RHF iter   7:   -76.06048003951928   -1.07228e-07   5.28687e-07 DIIS
   @DF-RHF iter   8:   -76.06048004291583   -3.39655e-09   8.76785e-08 DIIS
   @DF-RHF iter   9:   -76.06048004298944   -7.36122e-11   2.17705e-08 DIIS
   @DF-RHF iter  10:   -76.06048004299325   -3.80851e-12   2.97242e-09 DIIS
  Energy and wave function converged.


  ==> Post-Iterations <==

    Orbital Energies [Eh]
    ---------------------

    Doubly Occupied:                                                      

       1A    -20.565480     2A     -1.350983     3A     -0.725083  
       4A     -0.577593     5A     -0.509245  

    Virtual:                                                              

       6A      0.029669     7A      0.047452     8A      0.136469  
       9A      0.157862    10A      0.174309    11A      0.182060  
      12A      0.228843    13A      0.244492    14A      0.263889  
      15A      0.304628    16A      0.313159    17A      0.365255  
      18A      0.438047    19A      0.466863    20A      0.602190  
      21A      0.654421    22A      0.711085    23A      0.719367  
      24A      0.731261    25A      0.828221    26A      0.843856  
      27A      0.889962    28A      0.912996    29A      0.920751  
      30A      0.923718    31A      0.928025    32A      0.971103  
      33A      1.023144    34A      1.045443    35A      1.085158  
      36A      1.114074    37A      1.172956    38A      1.177633  
      39A      1.259447    40A      1.514493    41A      1.562840  
      42A      1.595914    43A      1.786341    44A      1.797141  
      45A      2.003609    46A      2.116347    47A      2.259807  
      48A      2.318691    49A      2.321036    50A      2.413658  
      51A      2.414808    52A      2.438636    53A      2.471592  
      54A      2.686282    55A      2.702925    56A      2.768564  
      57A      2.856344    58A      2.884157    59A      3.646245  
      60A      3.769989    61A      4.007855    62A      4.090633  
      63A      4.211334    64A      4.232325    65A      4.335219  
      66A      4.381996    67A      4.401376    68A      4.415177  
      69A      4.494275    70A      4.708764    71A      4.814778  
      72A      5.125998    73A      5.173446    74A      5.305867  
      75A      5.332315    76A      5.515105    77A      5.721193  
      78A      6.141741    79A      6.533900    80A      6.713607  
      81A      6.860586    82A      7.146449    83A      7.263210  
      84A      7.299681    85A      7.309192    86A      7.371085  
      87A      7.387460    88A      7.559655    89A      7.899899  
      90A      7.963860    91A      8.792144    92A     15.871915  

    Final Occupation by Irrep:
              A 
    DOCC [     5 ]

  @DF-RHF Final Energy:   -76.06048004299325

   => Energetics <=

    Nuclear Repulsion Energy =              9.1871407141509867
    One-Electron Energy =                -123.0384727602454262
    Two-Electron Energy =                  37.7908520031011932
    Total Energy =                        -76.0604800429932482

Computation Completed


Properties will be evaluated at  -1.790216,   1.258160,   8.004334 [a0]

Properties computed using the SCF density matrix

  Nuclear Dipole Moment: [e a0]
     X:     0.4096      Y:    -0.6969      Z:    -0.4661

  Electronic Dipole Moment: [e a0]
     X:    -0.0782      Y:     0.1330      Z:     0.0890

  Dipole Moment: [e a0]
     X:     0.3314      Y:    -0.5639      Z:    -0.3771     Total:     0.7550

  Dipole Moment: [D]
     X:     0.8423      Y:    -1.4332      Z:    -0.9585     Total:     1.9190


*** tstop() called on node37.bme.utexas.edu at Tue Feb 22 19:10:19 2022
Module time:
	user time   =       5.99 seconds =       0.10 minutes
	system time =       0.41 seconds =       0.01 minutes
	total time  =          8 seconds =       0.13 minutes
Total time:
	user time   =       5.99 seconds =       0.10 minutes
	system time =       0.41 seconds =       0.01 minutes
	total time  =          8 seconds =       0.13 minutes

*** tstart() called on node37.bme.utexas.edu
*** at Tue Feb 22 19:10:19 2022


  //>>>>>>>>>>>>>>>>>>>>>>>>>>>>>>>>>>>//
  //               DFMP2               //
  //<<<<<<<<<<<<<<<<<<<<<<<<<<<<<<<<<<<//

   => Loading Basis Set <=

    Name: (AUG-CC-PVTZ AUX)
    Role: RIFIT
    Keyword: DF_BASIS_MP2
    atoms 1   entry O          line   264 file /home/bdw2292/miniconda3/envs/amoebamdpoltype/share/psi4/basis/aug-cc-pvtz-ri.gbs 
    atoms 2-3 entry H          line    30 file /home/bdw2292/miniconda3/envs/amoebamdpoltype/share/psi4/basis/aug-cc-pvtz-ri.gbs 

	 --------------------------------------------------------
	                          DF-MP2                         
	      2nd-Order Density-Fitted Moller-Plesset Theory     
	              RMP2 Wavefunction,   4 Threads             
	                                                         
	        Rob Parrish, Justin Turney, Andy Simmonett,      
	           Ed Hohenstein, and C. David Sherrill          
	 --------------------------------------------------------

   => Auxiliary Basis Set <=

  Basis Set: (AUG-CC-PVTZ AUX)
    Blend: AUG-CC-PVTZ-RI
    Number of shells: 56
    Number of basis function: 198
    Number of Cartesian functions: 246
    Spherical Harmonics?: true
    Max angular momentum: 4

	 --------------------------------------------------------
	                 NBF =    92, NAUX =   198
	 --------------------------------------------------------
	   CLASS    FOCC     OCC    AOCC    AVIR     VIR    FVIR
	   PAIRS       1       5       4      87      87       0
	 --------------------------------------------------------

	-----------------------------------------------------------
	 ==================> DF-MP2 Energies <==================== 
	-----------------------------------------------------------
	 Reference Energy          =     -76.0604800429932482 [Eh]
	 Singles Energy            =      -0.0000000000000000 [Eh]
	 Same-Spin Energy          =      -0.0650883042318923 [Eh]
	 Opposite-Spin Energy      =      -0.2029563665480524 [Eh]
	 Correlation Energy        =      -0.2680446707799446 [Eh]
	 Total Energy              =     -76.3285247137731915 [Eh]
	-----------------------------------------------------------
	 ================> DF-SCS-MP2 Energies <================== 
	-----------------------------------------------------------
	 SCS Same-Spin Scale       =       0.3333333333333333 [-]
	 SCS Opposite-Spin Scale   =       1.2000000000000000 [-]
	 SCS Same-Spin Energy      =      -0.0216961014106308 [Eh]
	 SCS Opposite-Spin Energy  =      -0.2435476398576628 [Eh]
	 SCS Correlation Energy    =      -0.2652437412682936 [Eh]
	 SCS Total Energy          =     -76.3257237842615410 [Eh]
	-----------------------------------------------------------


*** tstop() called on node37.bme.utexas.edu at Tue Feb 22 19:10:20 2022
Module time:
	user time   =       1.38 seconds =       0.02 minutes
	system time =       0.09 seconds =       0.00 minutes
	total time  =          1 seconds =       0.02 minutes
Total time:
	user time   =       7.37 seconds =       0.12 minutes
	system time =       0.50 seconds =       0.01 minutes
	total time  =          9 seconds =       0.15 minutes

  //>>>>>>>>>>>>>>>>>>>>>>>>>>>>>>>>>>>>//
  // CBS Computation: MP2 / AUG-CC-PVQZ //
  //<<<<<<<<<<<<<<<<<<<<<<<<<<<<<<<<<<<<//

    SCF Algorithm Type (re)set to DF.

*** tstart() called on node37.bme.utexas.edu
*** at Tue Feb 22 19:10:20 2022

   => Loading Basis Set <=

    Name: AUG-CC-PVQZ
    Role: ORBITAL
    Keyword: BASIS
    atoms 1   entry O          line   419 file /home/bdw2292/miniconda3/envs/amoebamdpoltype/share/psi4/basis/aug-cc-pvqz.gbs 
    atoms 2-3 entry H          line    36 file /home/bdw2292/miniconda3/envs/amoebamdpoltype/share/psi4/basis/aug-cc-pvqz.gbs 


         ---------------------------------------------------------
                                   SCF
               by Justin Turney, Rob Parrish, Andy Simmonett
                          and Daniel G. A. Smith
                              RHF Reference
                        4 Threads,  14305 MiB Core
         ---------------------------------------------------------

  ==> Geometry <==

    Molecular point group: c1
    Full point group: C1

    Geometry (in Angstrom), charge = 0, multiplicity = 1:

       Center              X                  Y                   Z               Mass       
    ------------   -----------------  -----------------  -----------------  -----------------
         O           -0.974880418211     0.712643555017     4.267049750933    15.994914619570
         H           -1.034383418211    -0.217603844983     4.483771350933     1.007825032230
         H           -0.423232618211     0.805573755017     3.490282350933     1.007825032230

  Running in c1 symmetry.

  Rotational constants: A =     15.80074  B =      0.04843  C =      0.04831 [cm^-1]
  Rotational constants: A = 473694.26489  B =   1451.80684  C =   1448.32818 [MHz]
  Nuclear repulsion =    9.187140714150987

  Charge       = 0
  Multiplicity = 1
  Electrons    = 10
  Nalpha       = 5
  Nbeta        = 5

  ==> Algorithm <==

  SCF Algorithm Type is DF.
  DIIS enabled.
  MOM disabled.
  Fractional occupation disabled.
  Guess Type is SAD.
  Energy threshold   = 1.00e-08
  Density threshold  = 1.00e-08
  Integral threshold = 0.00e+00

  ==> Primary Basis <==

  Basis Set: AUG-CC-PVQZ
    Blend: AUG-CC-PVQZ
    Number of shells: 48
    Number of basis function: 172
    Number of Cartesian functions: 215
    Spherical Harmonics?: true
    Max angular momentum: 4

   => Loading Basis Set <=

    Name: (AUG-CC-PVQZ AUX)
    Role: JKFIT
    Keyword: DF_BASIS_SCF
    atoms 1   entry O          line   318 file /home/bdw2292/miniconda3/envs/amoebamdpoltype/share/psi4/basis/aug-cc-pvqz-jkfit.gbs 
    atoms 2-3 entry H          line    70 file /home/bdw2292/miniconda3/envs/amoebamdpoltype/share/psi4/basis/aug-cc-pvqz-jkfit.gbs 

  ==> Pre-Iterations <==

   -------------------------------------------------------
    Irrep   Nso     Nmo     Nalpha   Nbeta   Ndocc  Nsocc
   -------------------------------------------------------
     A        172     172       0       0       0       0
   -------------------------------------------------------
    Total     172     172       5       5       5       0
   -------------------------------------------------------

  ==> Integral Setup <==

  DFHelper Memory: AOs need 0.074 GiB; user supplied 10.477 GiB. Using in-core AOs.

  ==> MemDFJK: Density-Fitted J/K Matrices <==

    J tasked:                   Yes
    K tasked:                   Yes
    wK tasked:                   No
    OpenMP threads:               4
    Memory [MiB]:             10728
    Algorithm:                 Core
    Schwarz Cutoff:           1E-12
    Mask sparsity (%):       0.0000
    Fitting Condition:        1E-10

   => Auxiliary Basis Set <=

  Basis Set: (AUG-CC-PVQZ AUX)
    Blend: AUG-CC-PVQZ-JKFIT
    Number of shells: 70
    Number of basis function: 294
    Number of Cartesian functions: 400
    Spherical Harmonics?: true
    Max angular momentum: 5

  Minimum eigenvalue in the overlap matrix is 8.5307508411E-05.
  Using Symmetric Orthogonalization.

  SCF Guess: Superposition of Atomic Densities via on-the-fly atomic UHF.

  ==> Iterations <==

                           Total Energy        Delta E     RMS |[F,P]|

   @DF-RHF iter SAD:   -75.47961870085085   -7.54796e+01   0.00000e+00 
   @DF-RHF iter   1:   -75.98171257128632   -5.02094e-01   2.73070e-03 DIIS
   @DF-RHF iter   2:   -76.03424945987980   -5.25369e-02   1.85419e-03 DIIS
   @DF-RHF iter   3:   -76.06545138998230   -3.12019e-02   1.26266e-04 DIIS
   @DF-RHF iter   4:   -76.06584253149930   -3.91142e-04   3.08188e-05 DIIS
   @DF-RHF iter   5:   -76.06586729346557   -2.47620e-05   6.90944e-06 DIIS
   @DF-RHF iter   6:   -76.06586932260146   -2.02914e-06   1.57824e-06 DIIS
   @DF-RHF iter   7:   -76.06586944102061   -1.18419e-07   3.07734e-07 DIIS
   @DF-RHF iter   8:   -76.06586944502264   -4.00203e-09   4.92315e-08 DIIS
   @DF-RHF iter   9:   -76.06586944510627   -8.36309e-11   1.19100e-08 DIIS
   @DF-RHF iter  10:   -76.06586944511032   -4.05009e-12   1.65734e-09 DIIS
  Energy and wave function converged.


  ==> Post-Iterations <==

    Orbital Energies [Eh]
    ---------------------

    Doubly Occupied:                                                      

       1A    -20.563025     2A     -1.350258     3A     -0.725049  
       4A     -0.577646     5A     -0.509374  

    Virtual:                                                              

       6A      0.027148     7A      0.042882     8A      0.114688  
       9A      0.132613    10A      0.150379    11A      0.157883  
      12A      0.185976    13A      0.197127    14A      0.208301  
      15A      0.241252    16A      0.258891    17A      0.290469  
      18A      0.358173    19A      0.390665    20A      0.471786  
      21A      0.506779    22A      0.542998    23A      0.545770  
      24A      0.554176    25A      0.613341    26A      0.634158  
      27A      0.649554    28A      0.662648    29A      0.665776  
      30A      0.690150    31A      0.705207    32A      0.715054  
      33A      0.769609    34A      0.787841    35A      0.803431  
      36A      0.809958    37A      0.846594    38A      0.855320  
      39A      0.967397    40A      1.134306    41A      1.140478  
      42A      1.216762    43A      1.329195    44A      1.418837  
      45A      1.480667    46A      1.506204    47A      1.521715  
      48A      1.525052    49A      1.555840    50A      1.595269  
      51A      1.618263    52A      1.636875    53A      1.659626  
      54A      1.672311    55A      1.685941    56A      1.702533  
      57A      1.720144    58A      1.763152    59A      1.781162  
      60A      1.793580    61A      1.828907    62A      1.862869  
      63A      1.882185    64A      1.900964    65A      1.954650  
      66A      2.013762    67A      2.021866    68A      2.029518  
      69A      2.098824    70A      2.218554    71A      2.225678  
      72A      2.307422    73A      2.491388    74A      2.642472  
      75A      2.643741    76A      2.891317    77A      2.962915  
      78A      3.010174    79A      3.024318    80A      3.061759  
      81A      3.088679    82A      3.254558    83A      3.283877  
      84A      3.310324    85A      3.529326    86A      3.591026  
      87A      3.658140    88A      3.682338    89A      3.741225  
      90A      3.742156    91A      3.920800    92A      4.066711  
      93A      4.159502    94A      4.170243    95A      4.174768  
      96A      4.181063    97A      4.250310    98A      4.344073  
      99A      4.419181   100A      4.566978   101A      4.665850  
     102A      4.760970   103A      4.803130   104A      4.806975  
     105A      4.838802   106A      4.876067   107A      4.998867  
     108A      5.275547   109A      5.315917   110A      5.514078  
     111A      5.548485   112A      5.879463   113A      5.883429  
     114A      6.080824   115A      6.232025   116A      6.837469  
     117A      6.859268   118A      6.862729   119A      6.955712  
     120A      7.715520   121A      7.780100   122A      7.828800  
     123A      7.846769   124A      7.877826   125A      7.919770  
     126A      7.946230   127A      8.007624   128A      8.199738  
     129A      8.336412   130A      8.537635   131A      8.592348  
     132A      8.703739   133A      8.757568   134A      8.800909  
     135A      8.875875   136A      8.981670   137A      9.063757  
     138A      9.145576   139A      9.533675   140A      9.844743  
     141A      9.964010   142A      9.966412   143A     10.014538  
     144A     10.439993   145A     10.480288   146A     10.651972  
     147A     10.993982   148A     11.039743   149A     11.077056  
     150A     11.260036   151A     11.368468   152A     11.439043  
     153A     11.698572   154A     11.797250   155A     11.834435  
     156A     12.013065   157A     12.176403   158A     12.226806  
     159A     12.535616   160A     12.738760   161A     12.877357  
     162A     12.897237   163A     13.210698   164A     14.003924  
     165A     14.040821   166A     14.492261   167A     14.849613  
     168A     14.880439   169A     15.305458   170A     16.929537  
     171A     17.270965   172A     45.497542  

    Final Occupation by Irrep:
              A 
    DOCC [     5 ]

  @DF-RHF Final Energy:   -76.06586944511032

   => Energetics <=

    Nuclear Repulsion Energy =              9.1871407141509867
    One-Electron Energy =                -123.0553181432362067
    Two-Electron Energy =                  37.8023079839748846
    Total Energy =                        -76.0658694451103372

Computation Completed


Properties will be evaluated at  -1.790216,   1.258160,   8.004334 [a0]

Properties computed using the SCF density matrix

  Nuclear Dipole Moment: [e a0]
     X:     0.4096      Y:    -0.6969      Z:    -0.4661

  Electronic Dipole Moment: [e a0]
     X:    -0.0786      Y:     0.1336      Z:     0.0894

  Dipole Moment: [e a0]
     X:     0.3310      Y:    -0.5632      Z:    -0.3767     Total:     0.7541

  Dipole Moment: [D]
     X:     0.8414      Y:    -1.4316      Z:    -0.9575     Total:     1.9168


*** tstop() called on node37.bme.utexas.edu at Tue Feb 22 19:10:23 2022
Module time:
	user time   =       8.33 seconds =       0.14 minutes
	system time =       0.52 seconds =       0.01 minutes
	total time  =          3 seconds =       0.05 minutes
Total time:
	user time   =      15.73 seconds =       0.26 minutes
	system time =       1.03 seconds =       0.02 minutes
	total time  =         12 seconds =       0.20 minutes

*** tstart() called on node37.bme.utexas.edu
*** at Tue Feb 22 19:10:23 2022


  //>>>>>>>>>>>>>>>>>>>>>>>>>>>>>>>>>>>//
  //               DFMP2               //
  //<<<<<<<<<<<<<<<<<<<<<<<<<<<<<<<<<<<//

   => Loading Basis Set <=

    Name: (AUG-CC-PVQZ AUX)
    Role: RIFIT
    Keyword: DF_BASIS_MP2
    atoms 1   entry O          line   332 file /home/bdw2292/miniconda3/envs/amoebamdpoltype/share/psi4/basis/aug-cc-pvqz-ri.gbs 
    atoms 2-3 entry H          line    30 file /home/bdw2292/miniconda3/envs/amoebamdpoltype/share/psi4/basis/aug-cc-pvqz-ri.gbs 

	 --------------------------------------------------------
	                          DF-MP2                         
	      2nd-Order Density-Fitted Moller-Plesset Theory     
	              RMP2 Wavefunction,   4 Threads             
	                                                         
	        Rob Parrish, Justin Turney, Andy Simmonett,      
	           Ed Hohenstein, and C. David Sherrill          
	 --------------------------------------------------------

   => Auxiliary Basis Set <=

  Basis Set: (AUG-CC-PVQZ AUX)
    Blend: AUG-CC-PVQZ-RI
    Number of shells: 76
    Number of basis function: 328
    Number of Cartesian functions: 447
    Spherical Harmonics?: true
    Max angular momentum: 5

	 --------------------------------------------------------
	                 NBF =   172, NAUX =   328
	 --------------------------------------------------------
	   CLASS    FOCC     OCC    AOCC    AVIR     VIR    FVIR
	   PAIRS       1       5       4     167     167       0
	 --------------------------------------------------------

	-----------------------------------------------------------
	 ==================> DF-MP2 Energies <==================== 
	-----------------------------------------------------------
	 Reference Energy          =     -76.0658694451103230 [Eh]
	 Singles Energy            =      -0.0000000000000000 [Eh]
	 Same-Spin Energy          =      -0.0671579838533618 [Eh]
	 Opposite-Spin Energy      =      -0.2184969794335476 [Eh]
	 Correlation Energy        =      -0.2856549632869094 [Eh]
	 Total Energy              =     -76.3515244083972391 [Eh]
	-----------------------------------------------------------
	 ================> DF-SCS-MP2 Energies <================== 
	-----------------------------------------------------------
	 SCS Same-Spin Scale       =       0.3333333333333333 [-]
	 SCS Opposite-Spin Scale   =       1.2000000000000000 [-]
	 SCS Same-Spin Energy      =      -0.0223859946177873 [Eh]
	 SCS Opposite-Spin Energy  =      -0.2621963753202571 [Eh]
	 SCS Correlation Energy    =      -0.2845823699380444 [Eh]
	 SCS Total Energy          =     -76.3504518150483733 [Eh]
	-----------------------------------------------------------


*** tstop() called on node37.bme.utexas.edu at Tue Feb 22 19:10:24 2022
Module time:
	user time   =       2.92 seconds =       0.05 minutes
	system time =       0.22 seconds =       0.00 minutes
	total time  =          1 seconds =       0.02 minutes
Total time:
	user time   =      18.65 seconds =       0.31 minutes
	system time =       1.25 seconds =       0.02 minutes
	total time  =         13 seconds =       0.22 minutes

  //>>>>>>>>>>>>>>>>>>>>>>>>>>>>>>>>>>>//
  //  CBS Results: mp2/aug-cc-pV[TQ]Z  //
  //<<<<<<<<<<<<<<<<<<<<<<<<<<<<<<<<<<<//


   ==> HF <==

   HI-zeta (4) Energy:               -76.065869445110


   ==> Helgaker 2-point correlated extrapolation for method: MP2 <==

   LO-zeta (3) Energy:               -76.328524713773
   HI-zeta (4) Energy:               -76.351524408397
   Alpha (exponent) Value:             3.000000000000
   Extrapolated Energy:              -76.368307969339

   @Extrapolated MP2/(T,Q):          -76.368307969339



   ==> Helgaker 2-point correlated extrapolation for method: HF <==

   LO-zeta (3) Energy:               -76.060480042993
   HI-zeta (4) Energy:               -76.065869445110
   Alpha (exponent) Value:             3.000000000000
   Extrapolated Energy:              -76.069802252061

   @Extrapolated HF/(T,Q):           -76.069802252061


   ==> Components <==

  ---------------------------------------------------------------------------------------------------------
                          Method / Basis                      Rqd      Energy [Eh]   Variable
  ---------------------------------------------------------------------------------------------------------
                              hf / aug-cc-pvtz                  *     -76.06048004   HF TOTAL ENERGY
                             mp2 / aug-cc-pvtz                  *     -76.32852471   MP2 TOTAL ENERGY
                              hf / aug-cc-pvqz                  *     -76.06586945   HF TOTAL ENERGY
                             mp2 / aug-cc-pvqz                  *     -76.35152441   MP2 TOTAL ENERGY
  ---------------------------------------------------------------------------------------------------------

   ==> Stages <==

  ---------------------------------------------------------------------------------------------------------
      Stage               Method / Basis                       Wt      Energy [Eh]   Scheme
  ---------------------------------------------------------------------------------------------------------
        scf                   hf / aug-cc-pvqz                  1     -76.06586945   xtpl_highest_1
       corl                  mp2 / aug-cc-pv[tq]z               1     -76.36830797   corl_xtpl_helgaker_2
       corl                   hf / aug-cc-pv[tq]z              -1     -76.06980225   corl_xtpl_helgaker_2
  ---------------------------------------------------------------------------------------------------------

   ==> CBS <==

  ---------------------------------------------------------------------------------------------------------
      Stage               Method / Basis                               Energy [Eh]   Scheme
  ---------------------------------------------------------------------------------------------------------
        scf                   hf / aug-cc-pvqz                        -76.06586945   xtpl_highest_1
       corl                  mp2 / aug-cc-pv[tq]z                      -0.29850572   corl_xtpl_helgaker_2
      total                  CBS                                      -76.36437516   
  ---------------------------------------------------------------------------------------------------------
   => Loading Basis Set <=

    Name: DEF2-SVP
    Role: ORBITAL
    Keyword: BASIS
    atoms 1   entry O          line   130 file /home/bdw2292/miniconda3/envs/amoebamdpoltype/share/psi4/basis/def2-svp.gbs 
    atoms 2-3 entry H          line    15 file /home/bdw2292/miniconda3/envs/amoebamdpoltype/share/psi4/basis/def2-svp.gbs 


       N-Body: Complex Energy (fragments = (2,), basis = (2,):   -76.36437516238878)

       N-Body: Computing complex (2/4) with fragments (2,) in the basis of fragments (1, 2).


  //>>>>>>>>>>>>>>>>>>>>>>>>>>>>>>>>>>>//
  //   CBS Setup: mp2/aug-cc-pV[TQ]Z   //
  //<<<<<<<<<<<<<<<<<<<<<<<<<<<<<<<<<<<//

    Naive listing of computations required.
             hf / aug-cc-pvqz              for  HF TOTAL ENERGY
            mp2 / aug-cc-pvtz              for  MP2 TOTAL ENERGY
            mp2 / aug-cc-pvqz              for  MP2 TOTAL ENERGY
             hf / aug-cc-pvtz              for  HF TOTAL ENERGY
             hf / aug-cc-pvqz              for  HF TOTAL ENERGY

    Enlightened listing of computations required.
            mp2 / aug-cc-pvtz              for  MP2 TOTAL ENERGY
            mp2 / aug-cc-pvqz              for  MP2 TOTAL ENERGY

    Full listing of computations to be obtained (required and bonus).
             hf / aug-cc-pvtz              for  HF TOTAL ENERGY
            mp2 / aug-cc-pvtz              for  MP2 TOTAL ENERGY
             hf / aug-cc-pvqz              for  HF TOTAL ENERGY
            mp2 / aug-cc-pvqz              for  MP2 TOTAL ENERGY

  //>>>>>>>>>>>>>>>>>>>>>>>>>>>>>>>>>>>>//
  // CBS Computation: MP2 / AUG-CC-PVTZ //
  //<<<<<<<<<<<<<<<<<<<<<<<<<<<<<<<<<<<<//

    SCF Algorithm Type (re)set to DF.

*** tstart() called on node37.bme.utexas.edu
*** at Tue Feb 22 19:10:25 2022

   => Loading Basis Set <=

    Name: AUG-CC-PVTZ
    Role: ORBITAL
    Keyword: BASIS
    atoms 1-4 entry CL         line   984 file /home/bdw2292/miniconda3/envs/amoebamdpoltype/share/psi4/basis/aug-cc-pvtz.gbs 
    atoms 5   entry C          line   235 file /home/bdw2292/miniconda3/envs/amoebamdpoltype/share/psi4/basis/aug-cc-pvtz.gbs 
    atoms 6   entry O          line   327 file /home/bdw2292/miniconda3/envs/amoebamdpoltype/share/psi4/basis/aug-cc-pvtz.gbs 
    atoms 7-8 entry H          line    36 file /home/bdw2292/miniconda3/envs/amoebamdpoltype/share/psi4/basis/aug-cc-pvtz.gbs 


         ---------------------------------------------------------
                                   SCF
               by Justin Turney, Rob Parrish, Andy Simmonett
                          and Daniel G. A. Smith
                              RHF Reference
                        4 Threads,  14305 MiB Core
         ---------------------------------------------------------

  ==> Geometry <==

    Molecular point group: c1
    Full point group: C1

    Geometry (in Angstrom), charge = 0, multiplicity = 1:

       Center              X                  Y                   Z               Mass       
    ------------   -----------------  -----------------  -----------------  -----------------
      Gh(CL)         -1.123621218211    -1.180165944983     0.118219150933    34.968852682000
      Gh(CL)         -0.615615618211     1.499239755017    -0.829501249067    34.968852682000
      Gh(CL)          0.796296981789    -0.737963844983    -1.999963749067    34.968852682000
      Gh(CL)          1.392094081789     0.103410955017     0.703298150933    34.968852682000
      Gh(C)           0.112978581789    -0.079941844983    -0.505993349067    12.000000000000
         O           -0.974880418211     0.712643555017     4.267049750933    15.994914619570
         H           -1.034383418211    -0.217603844983     4.483771350933     1.007825032230
         H           -0.423232618211     0.805573755017     3.490282350933     1.007825032230

  Running in c1 symmetry.

  Rotational constants: A =      0.05767  B =      0.02474  C =      0.02470 [cm^-1]
  Rotational constants: A =   1728.85775  B =    741.65947  C =    740.43853 [MHz]
  Nuclear repulsion =    9.187140714150987

  Charge       = 0
  Multiplicity = 1
  Electrons    = 10
  Nalpha       = 5
  Nbeta        = 5

  ==> Algorithm <==

  SCF Algorithm Type is DF.
  DIIS enabled.
  MOM disabled.
  Fractional occupation disabled.
  Guess Type is SAD.
  Energy threshold   = 1.00e-08
  Density threshold  = 1.00e-08
  Integral threshold = 0.00e+00

  ==> Primary Basis <==

  Basis Set: AUG-CC-PVTZ
    Blend: AUG-CC-PVTZ
    Number of shells: 110
    Number of basis function: 338
    Number of Cartesian functions: 396
    Spherical Harmonics?: true
    Max angular momentum: 3

   => Loading Basis Set <=

    Name: (AUG-CC-PVTZ AUX)
    Role: JKFIT
    Keyword: DF_BASIS_SCF
    atoms 1-4 entry CL         line   816 file /home/bdw2292/miniconda3/envs/amoebamdpoltype/share/psi4/basis/aug-cc-pvtz-jkfit.gbs 
    atoms 5   entry C          line   162 file /home/bdw2292/miniconda3/envs/amoebamdpoltype/share/psi4/basis/aug-cc-pvtz-jkfit.gbs 
    atoms 6   entry O          line   286 file /home/bdw2292/miniconda3/envs/amoebamdpoltype/share/psi4/basis/aug-cc-pvtz-jkfit.gbs 
    atoms 7-8 entry H          line    70 file /home/bdw2292/miniconda3/envs/amoebamdpoltype/share/psi4/basis/aug-cc-pvtz-jkfit.gbs 

  ==> Pre-Iterations <==

   -------------------------------------------------------
    Irrep   Nso     Nmo     Nalpha   Nbeta   Ndocc  Nsocc
   -------------------------------------------------------
     A        338     338       0       0       0       0
   -------------------------------------------------------
    Total     338     338       5       5       5       0
   -------------------------------------------------------

  ==> Integral Setup <==

  DFHelper Memory: AOs need 0.728 GiB; user supplied 10.477 GiB. Using in-core AOs.

  ==> MemDFJK: Density-Fitted J/K Matrices <==

    J tasked:                   Yes
    K tasked:                   Yes
    wK tasked:                   No
    OpenMP threads:               4
    Memory [MiB]:             10728
    Algorithm:                 Core
    Schwarz Cutoff:           1E-12
    Mask sparsity (%):       7.4857
    Fitting Condition:        1E-10

   => Auxiliary Basis Set <=

  Basis Set: (AUG-CC-PVTZ AUX)
    Blend: AUG-CC-PVTZ-JKFIT
    Number of shells: 256
    Number of basis function: 884
    Number of Cartesian functions: 1092
    Spherical Harmonics?: true
    Max angular momentum: 4

  Minimum eigenvalue in the overlap matrix is 7.1200691426E-05.
  Using Symmetric Orthogonalization.

  SCF Guess: Superposition of Atomic Densities via on-the-fly atomic UHF.

  ==> Iterations <==

                           Total Energy        Delta E     RMS |[F,P]|

   @DF-RHF iter SAD:   -75.47446191512827   -7.54745e+01   0.00000e+00 
   @DF-RHF iter   1:   -75.97663595852011   -5.02174e-01   1.38671e-03 DIIS
   @DF-RHF iter   2:   -76.02907412350743   -5.24382e-02   9.39476e-04 DIIS
   @DF-RHF iter   3:   -76.06008194679100   -3.10078e-02   6.37938e-05 DIIS
   @DF-RHF iter   4:   -76.06047110834267   -3.89162e-04   1.52205e-05 DIIS
   @DF-RHF iter   5:   -76.06049498882835   -2.38805e-05   3.42416e-06 DIIS
   @DF-RHF iter   6:   -76.06049693676839   -1.94794e-06   7.62016e-07 DIIS
   @DF-RHF iter   7:   -76.06049704412533   -1.07357e-07   1.44100e-07 DIIS
   @DF-RHF iter   8:   -76.06049704753283   -3.40751e-09   2.38922e-08 DIIS
   @DF-RHF iter   9:   -76.06049704760660   -7.37685e-11   5.92743e-09 DIIS
  Energy and wave function converged.


  ==> Post-Iterations <==

    Orbital Energies [Eh]
    ---------------------

    Doubly Occupied:                                                      

       1A    -20.565483     2A     -1.350979     3A     -0.725079  
       4A     -0.577586     5A     -0.509244  

    Virtual:                                                              

       6A      0.019935     7A      0.038105     8A      0.047885  
       9A      0.052689    10A      0.062429    11A      0.077048  
      12A      0.101249    13A      0.102775    14A      0.105499  
      15A      0.105780    16A      0.113433    17A      0.121537  
      18A      0.145257    19A      0.151002    20A      0.152898  
      21A      0.165045    22A      0.168142    23A      0.171584  
      24A      0.176993    25A      0.187034    26A      0.190955  
      27A      0.199083    28A      0.207248    29A      0.209618  
      30A      0.220527    31A      0.239867    32A      0.255640  
      33A      0.265474    34A      0.292300    35A      0.298735  
      36A      0.302099    37A      0.317631    38A      0.324956  
      39A      0.328737    40A      0.330871    41A      0.352112  
      42A      0.355094    43A      0.379720    44A      0.390689  
      45A      0.393518    46A      0.413590    47A      0.419305  
      48A      0.437083    49A      0.445016    50A      0.450505  
      51A      0.453877    52A      0.461574    53A      0.484547  
      54A      0.508667    55A      0.521915    56A      0.524733  
      57A      0.531087    58A      0.539118    59A      0.541757  
      60A      0.543205    61A      0.546434    62A      0.556686  
      63A      0.582931    64A      0.585842    65A      0.610905  
      66A      0.615991    67A      0.626846    68A      0.631491  
      69A      0.645699    70A      0.676416    71A      0.699874  
      72A      0.707798    73A      0.717413    74A      0.724423  
      75A      0.731442    76A      0.735649    77A      0.744082  
      78A      0.748251    79A      0.752085    80A      0.755429  
      81A      0.757237    82A      0.766859    83A      0.771512  
      84A      0.779175    85A      0.799558    86A      0.830898  
      87A      0.842276    88A      0.856445    89A      0.862833  
      90A      0.870937    91A      0.919660    92A      0.933953  
      93A      0.947341    94A      0.958247    95A      0.979169  
      96A      0.980245    97A      1.022790    98A      1.035667  
      99A      1.068836   100A      1.121235   101A      1.139498  
     102A      1.142080   103A      1.176983   104A      1.200622  
     105A      1.214851   106A      1.224552   107A      1.230714  
     108A      1.232369   109A      1.243263   110A      1.264686  
     111A      1.273379   112A      1.285183   113A      1.293896  
     114A      1.334538   115A      1.343485   116A      1.345974  
     117A      1.355029   118A      1.357482   119A      1.362093  
     120A      1.368790   121A      1.372726   122A      1.397625  
     123A      1.401177   124A      1.413532   125A      1.427311  
     126A      1.449643   127A      1.465789   128A      1.472404  
     129A      1.478962   130A      1.479329   131A      1.486767  
     132A      1.491373   133A      1.495146   134A      1.506592  
     135A      1.527350   136A      1.536761   137A      1.542907  
     138A      1.552915   139A      1.554565   140A      1.557069  
     141A      1.567207   142A      1.578206   143A      1.590538  
     144A      1.595988   145A      1.614967   146A      1.625343  
     147A      1.634196   148A      1.651721   149A      1.658050  
     150A      1.662278   151A      1.671057   152A      1.678472  
     153A      1.705941   154A      1.707859   155A      1.719829  
     156A      1.726706   157A      1.757465   158A      1.766596  
     159A      1.788479   160A      1.816964   161A      1.841212  
     162A      1.850551   163A      1.864174   164A      1.879718  
     165A      1.881383   166A      1.892110   167A      1.933034  
     168A      2.052379   169A      2.127743   170A      2.130308  
     171A      2.133892   172A      2.136737   173A      2.141872  
     174A      2.145724   175A      2.208287   176A      2.218142  
     177A      2.226989   178A      2.264472   179A      2.284664  
     180A      2.305552   181A      2.314725   182A      2.325652  
     183A      2.347861   184A      2.371267   185A      2.441056  
     186A      2.447259   187A      2.455700   188A      2.457819  
     189A      2.471925   190A      2.496516   191A      2.531838  
     192A      2.561339   193A      2.574400   194A      2.577320  
     195A      2.707809   196A      2.747677   197A      2.749053  
     198A      2.750153   199A      2.771046   200A      2.806829  
     201A      2.882115   202A      2.918833   203A      2.989240  
     204A      3.662794   205A      3.785599   206A      3.794551  
     207A      3.798419   208A      3.810597   209A      3.870561  
     210A      3.945551   211A      3.948797   212A      3.951409  
     213A      3.970727   214A      3.977525   215A      3.982200  
     216A      3.994562   217A      4.003366   218A      4.020364  
     219A      4.028601   220A      4.031513   221A      4.036046  
     222A      4.071887   223A      4.079412   224A      4.096882  
     225A      4.118589   226A      4.124632   227A      4.127755  
     228A      4.134053   229A      4.139273   230A      4.144225  
     231A      4.154287   232A      4.158146   233A      4.183362  
     234A      4.186356   235A      4.203612   236A      4.229698  
     237A      4.234593   238A      4.236473   239A      4.241276  
     240A      4.250049   241A      4.260932   242A      4.266546  
     243A      4.279655   244A      4.303414   245A      4.339650  
     246A      4.392918   247A      4.417512   248A      4.444725  
     249A      4.456208   250A      4.461188   251A      4.467008  
     252A      4.471098   253A      4.475045   254A      4.539509  
     255A      4.694432   256A      4.697487   257A      4.720416  
     258A      4.725514   259A      4.728102   260A      4.736043  
     261A      4.752929   262A      4.763633   263A      4.772159  
     264A      4.775012   265A      4.786889   266A      4.791111  
     267A      4.812440   268A      4.822019   269A      4.824149  
     270A      4.829926   271A      4.852785   272A      4.876800  
     273A      4.884016   274A      4.887144   275A      4.895676  
     276A      4.903901   277A      5.083752   278A      5.085530  
     279A      5.102827   280A      5.108676   281A      5.112576  
     282A      5.121562   283A      5.152815   284A      5.181759  
     285A      5.333437   286A      5.347986   287A      5.395285  
     288A      5.398366   289A      5.401095   290A      5.403030  
     291A      5.405890   292A      5.518435   293A      5.600837  
     294A      5.738211   295A      5.842693   296A      6.123691  
     297A      6.133128   298A      6.138443   299A      6.158826  
     300A      6.546792   301A      6.733792   302A      6.877022  
     303A      7.151949   304A      7.283967   305A      7.319467  
     306A      7.321634   307A      7.394975   308A      7.399492  
     309A      7.522572   310A      7.640185   311A      7.897391  
     312A      7.899697   313A      7.920699   314A      7.930614  
     315A      7.970194   316A      8.802639   317A     15.300118  
     318A     16.062370   319A     16.384658   320A     16.445255  
     321A     16.477948   322A     28.050886   323A     28.058247  
     324A     28.074984   325A     28.165699   326A     28.170872  
     327A     28.197952   328A     28.324915   329A     28.332502  
     330A     28.839431   331A     28.843295   332A     28.873001  
     333A     29.523357   334A     40.599998   335A    160.918256  
     336A    161.040584   337A    161.040819   338A    161.044899  

    Final Occupation by Irrep:
              A 
    DOCC [     5 ]

  @DF-RHF Final Energy:   -76.06049704760660

   => Energetics <=

    Nuclear Repulsion Energy =              9.1871407141509867
    One-Electron Energy =                -123.0385320188978966
    Two-Electron Energy =                  37.7908942571403088
    Total Energy =                        -76.0604970476066029

Computation Completed


Properties will be evaluated at   0.000000,  -0.000000,  -0.000000 [a0]

Properties computed using the SCF density matrix

  Nuclear Dipole Moment: [e a0]
     X:   -17.4926      Y:    11.8847      Z:    79.5772

  Electronic Dipole Moment: [e a0]
     X:    17.8241      Y:   -12.4487      Z:   -79.9545

  Dipole Moment: [e a0]
     X:     0.3316      Y:    -0.5640      Z:    -0.3773     Total:     0.7553

  Dipole Moment: [D]
     X:     0.8428      Y:    -1.4335      Z:    -0.9591     Total:     1.9197


*** tstop() called on node37.bme.utexas.edu at Tue Feb 22 19:10:50 2022
Module time:
	user time   =      44.20 seconds =       0.74 minutes
	system time =       2.25 seconds =       0.04 minutes
	total time  =         25 seconds =       0.42 minutes
Total time:
	user time   =      64.76 seconds =       1.08 minutes
	system time =       3.56 seconds =       0.06 minutes
	total time  =         39 seconds =       0.65 minutes

*** tstart() called on node37.bme.utexas.edu
*** at Tue Feb 22 19:10:50 2022


  //>>>>>>>>>>>>>>>>>>>>>>>>>>>>>>>>>>>//
  //               DFMP2               //
  //<<<<<<<<<<<<<<<<<<<<<<<<<<<<<<<<<<<//

   => Loading Basis Set <=

    Name: (AUG-CC-PVTZ AUX)
    Role: RIFIT
    Keyword: DF_BASIS_MP2
    atoms 1-4 entry CL         line   742 file /home/bdw2292/miniconda3/envs/amoebamdpoltype/share/psi4/basis/aug-cc-pvtz-ri.gbs 
    atoms 5   entry C          line   148 file /home/bdw2292/miniconda3/envs/amoebamdpoltype/share/psi4/basis/aug-cc-pvtz-ri.gbs 
    atoms 6   entry O          line   264 file /home/bdw2292/miniconda3/envs/amoebamdpoltype/share/psi4/basis/aug-cc-pvtz-ri.gbs 
    atoms 7-8 entry H          line    30 file /home/bdw2292/miniconda3/envs/amoebamdpoltype/share/psi4/basis/aug-cc-pvtz-ri.gbs 

	 --------------------------------------------------------
	                          DF-MP2                         
	      2nd-Order Density-Fitted Moller-Plesset Theory     
	              RMP2 Wavefunction,   4 Threads             
	                                                         
	        Rob Parrish, Justin Turney, Andy Simmonett,      
	           Ed Hohenstein, and C. David Sherrill          
	 --------------------------------------------------------

   => Auxiliary Basis Set <=

  Basis Set: (AUG-CC-PVTZ AUX)
    Blend: AUG-CC-PVTZ-RI
    Number of shells: 232
    Number of basis function: 892
    Number of Cartesian functions: 1146
    Spherical Harmonics?: true
    Max angular momentum: 4

	 --------------------------------------------------------
	                 NBF =   338, NAUX =   892
	 --------------------------------------------------------
	   CLASS    FOCC     OCC    AOCC    AVIR     VIR    FVIR
	   PAIRS       1       5       4     333     333       0
	 --------------------------------------------------------

	-----------------------------------------------------------
	 ==================> DF-MP2 Energies <==================== 
	-----------------------------------------------------------
	 Reference Energy          =     -76.0604970476066029 [Eh]
	 Singles Energy            =      -0.0000000000000000 [Eh]
	 Same-Spin Energy          =      -0.0650955973502070 [Eh]
	 Opposite-Spin Energy      =      -0.2030265437114569 [Eh]
	 Correlation Energy        =      -0.2681221410616639 [Eh]
	 Total Energy              =     -76.3286191886682701 [Eh]
	-----------------------------------------------------------
	 ================> DF-SCS-MP2 Energies <================== 
	-----------------------------------------------------------
	 SCS Same-Spin Scale       =       0.3333333333333333 [-]
	 SCS Opposite-Spin Scale   =       1.2000000000000000 [-]
	 SCS Same-Spin Energy      =      -0.0216985324500690 [Eh]
	 SCS Opposite-Spin Energy  =      -0.2436318524537483 [Eh]
	 SCS Correlation Energy    =      -0.2653303849038173 [Eh]
	 SCS Total Energy          =     -76.3258274325104225 [Eh]
	-----------------------------------------------------------


*** tstop() called on node37.bme.utexas.edu at Tue Feb 22 19:10:57 2022
Module time:
	user time   =      19.33 seconds =       0.32 minutes
	system time =       0.89 seconds =       0.01 minutes
	total time  =          7 seconds =       0.12 minutes
Total time:
	user time   =      84.09 seconds =       1.40 minutes
	system time =       4.45 seconds =       0.07 minutes
	total time  =         46 seconds =       0.77 minutes

  //>>>>>>>>>>>>>>>>>>>>>>>>>>>>>>>>>>>>//
  // CBS Computation: MP2 / AUG-CC-PVQZ //
  //<<<<<<<<<<<<<<<<<<<<<<<<<<<<<<<<<<<<//

    SCF Algorithm Type (re)set to DF.

*** tstart() called on node37.bme.utexas.edu
*** at Tue Feb 22 19:10:57 2022

   => Loading Basis Set <=

    Name: AUG-CC-PVQZ
    Role: ORBITAL
    Keyword: BASIS
    atoms 1-4 entry CL         line  1218 file /home/bdw2292/miniconda3/envs/amoebamdpoltype/share/psi4/basis/aug-cc-pvqz.gbs 
    atoms 5   entry C          line   299 file /home/bdw2292/miniconda3/envs/amoebamdpoltype/share/psi4/basis/aug-cc-pvqz.gbs 
    atoms 6   entry O          line   419 file /home/bdw2292/miniconda3/envs/amoebamdpoltype/share/psi4/basis/aug-cc-pvqz.gbs 
    atoms 7-8 entry H          line    36 file /home/bdw2292/miniconda3/envs/amoebamdpoltype/share/psi4/basis/aug-cc-pvqz.gbs 


         ---------------------------------------------------------
                                   SCF
               by Justin Turney, Rob Parrish, Andy Simmonett
                          and Daniel G. A. Smith
                              RHF Reference
                        4 Threads,  14305 MiB Core
         ---------------------------------------------------------

  ==> Geometry <==

    Molecular point group: c1
    Full point group: C1

    Geometry (in Angstrom), charge = 0, multiplicity = 1:

       Center              X                  Y                   Z               Mass       
    ------------   -----------------  -----------------  -----------------  -----------------
      Gh(CL)         -1.123621218211    -1.180165944983     0.118219150933    34.968852682000
      Gh(CL)         -0.615615618211     1.499239755017    -0.829501249067    34.968852682000
      Gh(CL)          0.796296981789    -0.737963844983    -1.999963749067    34.968852682000
      Gh(CL)          1.392094081789     0.103410955017     0.703298150933    34.968852682000
      Gh(C)           0.112978581789    -0.079941844983    -0.505993349067    12.000000000000
         O           -0.974880418211     0.712643555017     4.267049750933    15.994914619570
         H           -1.034383418211    -0.217603844983     4.483771350933     1.007825032230
         H           -0.423232618211     0.805573755017     3.490282350933     1.007825032230

  Running in c1 symmetry.

  Rotational constants: A =      0.05767  B =      0.02474  C =      0.02470 [cm^-1]
  Rotational constants: A =   1728.85775  B =    741.65947  C =    740.43853 [MHz]
  Nuclear repulsion =    9.187140714150987

  Charge       = 0
  Multiplicity = 1
  Electrons    = 10
  Nalpha       = 5
  Nbeta        = 5

  ==> Algorithm <==

  SCF Algorithm Type is DF.
  DIIS enabled.
  MOM disabled.
  Fractional occupation disabled.
  Guess Type is SAD.
  Energy threshold   = 1.00e-08
  Density threshold  = 1.00e-08
  Integral threshold = 0.00e+00

  ==> Primary Basis <==

  Basis Set: AUG-CC-PVQZ
    Blend: AUG-CC-PVQZ
    Number of shells: 156
    Number of basis function: 588
    Number of Cartesian functions: 756
    Spherical Harmonics?: true
    Max angular momentum: 4

   => Loading Basis Set <=

    Name: (AUG-CC-PVQZ AUX)
    Role: JKFIT
    Keyword: DF_BASIS_SCF
    atoms 1-4 entry CL         line   904 file /home/bdw2292/miniconda3/envs/amoebamdpoltype/share/psi4/basis/aug-cc-pvqz-jkfit.gbs 
    atoms 5   entry C          line   178 file /home/bdw2292/miniconda3/envs/amoebamdpoltype/share/psi4/basis/aug-cc-pvqz-jkfit.gbs 
    atoms 6   entry O          line   318 file /home/bdw2292/miniconda3/envs/amoebamdpoltype/share/psi4/basis/aug-cc-pvqz-jkfit.gbs 
    atoms 7-8 entry H          line    70 file /home/bdw2292/miniconda3/envs/amoebamdpoltype/share/psi4/basis/aug-cc-pvqz-jkfit.gbs 

  ==> Pre-Iterations <==

   -------------------------------------------------------
    Irrep   Nso     Nmo     Nalpha   Nbeta   Ndocc  Nsocc
   -------------------------------------------------------
     A        588     588       0       0       0       0
   -------------------------------------------------------
    Total     588     588       5       5       5       0
   -------------------------------------------------------

  ==> Integral Setup <==

  DFHelper Memory: AOs need 2.764 GiB; user supplied 10.477 GiB. Using in-core AOs.

  ==> MemDFJK: Density-Fitted J/K Matrices <==

    J tasked:                   Yes
    K tasked:                   Yes
    wK tasked:                   No
    OpenMP threads:               4
    Memory [MiB]:             10728
    Algorithm:                 Disk
    Schwarz Cutoff:           1E-12
    Mask sparsity (%):      11.9464
    Fitting Condition:        1E-10

   => Auxiliary Basis Set <=

  Basis Set: (AUG-CC-PVQZ AUX)
    Blend: AUG-CC-PVQZ-JKFIT
    Number of shells: 288
    Number of basis function: 1172
    Number of Cartesian functions: 1586
    Spherical Harmonics?: true
    Max angular momentum: 5

  Minimum eigenvalue in the overlap matrix is 1.2098835591E-05.
  Using Symmetric Orthogonalization.

  SCF Guess: Superposition of Atomic Densities via on-the-fly atomic UHF.

  ==> Iterations <==

                           Total Energy        Delta E     RMS |[F,P]|

   @DF-RHF iter SAD:   -75.47961869750938   -7.54796e+01   0.00000e+00 
   @DF-RHF iter   1:   -75.98171811099310   -5.02099e-01   7.98794e-04 DIIS
   @DF-RHF iter   2:   -76.03425691723923   -5.25388e-02   5.42407e-04 DIIS
   @DF-RHF iter   3:   -76.06546008875544   -3.12032e-02   3.69362e-05 DIIS
   @DF-RHF iter   4:   -76.06585125300842   -3.91164e-04   9.01525e-06 DIIS
   @DF-RHF iter   5:   -76.06587601595056   -2.47629e-05   2.02119e-06 DIIS
   @DF-RHF iter   6:   -76.06587804537794   -2.02943e-06   4.61698e-07 DIIS
   @DF-RHF iter   7:   -76.06587816385202   -1.18474e-07   9.00825e-08 DIIS
   @DF-RHF iter   8:   -76.06587816786303   -4.01101e-09   1.44170e-08 DIIS
   @DF-RHF iter   9:   -76.06587816794645   -8.34177e-11   3.48661e-09 DIIS
  Energy and wave function converged.


  ==> Post-Iterations <==

    Orbital Energies [Eh]
    ---------------------

    Doubly Occupied:                                                      

       1A    -20.563013     2A     -1.350248     3A     -0.725039  
       4A     -0.577636     5A     -0.509371  

    Virtual:                                                              

       6A      0.017451     7A      0.034007     8A      0.041900  
       9A      0.045204    10A      0.055123    11A      0.069078  
      12A      0.085835    13A      0.087231    14A      0.087836  
      15A      0.089085    16A      0.096981    17A      0.105360  
      18A      0.123954    19A      0.128730    20A      0.131098  
      21A      0.139910    22A      0.142075    23A      0.145966  
      24A      0.149087    25A      0.160986    26A      0.164232  
      27A      0.171079    28A      0.178262    29A      0.182871  
      30A      0.188407    31A      0.209036    32A      0.212932  
      33A      0.219186    34A      0.235136    35A      0.243010  
      36A      0.247348    37A      0.250270    38A      0.254853  
      39A      0.256387    40A      0.261224    41A      0.277104  
      42A      0.292984    43A      0.307611    44A      0.309979  
      45A      0.317720    46A      0.330972    47A      0.332639  
      48A      0.333818    49A      0.342949    50A      0.351590  
      51A      0.365214    52A      0.369537    53A      0.382843  
      54A      0.387409    55A      0.396851    56A      0.404001  
      57A      0.410163    58A      0.417485    59A      0.425148  
      60A      0.428620    61A      0.430856    62A      0.440154  
      63A      0.446945    64A      0.456107    65A      0.465042  
      66A      0.469542    67A      0.473858    68A      0.479727  
      69A      0.510427    70A      0.519264    71A      0.530239  
      72A      0.530580    73A      0.534009    74A      0.541446  
      75A      0.546374    76A      0.550622    77A      0.555958  
      78A      0.561474    79A      0.573058    80A      0.574743  
      81A      0.582334    82A      0.583688    83A      0.596048  
      84A      0.602300    85A      0.609252    86A      0.636695  
      87A      0.655111    88A      0.658273    89A      0.663409  
      90A      0.675040    91A      0.684131    92A      0.703711  
      93A      0.715159    94A      0.722909    95A      0.732018  
      96A      0.767039    97A      0.771669    98A      0.802940  
      99A      0.804423   100A      0.815477   101A      0.839957  
     102A      0.847061   103A      0.851036   104A      0.862296  
     105A      0.875284   106A      0.890418   107A      0.900608  
     108A      0.911734   109A      0.918855   110A      0.919589  
     111A      0.937874   112A      0.940096   113A      0.946260  
     114A      0.949808   115A      0.956854   116A      0.964994  
     117A      0.976454   118A      0.981051   119A      0.987504  
     120A      0.996494   121A      1.001434   122A      1.003577  
     123A      1.017534   124A      1.019538   125A      1.022495  
     126A      1.036474   127A      1.044002   128A      1.046688  
     129A      1.049135   130A      1.056156   131A      1.060264  
     132A      1.062389   133A      1.076121   134A      1.080913  
     135A      1.088692   136A      1.095486   137A      1.104701  
     138A      1.113719   139A      1.126848   140A      1.136676  
     141A      1.149547   142A      1.164136   143A      1.170054  
     144A      1.182139   145A      1.182758   146A      1.193730  
     147A      1.200930   148A      1.208134   149A      1.211614  
     150A      1.215806   151A      1.227554   152A      1.235851  
     153A      1.243706   154A      1.260125   155A      1.264522  
     156A      1.282815   157A      1.289531   158A      1.302578  
     159A      1.309838   160A      1.338061   161A      1.352996  
     162A      1.375646   163A      1.396542   164A      1.400235  
     165A      1.412340   166A      1.449724   167A      1.460736  
     168A      1.511839   169A      1.533921   170A      1.567757  
     171A      1.579944   172A      1.590080   173A      1.593670  
     174A      1.616656   175A      1.624691   176A      1.629091  
     177A      1.634612   178A      1.642375   179A      1.658080  
     180A      1.660343   181A      1.663774   182A      1.669490  
     183A      1.680330   184A      1.689732   185A      1.696283  
     186A      1.696760   187A      1.701796   188A      1.719576  
     189A      1.729577   190A      1.741964   191A      1.758156  
     192A      1.774536   193A      1.787071   194A      1.795526  
     195A      1.823862   196A      1.826282   197A      1.835404  
     198A      1.838932   199A      1.853146   200A      1.866999  
     201A      1.890942   202A      1.899169   203A      1.913625  
     204A      1.920038   205A      1.929513   206A      1.936181  
     207A      1.948475   208A      1.955495   209A      1.969219  
     210A      1.971766   211A      1.981576   212A      1.997089  
     213A      2.002525   214A      2.014174   215A      2.018684  
     216A      2.024486   217A      2.036166   218A      2.047220  
     219A      2.065820   220A      2.087839   221A      2.108210  
     222A      2.156631   223A      2.199748   224A      2.207025  
     225A      2.210902   226A      2.230006   227A      2.231179  
     228A      2.241719   229A      2.244435   230A      2.252946  
     231A      2.266688   232A      2.274577   233A      2.288018  
     234A      2.296774   235A      2.313601   236A      2.327124  
     237A      2.344484   238A      2.354793   239A      2.370271  
     240A      2.375246   241A      2.408265   242A      2.425609  
     243A      2.433309   244A      2.436852   245A      2.450638  
     246A      2.454731   247A      2.470126   248A      2.479739  
     249A      2.487626   250A      2.489524   251A      2.495105  
     252A      2.515404   253A      2.515963   254A      2.517808  
     255A      2.534550   256A      2.541790   257A      2.550997  
     258A      2.556068   259A      2.566363   260A      2.571195  
     261A      2.586995   262A      2.593500   263A      2.603222  
     264A      2.607082   265A      2.610296   266A      2.612792  
     267A      2.633227   268A      2.640936   269A      2.652913  
     270A      2.665121   271A      2.667186   272A      2.681772  
     273A      2.699550   274A      2.706897   275A      2.717021  
     276A      2.720611   277A      2.754447   278A      2.791090  
     279A      2.803508   280A      2.805976   281A      2.808733  
     282A      2.818451   283A      2.847152   284A      2.856266  
     285A      2.899625   286A      2.906240   287A      2.915313  
     288A      2.924355   289A      2.937483   290A      2.959748  
     291A      2.971826   292A      2.981469   293A      3.002460  
     294A      3.012744   295A      3.018981   296A      3.036640  
     297A      3.051737   298A      3.080931   299A      3.105389  
     300A      3.119571   301A      3.144758   302A      3.147707  
     303A      3.171331   304A      3.204814   305A      3.217163  
     306A      3.222817   307A      3.227779   308A      3.240801  
     309A      3.248841   310A      3.250736   311A      3.251586  
     312A      3.263464   313A      3.291690   314A      3.339603  
     315A      3.368501   316A      3.386886   317A      3.393551  
     318A      3.397699   319A      3.486199   320A      3.490537  
     321A      3.502583   322A      3.551922   323A      3.553427  
     324A      3.559369   325A      3.564540   326A      3.573261  
     327A      3.582562   328A      3.617313   329A      3.619391  
     330A      3.623574   331A      3.632867   332A      3.685295  
     333A      3.715551   334A      3.778746   335A      3.782884  
     336A      3.798187   337A      3.801815   338A      3.815877  
     339A      3.866700   340A      3.867244   341A      3.867750  
     342A      3.880260   343A      3.931609   344A      3.932545  
     345A      3.960722   346A      4.091687   347A      4.111776  
     348A      4.117741   349A      4.144102   350A      4.148228  
     351A      4.170768   352A      4.180217   353A      4.195929  
     354A      4.231309   355A      4.234886   356A      4.248889  
     357A      4.254592   358A      4.263507   359A      4.329688  
     360A      4.414424   361A      4.417263   362A      4.424999  
     363A      4.450533   364A      4.520784   365A      4.549230  
     366A      4.596106   367A      4.685226   368A      4.803015  
     369A      4.809824   370A      4.825446   371A      4.838723  
     372A      4.856298   373A      4.862091   374A      4.865407  
     375A      4.884234   376A      4.937703   377A      5.026621  
     378A      5.297994   379A      5.411678   380A      5.430311  
     381A      5.435989   382A      5.449534   383A      5.477389  
     384A      5.479651   385A      5.480287   386A      5.491937  
     387A      5.501122   388A      5.539863   389A      5.570542  
     390A      5.573969   391A      5.581470   392A      5.610182  
     393A      5.645932   394A      5.648145   395A      5.652704  
     396A      5.660037   397A      5.667839   398A      5.700443  
     399A      5.714087   400A      5.728424   401A      5.733054  
     402A      5.735604   403A      5.757696   404A      5.769166  
     405A      5.777307   406A      5.836650   407A      5.837962  
     408A      5.855595   409A      5.896686   410A      5.904938  
     411A      5.940041   412A      5.961851   413A      5.963785  
     414A      6.076384   415A      6.082767   416A      6.083768  
     417A      6.120019   418A      6.133969   419A      6.137640  
     420A      6.151331   421A      6.259337   422A      6.322089  
     423A      6.325502   424A      6.329093   425A      6.335483  
     426A      6.346509   427A      6.366272   428A      6.371849  
     429A      6.402863   430A      6.414605   431A      6.419225  
     432A      6.433885   433A      6.465053   434A      6.479696  
     435A      6.491298   436A      6.501416   437A      6.513204  
     438A      6.568064   439A      6.569948   440A      6.584113  
     441A      6.590777   442A      6.593869   443A      6.613962  
     444A      6.616464   445A      6.621250   446A      6.630128  
     447A      6.632450   448A      6.648227   449A      6.671665  
     450A      6.846831   451A      6.866600   452A      6.875859  
     453A      6.978349   454A      7.354043   455A      7.356022  
     456A      7.359263   457A      7.395415   458A      7.406651  
     459A      7.460942   460A      7.488127   461A      7.489640  
     462A      7.500421   463A      7.687159   464A      7.695603  
     465A      7.717112   466A      7.733219   467A      7.740167  
     468A      7.744761   469A      7.760605   470A      7.803555  
     471A      7.847269   472A      7.850461   473A      7.858884  
     474A      7.867999   475A      7.887756   476A      7.932255  
     477A      7.955380   478A      7.968245   479A      8.014949  
     480A      8.016594   481A      8.030394   482A      8.037720  
     483A      8.040761   484A      8.045300   485A      8.066694  
     486A      8.069840   487A      8.082685   488A      8.086254  
     489A      8.091983   490A      8.105459   491A      8.204583  
     492A      8.284682   493A      8.287090   494A      8.292662  
     495A      8.360496   496A      8.409163   497A      8.410432  
     498A      8.412544   499A      8.459698   500A      8.465291  
     501A      8.561639   502A      8.567234   503A      8.609830  
     504A      8.643781   505A      8.649544   506A      8.651884  
     507A      8.735537   508A      8.791431   509A      8.817031  
     510A      8.835061   511A      8.842103   512A      8.856823  
     513A      8.886284   514A      8.994828   515A      9.084220  
     516A      9.165631   517A      9.253382   518A      9.256040  
     519A      9.260389   520A      9.265975   521A      9.267258  
     522A      9.310277   523A      9.317293   524A      9.319308  
     525A      9.355954   526A      9.549633   527A      9.865610  
     528A      9.995103   529A     10.008964   530A     10.024685  
     531A     10.081742   532A     10.452969   533A     10.506956  
     534A     10.708179   535A     10.785373   536A     10.789224  
     537A     10.806579   538A     11.011040   539A     11.047662  
     540A     11.155994   541A     11.297069   542A     11.390600  
     543A     11.455096   544A     11.716690   545A     11.820455  
     546A     11.884901   547A     12.039417   548A     12.188537  
     549A     12.256392   550A     12.556144   551A     12.748812  
     552A     12.888615   553A     12.906204   554A     12.987835  
     555A     13.218566   556A     13.411075   557A     13.412943  
     558A     13.440824   559A     14.006936   560A     14.106932  
     561A     14.498160   562A     14.853084   563A     14.896630  
     564A     15.327677   565A     16.966516   566A     17.287267  
     567A     31.086309   568A     31.089699   569A     31.095437  
     570A     31.103766   571A     31.110678   572A     31.114785  
     573A     31.176202   574A     31.178411   575A     31.300645  
     576A     31.303629   577A     31.304982   578A     31.371663  
     579A     42.164351   580A     43.421250   581A     43.447006  
     582A     43.475617   583A     45.610560   584A     68.460586  
     585A    160.289265   586A    160.431770   587A    160.432678  
     588A    160.438962  

    Final Occupation by Irrep:
              A 
    DOCC [     5 ]

  @DF-RHF Final Energy:   -76.06587816794645

   => Energetics <=

    Nuclear Repulsion Energy =              9.1871407141509867
    One-Electron Energy =                -123.0554206569850209
    Two-Electron Energy =                  37.8024017748875707
    Total Energy =                        -76.0658781679464653

Computation Completed


Properties will be evaluated at   0.000000,  -0.000000,  -0.000000 [a0]

Properties computed using the SCF density matrix

  Nuclear Dipole Moment: [e a0]
     X:   -17.4926      Y:    11.8847      Z:    79.5772

  Electronic Dipole Moment: [e a0]
     X:    17.8236      Y:   -12.4479      Z:   -79.9540

  Dipole Moment: [e a0]
     X:     0.3310      Y:    -0.5632      Z:    -0.3767     Total:     0.7541

  Dipole Moment: [D]
     X:     0.8414      Y:    -1.4315      Z:    -0.9576     Total:     1.9168


*** tstop() called on node37.bme.utexas.edu at Tue Feb 22 19:12:27 2022
Module time:
	user time   =     205.42 seconds =       3.42 minutes
	system time =      41.75 seconds =       0.70 minutes
	total time  =         90 seconds =       1.50 minutes
Total time:
	user time   =     289.57 seconds =       4.83 minutes
	system time =      46.21 seconds =       0.77 minutes
	total time  =        136 seconds =       2.27 minutes

*** tstart() called on node37.bme.utexas.edu
*** at Tue Feb 22 19:12:27 2022


  //>>>>>>>>>>>>>>>>>>>>>>>>>>>>>>>>>>>//
  //               DFMP2               //
  //<<<<<<<<<<<<<<<<<<<<<<<<<<<<<<<<<<<//

   => Loading Basis Set <=

    Name: (AUG-CC-PVQZ AUX)
    Role: RIFIT
    Keyword: DF_BASIS_MP2
    atoms 1-4 entry CL         line   914 file /home/bdw2292/miniconda3/envs/amoebamdpoltype/share/psi4/basis/aug-cc-pvqz-ri.gbs 
    atoms 5   entry C          line   184 file /home/bdw2292/miniconda3/envs/amoebamdpoltype/share/psi4/basis/aug-cc-pvqz-ri.gbs 
    atoms 6   entry O          line   332 file /home/bdw2292/miniconda3/envs/amoebamdpoltype/share/psi4/basis/aug-cc-pvqz-ri.gbs 
    atoms 7-8 entry H          line    30 file /home/bdw2292/miniconda3/envs/amoebamdpoltype/share/psi4/basis/aug-cc-pvqz-ri.gbs 

	 --------------------------------------------------------
	                          DF-MP2                         
	      2nd-Order Density-Fitted Moller-Plesset Theory     
	              RMP2 Wavefunction,   4 Threads             
	                                                         
	        Rob Parrish, Justin Turney, Andy Simmonett,      
	           Ed Hohenstein, and C. David Sherrill          
	 --------------------------------------------------------

   => Auxiliary Basis Set <=

  Basis Set: (AUG-CC-PVQZ AUX)
    Blend: AUG-CC-PVQZ-RI
    Number of shells: 288
    Number of basis function: 1272
    Number of Cartesian functions: 1756
    Spherical Harmonics?: true
    Max angular momentum: 5

	 --------------------------------------------------------
	                 NBF =   588, NAUX =  1272
	 --------------------------------------------------------
	   CLASS    FOCC     OCC    AOCC    AVIR     VIR    FVIR
	   PAIRS       1       5       4     583     583       0
	 --------------------------------------------------------

	-----------------------------------------------------------
	 ==================> DF-MP2 Energies <==================== 
	-----------------------------------------------------------
	 Reference Energy          =     -76.0658781679464511 [Eh]
	 Singles Energy            =      -0.0000000000000000 [Eh]
	 Same-Spin Energy          =      -0.0671603038300901 [Eh]
	 Opposite-Spin Energy      =      -0.2185315252760370 [Eh]
	 Correlation Energy        =      -0.2856918291061271 [Eh]
	 Total Energy              =     -76.3515699970525787 [Eh]
	-----------------------------------------------------------
	 ================> DF-SCS-MP2 Energies <================== 
	-----------------------------------------------------------
	 SCS Same-Spin Scale       =       0.3333333333333333 [-]
	 SCS Opposite-Spin Scale   =       1.2000000000000000 [-]
	 SCS Same-Spin Energy      =      -0.0223867679433634 [Eh]
	 SCS Opposite-Spin Energy  =      -0.2622378303312444 [Eh]
	 SCS Correlation Energy    =      -0.2846245982746077 [Eh]
	 SCS Total Energy          =     -76.3505027662210551 [Eh]
	-----------------------------------------------------------


*** tstop() called on node37.bme.utexas.edu at Tue Feb 22 19:12:52 2022
Module time:
	user time   =      68.66 seconds =       1.14 minutes
	system time =       3.73 seconds =       0.06 minutes
	total time  =         25 seconds =       0.42 minutes
Total time:
	user time   =     358.23 seconds =       5.97 minutes
	system time =      49.94 seconds =       0.83 minutes
	total time  =        161 seconds =       2.68 minutes

  //>>>>>>>>>>>>>>>>>>>>>>>>>>>>>>>>>>>//
  //  CBS Results: mp2/aug-cc-pV[TQ]Z  //
  //<<<<<<<<<<<<<<<<<<<<<<<<<<<<<<<<<<<//


   ==> HF <==

   HI-zeta (4) Energy:               -76.065878167946


   ==> Helgaker 2-point correlated extrapolation for method: MP2 <==

   LO-zeta (3) Energy:               -76.328619188668
   HI-zeta (4) Energy:               -76.351569997053
   Alpha (exponent) Value:             3.000000000000
   Extrapolated Energy:              -76.368317884252

   @Extrapolated MP2/(T,Q):          -76.368317884252



   ==> Helgaker 2-point correlated extrapolation for method: HF <==

   LO-zeta (3) Energy:               -76.060497047607
   HI-zeta (4) Energy:               -76.065878167946
   Alpha (exponent) Value:             3.000000000000
   Extrapolated Energy:              -76.069804931438

   @Extrapolated HF/(T,Q):           -76.069804931438


   ==> Components <==

  ---------------------------------------------------------------------------------------------------------
                          Method / Basis                      Rqd      Energy [Eh]   Variable
  ---------------------------------------------------------------------------------------------------------
                              hf / aug-cc-pvtz                  *     -76.06049705   HF TOTAL ENERGY
                             mp2 / aug-cc-pvtz                  *     -76.32861919   MP2 TOTAL ENERGY
                              hf / aug-cc-pvqz                  *     -76.06587817   HF TOTAL ENERGY
                             mp2 / aug-cc-pvqz                  *     -76.35157000   MP2 TOTAL ENERGY
  ---------------------------------------------------------------------------------------------------------

   ==> Stages <==

  ---------------------------------------------------------------------------------------------------------
      Stage               Method / Basis                       Wt      Energy [Eh]   Scheme
  ---------------------------------------------------------------------------------------------------------
        scf                   hf / aug-cc-pvqz                  1     -76.06587817   xtpl_highest_1
       corl                  mp2 / aug-cc-pv[tq]z               1     -76.36831788   corl_xtpl_helgaker_2
       corl                   hf / aug-cc-pv[tq]z              -1     -76.06980493   corl_xtpl_helgaker_2
  ---------------------------------------------------------------------------------------------------------

   ==> CBS <==

  ---------------------------------------------------------------------------------------------------------
      Stage               Method / Basis                               Energy [Eh]   Scheme
  ---------------------------------------------------------------------------------------------------------
        scf                   hf / aug-cc-pvqz                        -76.06587817   xtpl_highest_1
[...]
     139A      0.728143   140A      0.733759   141A      0.743801  
     142A      0.746709   143A      0.760266   144A      0.773197  
     145A      0.780741   146A      0.789675   147A      0.799881  
     148A      0.804382   149A      0.806239   150A      0.815744  
     151A      0.825374   152A      0.828604   153A      0.856841  
     154A      0.865008   155A      0.869461   156A      0.875929  
     157A      0.881206   158A      0.896154   159A      0.903118  
     160A      0.912100   161A      0.924600   162A      0.929887  
     163A      0.945290   164A      0.968966   165A      0.978749  
     166A      0.989382   167A      1.011498   168A      1.035112  
     169A      1.040528   170A      1.051094   171A      1.065171  
     172A      1.085999   173A      1.089350   174A      1.091762  
     175A      1.102901   176A      1.106172   177A      1.118166  
     178A      1.133979   179A      1.135444   180A      1.150543  
     181A      1.153070   182A      1.165028   183A      1.173356  
     184A      1.175832   185A      1.176678   186A      1.187622  
     187A      1.190514   188A      1.196914   189A      1.202254  
     190A      1.210011   191A      1.221978   192A      1.240726  
     193A      1.245670   194A      1.249363   195A      1.270477  
     196A      1.275797   197A      1.286185   198A      1.289092  
     199A      1.298264   200A      1.306745   201A      1.328295  
     202A      1.331981   203A      1.364207   204A      1.412616  
     205A      1.425232   206A      1.437078   207A      1.444612  
     208A      1.455813   209A      1.456081   210A      1.462729  
     211A      1.510915   212A      1.533224   213A      1.565244  
     214A      1.604291   215A      1.619464   216A      1.637418  
     217A      1.643794   218A      1.651693   219A      1.663573  
     220A      1.675854   221A      1.679388   222A      1.688117  
     223A      1.693550   224A      1.710609   225A      1.720890  
     226A      1.728286   227A      1.742396   228A      1.750056  
     229A      1.762044   230A      1.765599   231A      1.772168  
     232A      1.773866   233A      1.777882   234A      1.782653  
     235A      1.784649   236A      1.795335   237A      1.802432  
     238A      1.803100   239A      1.820835   240A      1.823403  
     241A      1.825535   242A      1.831662   243A      1.845877  
     244A      1.852502   245A      1.857351   246A      1.886304  
     247A      1.888128   248A      1.892823   249A      1.903026  
     250A      1.905515   251A      1.912496   252A      1.927038  
     253A      1.937794   254A      1.944493   255A      1.945721  
     256A      1.968339   257A      1.972045   258A      1.976276  
     259A      1.989304   260A      2.000646   261A      2.003979  
     262A      2.020989   263A      2.024723   264A      2.038425  
     265A      2.044104   266A      2.049321   267A      2.057662  
     268A      2.071284   269A      2.083814   270A      2.092316  
     271A      2.094933   272A      2.101859   273A      2.107183  
     274A      2.109948   275A      2.120494   276A      2.123956  
     277A      2.129401   278A      2.140751   279A      2.156282  
     280A      2.166179   281A      2.188220   282A      2.196001  
     283A      2.204241   284A      2.208783   285A      2.219913  
     286A      2.224144   287A      2.231928   288A      2.238751  
     289A      2.242553   290A      2.246370   291A      2.260930  
     292A      2.265239   293A      2.273149   294A      2.275769  
     295A      2.283973   296A      2.290984   297A      2.306425  
     298A      2.309492   299A      2.316807   300A      2.322542  
     301A      2.333072   302A      2.339291   303A      2.377380  
     304A      2.385281   305A      2.391323   306A      2.410316  
     307A      2.464356   308A      2.469032   309A      2.470816  
     310A      2.480241   311A      2.487594   312A      2.491524  
     313A      2.509701   314A      2.524546   315A      2.527927  
     316A      2.535404   317A      2.535724   318A      2.545559  
     319A      2.551080   320A      2.594564   321A      2.599942  
     322A      2.643621   323A      2.645481   324A      2.648266  
     325A      2.655766   326A      2.659953   327A      2.669770  
     328A      2.704427   329A      2.767638   330A      2.798659  
     331A      2.811886   332A      2.857867   333A      2.863129  
     334A      2.888973   335A      2.897331   336A      2.904942  
     337A      2.912743   338A      2.964347   339A      2.967598  
     340A      2.971935   341A      2.982117   342A      2.984022  
     343A      2.995733   344A      3.042155   345A      3.073858  
     346A      3.108647   347A      3.217265   348A      3.230118  
     349A      3.234498   350A      3.238108   351A      3.239595  
     352A      3.245166   353A      3.250435   354A      3.290684  
     355A      3.339209   356A      3.356404   357A      3.402086  
     358A      3.410429   359A      3.430899   360A      3.433003  
     361A      3.451314   362A      3.455303   363A      3.459244  
     364A      3.516150   365A      3.517265   366A      3.540443  
     367A      3.554975   368A      3.575890   369A      3.588495  
     370A      3.591465   371A      3.599328   372A      3.625968  
     373A      3.685147   374A      3.716930   375A      3.728925  
     376A      3.779275   377A      3.792033   378A      3.953375  
     379A      3.969449   380A      3.975773   381A      3.983009  
     382A      4.095033   383A      4.172785   384A      4.193306  
     385A      4.217224   386A      4.231875   387A      4.243087  
     388A      4.324383   389A      4.356702   390A      4.379017  
     391A      4.434136   392A      4.456593   393A      4.462154  
     394A      4.467148   395A      4.475336   396A      4.479569  
     397A      4.488056   398A      4.492906   399A      4.519507  
     400A      4.537387   401A      4.588498   402A      4.615814  
     403A      4.619179   404A      4.628415   405A      4.675768  
     406A      4.679442   407A      4.685663   408A      4.693609  
     409A      4.700737   410A      4.701612   411A      4.705830  
     412A      4.712869   413A      4.718319   414A      4.735117  
     415A      4.737480   416A      4.745005   417A      4.748671  
     418A      4.758178   419A      4.761694   420A      4.769820  
     421A      4.771029   422A      4.777097   423A      4.780910  
     424A      4.782290   425A      4.785199   426A      4.789123  
     427A      4.793721   428A      4.810015   429A      4.816260  
     430A      4.828905   431A      4.832557   432A      4.842857  
     433A      4.847873   434A      4.851235   435A      4.855804  
     436A      4.858703   437A      4.861179   438A      4.864482  
     439A      4.879370   440A      4.880076   441A      4.884222  
     442A      4.887254   443A      4.902029   444A      4.916928  
     445A      4.932142   446A      4.936573   447A      4.942929  
     448A      4.945673   449A      4.950479   450A      4.957298  
     451A      4.967855   452A      4.973658   453A      4.981010  
     454A      4.986254   455A      5.001231   456A      5.008636  
     457A      5.034704   458A      5.045437   459A      5.047736  
     460A      5.057522   461A      5.068888   462A      5.094200  
     463A      5.100643   464A      5.119026   465A      5.169295  
     466A      5.176843   467A      5.281460   468A      5.290225  
     469A      5.291255   470A      5.311289   471A      5.328799  
     472A      5.361062   473A      5.363816   474A      5.367237  
     475A      5.417919   476A      5.422787   477A      5.425845  
     478A      5.444514   479A      5.450935   480A      5.456910  
     481A      5.544435   482A      5.596268   483A      5.611646  
     484A      5.612554   485A      5.634309   486A      5.805729  
     487A      5.901528   488A      5.906745   489A      6.117352  
     490A      6.275443   491A      6.602768   492A      6.649634  
     493A      6.659822   494A      6.668866   495A      6.682888  
     496A      6.683814   497A      6.685995   498A      6.760085  
     499A      6.762450   500A      6.824299   501A      6.826005  
     502A      6.842876   503A      6.852511   504A      6.864600  
     505A      6.867093   506A      6.873504   507A      6.890940  
     508A      6.899651   509A      6.980429   510A      7.109298  
     511A      7.109842   512A      7.203848   513A      7.204833  
     514A      7.220721   515A      7.280191   516A      7.284513  
     517A      7.302640   518A      7.337594   519A      7.346353  
     520A      7.547993   521A      7.739867   522A      7.742517  
     523A      7.746559   524A      7.755197   525A      7.806672  
     526A      7.822057   527A      7.826549   528A      7.831937  
     529A      7.855056   530A      7.867660   531A      7.892247  
     532A      7.939816   533A      7.973083   534A      8.045807  
     535A      8.207613   536A      8.362643   537A      8.517351  
     538A      8.521170   539A      8.533304   540A      8.562879  
     541A      8.614190   542A      8.716061   543A      8.749780  
     544A      8.795312   545A      8.829091   546A      8.889127  
     547A      8.997602   548A      9.086885   549A      9.168612  
     550A      9.551871   551A      9.868548   552A     10.000749  
     553A     10.011778   554A     10.027911   555A     10.456128  
     556A     10.509723   557A     10.711074   558A     11.013856  
     559A     11.050492   560A     11.158187   561A     11.299768  
     562A     11.393285   563A     11.457894   564A     11.719516  
     565A     11.823171   566A     11.887747   567A     12.042059  
     568A     12.191516   569A     12.258838   570A     12.559199  
     571A     12.751908   572A     12.892099   573A     12.909357  
     574A     13.221678   575A     14.010092   576A     14.109389  
     577A     14.501058   578A     14.856122   579A     14.899612  
     580A     15.330767   581A     16.969469   582A     17.290282  
     583A     24.747434   584A     26.698353   585A     26.717126  
     586A     26.740144   587A     26.849041   588A     45.612208  

    Final Occupation by Irrep:
              A 
    DOCC [    42 ]

  @DF-RHF Final Energy: -1951.99986773084652

   => Energetics <=

    Nuclear Repulsion Energy =            527.8885186524470328
    One-Electron Energy =               -3748.6903781396881641
    Two-Electron Energy =                1268.8019917563945000
    Total Energy =                      -1951.9998677308465176

Computation Completed


Properties will be evaluated at   0.000000,  -0.000000,  -0.000000 [a0]

Properties computed using the SCF density matrix

  Nuclear Dipole Moment: [e a0]
     X:    -1.7823      Y:     0.8434      Z:     9.3341

  Electronic Dipole Moment: [e a0]
     X:     2.1013      Y:    -1.4050      Z:    -9.8099

  Dipole Moment: [e a0]
     X:     0.3190      Y:    -0.5615      Z:    -0.4759     Total:     0.8022

  Dipole Moment: [D]
     X:     0.8108      Y:    -1.4273      Z:    -1.2095     Total:     2.0390


*** tstop() called on node37.bme.utexas.edu at Tue Feb 22 19:19:13 2022
Module time:
	user time   =     273.43 seconds =       4.56 minutes
	system time =      50.74 seconds =       0.85 minutes
	total time  =        116 seconds =       1.93 minutes
Total time:
	user time   =    1310.93 seconds =      21.85 minutes
	system time =     178.15 seconds =       2.97 minutes
	total time  =        542 seconds =       9.03 minutes

*** tstart() called on node37.bme.utexas.edu
*** at Tue Feb 22 19:19:13 2022


  //>>>>>>>>>>>>>>>>>>>>>>>>>>>>>>>>>>>//
  //               DFMP2               //
  //<<<<<<<<<<<<<<<<<<<<<<<<<<<<<<<<<<<//

   => Loading Basis Set <=

    Name: (AUG-CC-PVQZ AUX)
    Role: RIFIT
    Keyword: DF_BASIS_MP2
    atoms 1-4 entry CL         line   914 file /home/bdw2292/miniconda3/envs/amoebamdpoltype/share/psi4/basis/aug-cc-pvqz-ri.gbs 
    atoms 5   entry C          line   184 file /home/bdw2292/miniconda3/envs/amoebamdpoltype/share/psi4/basis/aug-cc-pvqz-ri.gbs 
    atoms 6   entry O          line   332 file /home/bdw2292/miniconda3/envs/amoebamdpoltype/share/psi4/basis/aug-cc-pvqz-ri.gbs 
    atoms 7-8 entry H          line    30 file /home/bdw2292/miniconda3/envs/amoebamdpoltype/share/psi4/basis/aug-cc-pvqz-ri.gbs 

	 --------------------------------------------------------
	                          DF-MP2                         
	      2nd-Order Density-Fitted Moller-Plesset Theory     
	              RMP2 Wavefunction,   4 Threads             
	                                                         
	        Rob Parrish, Justin Turney, Andy Simmonett,      
	           Ed Hohenstein, and C. David Sherrill          
	 --------------------------------------------------------

   => Auxiliary Basis Set <=

  Basis Set: (AUG-CC-PVQZ AUX)
    Blend: AUG-CC-PVQZ-RI
    Number of shells: 288
    Number of basis function: 1272
    Number of Cartesian functions: 1756
    Spherical Harmonics?: true
    Max angular momentum: 5

	 --------------------------------------------------------
	                 NBF =   588, NAUX =  1272
	 --------------------------------------------------------
	   CLASS    FOCC     OCC    AOCC    AVIR     VIR    FVIR
	   PAIRS      22      42      20     546     546       0
	 --------------------------------------------------------

	-----------------------------------------------------------
	 ==================> DF-MP2 Energies <==================== 
	-----------------------------------------------------------
	 Reference Energy          =   -1951.9998677308465176 [Eh]
	 Singles Energy            =      -0.0000000000000000 [Eh]
	 Same-Spin Energy          =      -0.3220702915808775 [Eh]
	 Opposite-Spin Energy      =      -0.9907275182932613 [Eh]
	 Correlation Energy        =      -1.3127978098741389 [Eh]
	 Total Energy              =   -1953.3126655407206727 [Eh]
	-----------------------------------------------------------
	 ================> DF-SCS-MP2 Energies <================== 
	-----------------------------------------------------------
	 SCS Same-Spin Scale       =       0.3333333333333333 [-]
	 SCS Opposite-Spin Scale   =       1.2000000000000000 [-]
	 SCS Same-Spin Energy      =      -0.1073567638602925 [Eh]
	 SCS Opposite-Spin Energy  =      -1.1888730219519135 [Eh]
	 SCS Correlation Energy    =      -1.2962297858122060 [Eh]
	 SCS Total Energy          =   -1953.2960975166586195 [Eh]
	-----------------------------------------------------------


*** tstop() called on node37.bme.utexas.edu at Tue Feb 22 19:19:46 2022
Module time:
	user time   =      86.59 seconds =       1.44 minutes
	system time =       4.89 seconds =       0.08 minutes
	total time  =         33 seconds =       0.55 minutes
Total time:
	user time   =    1397.52 seconds =      23.29 minutes
	system time =     183.04 seconds =       3.05 minutes
	total time  =        575 seconds =       9.58 minutes

  //>>>>>>>>>>>>>>>>>>>>>>>>>>>>>>>>>>>//
  //  CBS Results: mp2/aug-cc-pV[TQ]Z  //
  //<<<<<<<<<<<<<<<<<<<<<<<<<<<<<<<<<<<//


   ==> HF <==

   HI-zeta (4) Energy:               -1951.999867730847


   ==> Helgaker 2-point correlated extrapolation for method: MP2 <==

   LO-zeta (3) Energy:               -1953.197015698589
   HI-zeta (4) Energy:               -1953.312665540721
   Alpha (exponent) Value:             3.000000000000
   Extrapolated Energy:              -1953.397058668763

   @Extrapolated MP2/(T,Q):          -1953.397058668763



   ==> Helgaker 2-point correlated extrapolation for method: HF <==

   LO-zeta (3) Energy:               -1951.977203629658
   HI-zeta (4) Energy:               -1951.999867730847
   Alpha (exponent) Value:             3.000000000000
   Extrapolated Energy:              -1952.016406399281

   @Extrapolated HF/(T,Q):           -1952.016406399281


   ==> Components <==

  ---------------------------------------------------------------------------------------------------------
                          Method / Basis                      Rqd      Energy [Eh]   Variable
  ---------------------------------------------------------------------------------------------------------
                              hf / aug-cc-pvtz                  *   -1951.97720363   HF TOTAL ENERGY
                             mp2 / aug-cc-pvtz                  *   -1953.19701570   MP2 TOTAL ENERGY
                              hf / aug-cc-pvqz                  *   -1951.99986773   HF TOTAL ENERGY
                             mp2 / aug-cc-pvqz                  *   -1953.31266554   MP2 TOTAL ENERGY
  ---------------------------------------------------------------------------------------------------------

   ==> Stages <==

  ---------------------------------------------------------------------------------------------------------
      Stage               Method / Basis                       Wt      Energy [Eh]   Scheme
  ---------------------------------------------------------------------------------------------------------
        scf                   hf / aug-cc-pvqz                  1   -1951.99986773   xtpl_highest_1
       corl                  mp2 / aug-cc-pv[tq]z               1   -1953.39705867   corl_xtpl_helgaker_2
       corl                   hf / aug-cc-pv[tq]z              -1   -1952.01640640   corl_xtpl_helgaker_2
  ---------------------------------------------------------------------------------------------------------

   ==> CBS <==

  ---------------------------------------------------------------------------------------------------------
      Stage               Method / Basis                               Energy [Eh]   Scheme
  ---------------------------------------------------------------------------------------------------------
        scf                   hf / aug-cc-pvqz                      -1951.99986773   xtpl_highest_1
       corl                  mp2 / aug-cc-pv[tq]z                      -1.38065227   corl_xtpl_helgaker_2
      total                  CBS                                    -1953.38052000   
  ---------------------------------------------------------------------------------------------------------
   => Loading Basis Set <=

    Name: DEF2-SVP
    Role: ORBITAL
    Keyword: BASIS
    atoms 1-4 entry CL         line   356 file /home/bdw2292/miniconda3/envs/amoebamdpoltype/share/psi4/basis/def2-svp.gbs 
    atoms 5   entry C          line    90 file /home/bdw2292/miniconda3/envs/amoebamdpoltype/share/psi4/basis/def2-svp.gbs 
    atoms 6   entry O          line   130 file /home/bdw2292/miniconda3/envs/amoebamdpoltype/share/psi4/basis/def2-svp.gbs 
    atoms 7-8 entry H          line    15 file /home/bdw2292/miniconda3/envs/amoebamdpoltype/share/psi4/basis/def2-svp.gbs 


       N-Body: Complex Energy (fragments = (1, 2), basis = (1, 2): -1953.38052000032781)

   ==> N-Body: Counterpoise Corrected (CP) energies <==

   n-Body     Total Energy [Eh]       I.E. [kcal/mol]      Delta [kcal/mol]
        1    -1953.379232017729        0.000000000000        0.000000000000
        2    -1953.380465218033       -0.773844874325       -0.773844874325

   => Loading Basis Set <=

    Name: DEF2-SVP
    Role: ORBITAL
    Keyword: BASIS
    atoms 1-4 entry CL         line   356 file /home/bdw2292/miniconda3/envs/amoebamdpoltype/share/psi4/basis/def2-svp.gbs 
    atoms 5   entry C          line    90 file /home/bdw2292/miniconda3/envs/amoebamdpoltype/share/psi4/basis/def2-svp.gbs 
    atoms 6   entry O          line   130 file /home/bdw2292/miniconda3/envs/amoebamdpoltype/share/psi4/basis/def2-svp.gbs 
    atoms 7-8 entry H          line    15 file /home/bdw2292/miniconda3/envs/amoebamdpoltype/share/psi4/basis/def2-svp.gbs 

CP Energy =  -0.001233
    Psi4 stopped on: Tuesday, 22 February 2022 07:19PM
    Psi4 wall time for execution: 0:09:36.37

*** Psi4 exiting successfully. Buy a developer a beer!
