
    -----------------------------------------------------------------------
          Psi4: An Open-Source Ab Initio Electronic Structure Package
                               Psi4 1.3.2 release

                         Git: Rev {HEAD} ecbda83 


    R. M. Parrish, L. A. Burns, D. G. A. Smith, A. C. Simmonett,
    A. E. DePrince III, E. G. Hohenstein, U. Bozkaya, A. Yu. Sokolov,
    R. Di Remigio, R. M. Richard, J. F. Gonthier, A. M. James,
    H. R. McAlexander, A. Kumar, M. Saitow, X. Wang, B. P. Pritchard,
    P. Verma, H. F. Schaefer III, K. Patkowski, R. A. King, E. F. Valeev,
    F. A. Evangelista, J. M. Turney, T. D. Crawford, and C. D. Sherrill,
    J. Chem. Theory Comput. 13(7) pp 3185--3197 (2017).
    (doi: 10.1021/acs.jctc.7b00174)


                         Additional Contributions by
    P. Kraus, H. Kruse, M. H. Lechner, M. C. Schieber, R. A. Shaw,
    A. Alenaizan, R. Galvelis, Z. L. Glick, S. Lehtola, and J. P. Misiewicz

    -----------------------------------------------------------------------


    Psi4 started on: Tuesday, 22 February 2022 07:09PM

    Process ID: 37850
    Host:       node37.bme.utexas.edu
    PSIDATADIR: /home/bdw2292/miniconda3/envs/amoebamdpoltype/share/psi4
    Memory:     500.0 MiB
    Threads:    1
    
  ==> Input File <==

--------------------------------------------------------------------------
molecule { 
0 1
 Cl                 -1.3216509    -1.2809349     0.3222521
 Cl                 -0.8136453     1.3984708    -0.6254683
 Cl                  0.5982673    -0.8387328    -1.7959308
 Cl                  1.1940644     0.0026420     0.9073311
  C                 -0.0850511    -0.1807108    -0.3019604
--
0 1
  O                 -1.1803466     0.5316611     4.1072867
  H                 -1.2398496    -0.3985863     4.3240083
  H                 -0.6286988     0.6245912     3.3305193
}
memory 15GB
set_num_threads(4)
psi4_io.set_default_path("/scratch/bdw2292/Psi4-CCl4")
set maxiter 500
set freeze_core True
set PROPERTIES_ORIGIN ["COM"]
e_dim= energy('mp2/aug-cc-pV[TQ]Z',bsse_type='cp')

psi4.print_out('CP Energy = %10.6f' % (e_dim))
clean()
--------------------------------------------------------------------------

  Memory set to  13.970 GiB by Python driver.
  Threads set to 4 by Python driver.


   ===> N-Body Interaction Abacus <===
        BSSE Treatment:                     cp
        Number of 1-body computations:     4
        Number of 2-body computations:     1

   ==> N-Body: Now computing 1-body complexes <==


       N-Body: Computing complex (1/4) with fragments (2,) in the basis of fragments (2,).


  //>>>>>>>>>>>>>>>>>>>>>>>>>>>>>>>>>>>//
  //   CBS Setup: mp2/aug-cc-pV[TQ]Z   //
  //<<<<<<<<<<<<<<<<<<<<<<<<<<<<<<<<<<<//

    Naive listing of computations required.
             hf / aug-cc-pvqz              for  HF TOTAL ENERGY
            mp2 / aug-cc-pvtz              for  MP2 TOTAL ENERGY
            mp2 / aug-cc-pvqz              for  MP2 TOTAL ENERGY
             hf / aug-cc-pvtz              for  HF TOTAL ENERGY
             hf / aug-cc-pvqz              for  HF TOTAL ENERGY

    Enlightened listing of computations required.
            mp2 / aug-cc-pvtz              for  MP2 TOTAL ENERGY
            mp2 / aug-cc-pvqz              for  MP2 TOTAL ENERGY

    Full listing of computations to be obtained (required and bonus).
             hf / aug-cc-pvtz              for  HF TOTAL ENERGY
            mp2 / aug-cc-pvtz              for  MP2 TOTAL ENERGY
             hf / aug-cc-pvqz              for  HF TOTAL ENERGY
            mp2 / aug-cc-pvqz              for  MP2 TOTAL ENERGY

  //>>>>>>>>>>>>>>>>>>>>>>>>>>>>>>>>>>>>//
  // CBS Computation: MP2 / AUG-CC-PVTZ //
  //<<<<<<<<<<<<<<<<<<<<<<<<<<<<<<<<<<<<//

    SCF Algorithm Type (re)set to DF.

*** tstart() called on node37.bme.utexas.edu
*** at Tue Feb 22 19:09:48 2022

   => Loading Basis Set <=

    Name: AUG-CC-PVTZ
    Role: ORBITAL
    Keyword: BASIS
    atoms 1   entry O          line   327 file /home/bdw2292/miniconda3/envs/amoebamdpoltype/share/psi4/basis/aug-cc-pvtz.gbs 
    atoms 2-3 entry H          line    36 file /home/bdw2292/miniconda3/envs/amoebamdpoltype/share/psi4/basis/aug-cc-pvtz.gbs 


         ---------------------------------------------------------
                                   SCF
               by Justin Turney, Rob Parrish, Andy Simmonett
                          and Daniel G. A. Smith
                              RHF Reference
                        4 Threads,  14305 MiB Core
         ---------------------------------------------------------

  ==> Geometry <==

    Molecular point group: c1
    Full point group: C1

    Geometry (in Angstrom), charge = 0, multiplicity = 1:

       Center              X                  Y                   Z               Mass       
    ------------   -----------------  -----------------  -----------------  -----------------
         O           -0.981528533154     0.640933938446     3.941821804440    15.994914619570
         H           -1.041031533154    -0.289313461554     4.158543404440     1.007825032230
         H           -0.429880733154     0.733864038446     3.165054404440     1.007825032230

  Running in c1 symmetry.

  Rotational constants: A =     16.02370  B =      0.05638  C =      0.05622 [cm^-1]
  Rotational constants: A = 480378.30076  B =   1690.27138  C =   1685.53630 [MHz]
  Nuclear repulsion =    9.187140773497795

  Charge       = 0
  Multiplicity = 1
  Electrons    = 10
  Nalpha       = 5
  Nbeta        = 5

  ==> Algorithm <==

  SCF Algorithm Type is DF.
  DIIS enabled.
  MOM disabled.
  Fractional occupation disabled.
  Guess Type is SAD.
  Energy threshold   = 1.00e-08
  Density threshold  = 1.00e-08
  Integral threshold = 0.00e+00

  ==> Primary Basis <==

  Basis Set: AUG-CC-PVTZ
    Blend: AUG-CC-PVTZ
    Number of shells: 32
    Number of basis function: 92
    Number of Cartesian functions: 105
    Spherical Harmonics?: true
    Max angular momentum: 3

   => Loading Basis Set <=

    Name: (AUG-CC-PVTZ AUX)
    Role: JKFIT
    Keyword: DF_BASIS_SCF
    atoms 1   entry O          line   286 file /home/bdw2292/miniconda3/envs/amoebamdpoltype/share/psi4/basis/aug-cc-pvtz-jkfit.gbs 
    atoms 2-3 entry H          line    70 file /home/bdw2292/miniconda3/envs/amoebamdpoltype/share/psi4/basis/aug-cc-pvtz-jkfit.gbs 

  ==> Pre-Iterations <==

   -------------------------------------------------------
    Irrep   Nso     Nmo     Nalpha   Nbeta   Ndocc  Nsocc
   -------------------------------------------------------
     A         92      92       0       0       0       0
   -------------------------------------------------------
    Total      92      92       5       5       5       0
   -------------------------------------------------------

  ==> Integral Setup <==

  DFHelper Memory: AOs need 0.015 GiB; user supplied 10.477 GiB. Using in-core AOs.

  ==> MemDFJK: Density-Fitted J/K Matrices <==

    J tasked:                   Yes
    K tasked:                   Yes
    wK tasked:                   No
    OpenMP threads:               4
    Memory [MiB]:             10728
    Algorithm:                 Core
    Schwarz Cutoff:           1E-12
    Mask sparsity (%):       0.0000
    Fitting Condition:        1E-10

   => Auxiliary Basis Set <=

  Basis Set: (AUG-CC-PVTZ AUX)
    Blend: AUG-CC-PVTZ-JKFIT
    Number of shells: 58
    Number of basis function: 196
    Number of Cartesian functions: 241
    Spherical Harmonics?: true
    Max angular momentum: 4

  Minimum eigenvalue in the overlap matrix is 3.7720845783E-04.
  Using Symmetric Orthogonalization.

  SCF Guess: Superposition of Atomic Densities via on-the-fly atomic UHF.

  ==> Iterations <==

                           Total Energy        Delta E     RMS |[F,P]|

   @DF-RHF iter SAD:   -75.47446192965072   -7.54745e+01   0.00000e+00 
   @DF-RHF iter   1:   -75.97662875153672   -5.02167e-01   5.09444e-03 DIIS
   @DF-RHF iter   2:   -76.02906115414106   -5.24324e-02   3.45112e-03 DIIS
   @DF-RHF iter   3:   -76.06006503307366   -3.10039e-02   2.34356e-04 DIIS
   @DF-RHF iter   4:   -76.06045411996379   -3.89087e-04   5.59042e-05 DIIS
   @DF-RHF iter   5:   -76.06047798623285   -2.38663e-05   1.25797e-05 DIIS
   @DF-RHF iter   6:   -76.06047993342435   -1.94719e-06   2.79844e-06 DIIS
   @DF-RHF iter   7:   -76.06048004065185   -1.07228e-07   5.28687e-07 DIIS
   @DF-RHF iter   8:   -76.06048004404821   -3.39635e-09   8.76785e-08 DIIS
   @DF-RHF iter   9:   -76.06048004412165   -7.34417e-11   2.17705e-08 DIIS
   @DF-RHF iter  10:   -76.06048004412582   -4.17799e-12   2.97242e-09 DIIS
  Energy and wave function converged.


  ==> Post-Iterations <==

    Orbital Energies [Eh]
    ---------------------

    Doubly Occupied:                                                      

       1A    -20.565480     2A     -1.350983     3A     -0.725083  
       4A     -0.577593     5A     -0.509245  

    Virtual:                                                              

       6A      0.029669     7A      0.047452     8A      0.136469  
       9A      0.157862    10A      0.174309    11A      0.182060  
      12A      0.228843    13A      0.244492    14A      0.263889  
      15A      0.304628    16A      0.313159    17A      0.365255  
      18A      0.438047    19A      0.466863    20A      0.602190  
      21A      0.654421    22A      0.711085    23A      0.719367  
      24A      0.731261    25A      0.828221    26A      0.843856  
      27A      0.889962    28A      0.912996    29A      0.920751  
      30A      0.923718    31A      0.928025    32A      0.971103  
      33A      1.023144    34A      1.045443    35A      1.085158  
      36A      1.114074    37A      1.172956    38A      1.177633  
      39A      1.259447    40A      1.514493    41A      1.562840  
      42A      1.595914    43A      1.786341    44A      1.797141  
      45A      2.003609    46A      2.116347    47A      2.259807  
      48A      2.318691    49A      2.321036    50A      2.413658  
      51A      2.414808    52A      2.438636    53A      2.471592  
      54A      2.686282    55A      2.702925    56A      2.768564  
      57A      2.856344    58A      2.884157    59A      3.646245  
      60A      3.769989    61A      4.007855    62A      4.090633  
      63A      4.211334    64A      4.232325    65A      4.335219  
      66A      4.381996    67A      4.401376    68A      4.415177  
      69A      4.494275    70A      4.708764    71A      4.814778  
      72A      5.125998    73A      5.173446    74A      5.305867  
      75A      5.332315    76A      5.515105    77A      5.721193  
      78A      6.141741    79A      6.533900    80A      6.713607  
      81A      6.860586    82A      7.146449    83A      7.263210  
      84A      7.299681    85A      7.309192    86A      7.371085  
      87A      7.387460    88A      7.559655    89A      7.899899  
      90A      7.963860    91A      8.792144    92A     15.871915  

    Final Occupation by Irrep:
              A 
    DOCC [     5 ]

  @DF-RHF Final Energy:   -76.06048004412582

   => Energetics <=

    Nuclear Repulsion Energy =              9.1871407734977950
    One-Electron Energy =                -123.0384728513666488
    Two-Electron Energy =                  37.7908520337430218
    Total Energy =                        -76.0604800441258249

Computation Completed


Properties will be evaluated at  -1.802779,   1.122648,   7.389742 [a0]

Properties computed using the SCF density matrix

  Nuclear Dipole Moment: [e a0]
     X:     0.4096      Y:    -0.6969      Z:    -0.4661

  Electronic Dipole Moment: [e a0]
     X:    -0.0782      Y:     0.1330      Z:     0.0890

  Dipole Moment: [e a0]
     X:     0.3314      Y:    -0.5639      Z:    -0.3771     Total:     0.7550

  Dipole Moment: [D]
     X:     0.8423      Y:    -1.4332      Z:    -0.9585     Total:     1.9190


*** tstop() called on node37.bme.utexas.edu at Tue Feb 22 19:09:51 2022
Module time:
	user time   =       4.98 seconds =       0.08 minutes
	system time =       0.38 seconds =       0.01 minutes
	total time  =          3 seconds =       0.05 minutes
Total time:
	user time   =       4.98 seconds =       0.08 minutes
	system time =       0.38 seconds =       0.01 minutes
	total time  =          3 seconds =       0.05 minutes

*** tstart() called on node37.bme.utexas.edu
*** at Tue Feb 22 19:09:51 2022


  //>>>>>>>>>>>>>>>>>>>>>>>>>>>>>>>>>>>//
  //               DFMP2               //
  //<<<<<<<<<<<<<<<<<<<<<<<<<<<<<<<<<<<//

   => Loading Basis Set <=

    Name: (AUG-CC-PVTZ AUX)
    Role: RIFIT
    Keyword: DF_BASIS_MP2
    atoms 1   entry O          line   264 file /home/bdw2292/miniconda3/envs/amoebamdpoltype/share/psi4/basis/aug-cc-pvtz-ri.gbs 
    atoms 2-3 entry H          line    30 file /home/bdw2292/miniconda3/envs/amoebamdpoltype/share/psi4/basis/aug-cc-pvtz-ri.gbs 

	 --------------------------------------------------------
	                          DF-MP2                         
	      2nd-Order Density-Fitted Moller-Plesset Theory     
	              RMP2 Wavefunction,   4 Threads             
	                                                         
	        Rob Parrish, Justin Turney, Andy Simmonett,      
	           Ed Hohenstein, and C. David Sherrill          
	 --------------------------------------------------------

   => Auxiliary Basis Set <=

  Basis Set: (AUG-CC-PVTZ AUX)
    Blend: AUG-CC-PVTZ-RI
    Number of shells: 56
    Number of basis function: 198
    Number of Cartesian functions: 246
    Spherical Harmonics?: true
    Max angular momentum: 4

	 --------------------------------------------------------
	                 NBF =    92, NAUX =   198
	 --------------------------------------------------------
	   CLASS    FOCC     OCC    AOCC    AVIR     VIR    FVIR
	   PAIRS       1       5       4      87      87       0
	 --------------------------------------------------------

	-----------------------------------------------------------
	 ==================> DF-MP2 Energies <==================== 
	-----------------------------------------------------------
	 Reference Energy          =     -76.0604800441258249 [Eh]
	 Singles Energy            =      -0.0000000000000000 [Eh]
	 Same-Spin Energy          =      -0.0650883042115171 [Eh]
	 Opposite-Spin Energy      =      -0.2029563665135739 [Eh]
	 Correlation Energy        =      -0.2680446707250910 [Eh]
	 Total Energy              =     -76.3285247148509143 [Eh]
	-----------------------------------------------------------
	 ================> DF-SCS-MP2 Energies <================== 
	-----------------------------------------------------------
	 SCS Same-Spin Scale       =       0.3333333333333333 [-]
	 SCS Opposite-Spin Scale   =       1.2000000000000000 [-]
	 SCS Same-Spin Energy      =      -0.0216961014038390 [Eh]
	 SCS Opposite-Spin Energy  =      -0.2435476398162887 [Eh]
	 SCS Correlation Energy    =      -0.2652437412201277 [Eh]
	 SCS Total Energy          =     -76.3257237853459571 [Eh]
	-----------------------------------------------------------


*** tstop() called on node37.bme.utexas.edu at Tue Feb 22 19:09:51 2022
Module time:
	user time   =       1.62 seconds =       0.03 minutes
	system time =       0.12 seconds =       0.00 minutes
	total time  =          0 seconds =       0.00 minutes
Total time:
	user time   =       6.60 seconds =       0.11 minutes
	system time =       0.50 seconds =       0.01 minutes
	total time  =          3 seconds =       0.05 minutes

  //>>>>>>>>>>>>>>>>>>>>>>>>>>>>>>>>>>>>//
  // CBS Computation: MP2 / AUG-CC-PVQZ //
  //<<<<<<<<<<<<<<<<<<<<<<<<<<<<<<<<<<<<//

    SCF Algorithm Type (re)set to DF.

*** tstart() called on node37.bme.utexas.edu
*** at Tue Feb 22 19:09:51 2022

   => Loading Basis Set <=

    Name: AUG-CC-PVQZ
    Role: ORBITAL
    Keyword: BASIS
    atoms 1   entry O          line   419 file /home/bdw2292/miniconda3/envs/amoebamdpoltype/share/psi4/basis/aug-cc-pvqz.gbs 
    atoms 2-3 entry H          line    36 file /home/bdw2292/miniconda3/envs/amoebamdpoltype/share/psi4/basis/aug-cc-pvqz.gbs 


         ---------------------------------------------------------
                                   SCF
               by Justin Turney, Rob Parrish, Andy Simmonett
                          and Daniel G. A. Smith
                              RHF Reference
                        4 Threads,  14305 MiB Core
         ---------------------------------------------------------

  ==> Geometry <==

    Molecular point group: c1
    Full point group: C1

    Geometry (in Angstrom), charge = 0, multiplicity = 1:

       Center              X                  Y                   Z               Mass       
    ------------   -----------------  -----------------  -----------------  -----------------
         O           -0.981528533154     0.640933938446     3.941821804440    15.994914619570
         H           -1.041031533154    -0.289313461554     4.158543404440     1.007825032230
         H           -0.429880733154     0.733864038446     3.165054404440     1.007825032230

  Running in c1 symmetry.

  Rotational constants: A =     16.02370  B =      0.05638  C =      0.05622 [cm^-1]
  Rotational constants: A = 480378.30076  B =   1690.27138  C =   1685.53630 [MHz]
  Nuclear repulsion =    9.187140773497795

  Charge       = 0
  Multiplicity = 1
  Electrons    = 10
  Nalpha       = 5
  Nbeta        = 5

  ==> Algorithm <==

  SCF Algorithm Type is DF.
  DIIS enabled.
  MOM disabled.
  Fractional occupation disabled.
  Guess Type is SAD.
  Energy threshold   = 1.00e-08
  Density threshold  = 1.00e-08
  Integral threshold = 0.00e+00

  ==> Primary Basis <==

  Basis Set: AUG-CC-PVQZ
    Blend: AUG-CC-PVQZ
    Number of shells: 48
    Number of basis function: 172
    Number of Cartesian functions: 215
    Spherical Harmonics?: true
    Max angular momentum: 4

   => Loading Basis Set <=

    Name: (AUG-CC-PVQZ AUX)
    Role: JKFIT
    Keyword: DF_BASIS_SCF
    atoms 1   entry O          line   318 file /home/bdw2292/miniconda3/envs/amoebamdpoltype/share/psi4/basis/aug-cc-pvqz-jkfit.gbs 
    atoms 2-3 entry H          line    70 file /home/bdw2292/miniconda3/envs/amoebamdpoltype/share/psi4/basis/aug-cc-pvqz-jkfit.gbs 

  ==> Pre-Iterations <==

   -------------------------------------------------------
    Irrep   Nso     Nmo     Nalpha   Nbeta   Ndocc  Nsocc
   -------------------------------------------------------
     A        172     172       0       0       0       0
   -------------------------------------------------------
    Total     172     172       5       5       5       0
   -------------------------------------------------------

  ==> Integral Setup <==

  DFHelper Memory: AOs need 0.074 GiB; user supplied 10.477 GiB. Using in-core AOs.

  ==> MemDFJK: Density-Fitted J/K Matrices <==

    J tasked:                   Yes
    K tasked:                   Yes
    wK tasked:                   No
    OpenMP threads:               4
    Memory [MiB]:             10728
    Algorithm:                 Core
    Schwarz Cutoff:           1E-12
    Mask sparsity (%):       0.0000
    Fitting Condition:        1E-10

   => Auxiliary Basis Set <=

  Basis Set: (AUG-CC-PVQZ AUX)
    Blend: AUG-CC-PVQZ-JKFIT
    Number of shells: 70
    Number of basis function: 294
    Number of Cartesian functions: 400
    Spherical Harmonics?: true
    Max angular momentum: 5

  Minimum eigenvalue in the overlap matrix is 8.5307508900E-05.
  Using Symmetric Orthogonalization.

  SCF Guess: Superposition of Atomic Densities via on-the-fly atomic UHF.

  ==> Iterations <==

                           Total Energy        Delta E     RMS |[F,P]|

   @DF-RHF iter SAD:   -75.47961871195788   -7.54796e+01   0.00000e+00 
   @DF-RHF iter   1:   -75.98171257202560   -5.02094e-01   2.73070e-03 DIIS
   @DF-RHF iter   2:   -76.03424946102329   -5.25369e-02   1.85419e-03 DIIS
   @DF-RHF iter   3:   -76.06545139113197   -3.12019e-02   1.26266e-04 DIIS
   @DF-RHF iter   4:   -76.06584253263735   -3.91142e-04   3.08188e-05 DIIS
   @DF-RHF iter   5:   -76.06586729460179   -2.47620e-05   6.90944e-06 DIIS
   @DF-RHF iter   6:   -76.06586932373770   -2.02914e-06   1.57824e-06 DIIS
   @DF-RHF iter   7:   -76.06586944215690   -1.18419e-07   3.07734e-07 DIIS
   @DF-RHF iter   8:   -76.06586944615940   -4.00250e-09   4.92315e-08 DIIS
   @DF-RHF iter   9:   -76.06586944624252   -8.31193e-11   1.19100e-08 DIIS
   @DF-RHF iter  10:   -76.06586944624674   -4.22062e-12   1.65734e-09 DIIS
  Energy and wave function converged.


  ==> Post-Iterations <==

    Orbital Energies [Eh]
    ---------------------

    Doubly Occupied:                                                      

       1A    -20.563025     2A     -1.350258     3A     -0.725049  
       4A     -0.577646     5A     -0.509374  

    Virtual:                                                              

       6A      0.027148     7A      0.042882     8A      0.114688  
       9A      0.132613    10A      0.150379    11A      0.157883  
      12A      0.185976    13A      0.197127    14A      0.208301  
      15A      0.241252    16A      0.258891    17A      0.290469  
      18A      0.358173    19A      0.390665    20A      0.471786  
      21A      0.506779    22A      0.542998    23A      0.545770  
      24A      0.554176    25A      0.613341    26A      0.634158  
      27A      0.649554    28A      0.662648    29A      0.665776  
      30A      0.690150    31A      0.705207    32A      0.715054  
      33A      0.769609    34A      0.787841    35A      0.803431  
      36A      0.809958    37A      0.846594    38A      0.855320  
      39A      0.967397    40A      1.134306    41A      1.140478  
      42A      1.216762    43A      1.329195    44A      1.418837  
      45A      1.480667    46A      1.506204    47A      1.521715  
      48A      1.525052    49A      1.555840    50A      1.595269  
      51A      1.618263    52A      1.636875    53A      1.659626  
      54A      1.672311    55A      1.685941    56A      1.702533  
      57A      1.720144    58A      1.763152    59A      1.781162  
      60A      1.793580    61A      1.828907    62A      1.862869  
      63A      1.882185    64A      1.900964    65A      1.954650  
      66A      2.013762    67A      2.021866    68A      2.029518  
      69A      2.098824    70A      2.218554    71A      2.225678  
      72A      2.307422    73A      2.491388    74A      2.642472  
      75A      2.643741    76A      2.891317    77A      2.962915  
      78A      3.010174    79A      3.024318    80A      3.061759  
      81A      3.088679    82A      3.254558    83A      3.283877  
      84A      3.310324    85A      3.529326    86A      3.591026  
      87A      3.658140    88A      3.682338    89A      3.741225  
      90A      3.742156    91A      3.920800    92A      4.066711  
      93A      4.159502    94A      4.170243    95A      4.174768  
      96A      4.181063    97A      4.250310    98A      4.344073  
      99A      4.419181   100A      4.566979   101A      4.665850  
     102A      4.760970   103A      4.803130   104A      4.806975  
     105A      4.838802   106A      4.876067   107A      4.998867  
     108A      5.275547   109A      5.315917   110A      5.514078  
     111A      5.548485   112A      5.879463   113A      5.883429  
     114A      6.080824   115A      6.232025   116A      6.837469  
     117A      6.859268   118A      6.862730   119A      6.955711  
     120A      7.715520   121A      7.780100   122A      7.828800  
     123A      7.846769   124A      7.877826   125A      7.919770  
     126A      7.946230   127A      8.007624   128A      8.199738  
     129A      8.336411   130A      8.537635   131A      8.592348  
     132A      8.703739   133A      8.757568   134A      8.800909  
     135A      8.875875   136A      8.981670   137A      9.063757  
     138A      9.145576   139A      9.533676   140A      9.844743  
     141A      9.964010   142A      9.966412   143A     10.014538  
     144A     10.439993   145A     10.480288   146A     10.651972  
     147A     10.993982   148A     11.039743   149A     11.077056  
     150A     11.260036   151A     11.368468   152A     11.439043  
     153A     11.698572   154A     11.797250   155A     11.834435  
     156A     12.013065   157A     12.176403   158A     12.226806  
     159A     12.535616   160A     12.738760   161A     12.877357  
     162A     12.897237   163A     13.210698   164A     14.003925  
     165A     14.040821   166A     14.492261   167A     14.849613  
     168A     14.880439   169A     15.305458   170A     16.929537  
     171A     17.270965   172A     45.497542  

    Final Occupation by Irrep:
              A 
    DOCC [     5 ]

  @DF-RHF Final Energy:   -76.06586944624674

   => Energetics <=

    Nuclear Repulsion Energy =              9.1871407734977950
    One-Electron Energy =                -123.0553182343664531
    Two-Electron Energy =                  37.8023080146219144
    Total Energy =                        -76.0658694462467366

Computation Completed


Properties will be evaluated at  -1.802779,   1.122648,   7.389742 [a0]

Properties computed using the SCF density matrix

  Nuclear Dipole Moment: [e a0]
     X:     0.4096      Y:    -0.6969      Z:    -0.4661

  Electronic Dipole Moment: [e a0]
     X:    -0.0786      Y:     0.1336      Z:     0.0894

  Dipole Moment: [e a0]
     X:     0.3310      Y:    -0.5632      Z:    -0.3767     Total:     0.7541

  Dipole Moment: [D]
     X:     0.8414      Y:    -1.4316      Z:    -0.9575     Total:     1.9168


*** tstop() called on node37.bme.utexas.edu at Tue Feb 22 19:09:56 2022
Module time:
	user time   =       9.99 seconds =       0.17 minutes
	system time =       0.77 seconds =       0.01 minutes
	total time  =          5 seconds =       0.08 minutes
Total time:
	user time   =      16.63 seconds =       0.28 minutes
	system time =       1.27 seconds =       0.02 minutes
	total time  =          8 seconds =       0.13 minutes

*** tstart() called on node37.bme.utexas.edu
*** at Tue Feb 22 19:09:56 2022


  //>>>>>>>>>>>>>>>>>>>>>>>>>>>>>>>>>>>//
  //               DFMP2               //
  //<<<<<<<<<<<<<<<<<<<<<<<<<<<<<<<<<<<//

   => Loading Basis Set <=

    Name: (AUG-CC-PVQZ AUX)
    Role: RIFIT
    Keyword: DF_BASIS_MP2
    atoms 1   entry O          line   332 file /home/bdw2292/miniconda3/envs/amoebamdpoltype/share/psi4/basis/aug-cc-pvqz-ri.gbs 
    atoms 2-3 entry H          line    30 file /home/bdw2292/miniconda3/envs/amoebamdpoltype/share/psi4/basis/aug-cc-pvqz-ri.gbs 

	 --------------------------------------------------------
	                          DF-MP2                         
	      2nd-Order Density-Fitted Moller-Plesset Theory     
	              RMP2 Wavefunction,   4 Threads             
	                                                         
	        Rob Parrish, Justin Turney, Andy Simmonett,      
	           Ed Hohenstein, and C. David Sherrill          
	 --------------------------------------------------------

   => Auxiliary Basis Set <=

  Basis Set: (AUG-CC-PVQZ AUX)
    Blend: AUG-CC-PVQZ-RI
    Number of shells: 76
    Number of basis function: 328
    Number of Cartesian functions: 447
    Spherical Harmonics?: true
    Max angular momentum: 5

	 --------------------------------------------------------
	                 NBF =   172, NAUX =   328
	 --------------------------------------------------------
	   CLASS    FOCC     OCC    AOCC    AVIR     VIR    FVIR
	   PAIRS       1       5       4     167     167       0
	 --------------------------------------------------------

	-----------------------------------------------------------
	 ==================> DF-MP2 Energies <==================== 
	-----------------------------------------------------------
	 Reference Energy          =     -76.0658694462467366 [Eh]
	 Singles Energy            =      -0.0000000000000000 [Eh]
	 Same-Spin Energy          =      -0.0671579838342507 [Eh]
	 Opposite-Spin Energy      =      -0.2184969793948886 [Eh]
	 Correlation Energy        =      -0.2856549632291393 [Eh]
	 Total Energy              =     -76.3515244094758714 [Eh]
	-----------------------------------------------------------
	 ================> DF-SCS-MP2 Energies <================== 
	-----------------------------------------------------------
	 SCS Same-Spin Scale       =       0.3333333333333333 [-]
	 SCS Opposite-Spin Scale   =       1.2000000000000000 [-]
	 SCS Same-Spin Energy      =      -0.0223859946114169 [Eh]
	 SCS Opposite-Spin Energy  =      -0.2621963752738663 [Eh]
	 SCS Correlation Energy    =      -0.2845823698852832 [Eh]
	 SCS Total Energy          =     -76.3504518161320220 [Eh]
	-----------------------------------------------------------


*** tstop() called on node37.bme.utexas.edu at Tue Feb 22 19:09:57 2022
Module time:
	user time   =       3.18 seconds =       0.05 minutes
	system time =       0.26 seconds =       0.00 minutes
	total time  =          1 seconds =       0.02 minutes
Total time:
	user time   =      19.81 seconds =       0.33 minutes
	system time =       1.53 seconds =       0.03 minutes
	total time  =          9 seconds =       0.15 minutes

  //>>>>>>>>>>>>>>>>>>>>>>>>>>>>>>>>>>>//
  //  CBS Results: mp2/aug-cc-pV[TQ]Z  //
  //<<<<<<<<<<<<<<<<<<<<<<<<<<<<<<<<<<<//


   ==> HF <==

   HI-zeta (4) Energy:               -76.065869446247


   ==> Helgaker 2-point correlated extrapolation for method: MP2 <==

   LO-zeta (3) Energy:               -76.328524714851
   HI-zeta (4) Energy:               -76.351524409476
   Alpha (exponent) Value:             3.000000000000
   Extrapolated Energy:              -76.368307970418

   @Extrapolated MP2/(T,Q):          -76.368307970418



   ==> Helgaker 2-point correlated extrapolation for method: HF <==

   LO-zeta (3) Energy:               -76.060480044126
   HI-zeta (4) Energy:               -76.065869446247
   Alpha (exponent) Value:             3.000000000000
   Extrapolated Energy:              -76.069802253200

   @Extrapolated HF/(T,Q):           -76.069802253200


   ==> Components <==

  ---------------------------------------------------------------------------------------------------------
                          Method / Basis                      Rqd      Energy [Eh]   Variable
  ---------------------------------------------------------------------------------------------------------
                              hf / aug-cc-pvtz                  *     -76.06048004   HF TOTAL ENERGY
                             mp2 / aug-cc-pvtz                  *     -76.32852471   MP2 TOTAL ENERGY
                              hf / aug-cc-pvqz                  *     -76.06586945   HF TOTAL ENERGY
                             mp2 / aug-cc-pvqz                  *     -76.35152441   MP2 TOTAL ENERGY
  ---------------------------------------------------------------------------------------------------------

   ==> Stages <==

  ---------------------------------------------------------------------------------------------------------
      Stage               Method / Basis                       Wt      Energy [Eh]   Scheme
  ---------------------------------------------------------------------------------------------------------
        scf                   hf / aug-cc-pvqz                  1     -76.06586945   xtpl_highest_1
       corl                  mp2 / aug-cc-pv[tq]z               1     -76.36830797   corl_xtpl_helgaker_2
       corl                   hf / aug-cc-pv[tq]z              -1     -76.06980225   corl_xtpl_helgaker_2
  ---------------------------------------------------------------------------------------------------------

   ==> CBS <==

  ---------------------------------------------------------------------------------------------------------
      Stage               Method / Basis                               Energy [Eh]   Scheme
  ---------------------------------------------------------------------------------------------------------
        scf                   hf / aug-cc-pvqz                        -76.06586945   xtpl_highest_1
       corl                  mp2 / aug-cc-pv[tq]z                      -0.29850572   corl_xtpl_helgaker_2
      total                  CBS                                      -76.36437516   
  ---------------------------------------------------------------------------------------------------------
   => Loading Basis Set <=

    Name: DEF2-SVP
    Role: ORBITAL
    Keyword: BASIS
    atoms 1   entry O          line   130 file /home/bdw2292/miniconda3/envs/amoebamdpoltype/share/psi4/basis/def2-svp.gbs 
    atoms 2-3 entry H          line    15 file /home/bdw2292/miniconda3/envs/amoebamdpoltype/share/psi4/basis/def2-svp.gbs 


       N-Body: Complex Energy (fragments = (2,), basis = (2,):   -76.36437516346530)

       N-Body: Computing complex (2/4) with fragments (2,) in the basis of fragments (1, 2).


  //>>>>>>>>>>>>>>>>>>>>>>>>>>>>>>>>>>>//
  //   CBS Setup: mp2/aug-cc-pV[TQ]Z   //
  //<<<<<<<<<<<<<<<<<<<<<<<<<<<<<<<<<<<//

    Naive listing of computations required.
             hf / aug-cc-pvqz              for  HF TOTAL ENERGY
            mp2 / aug-cc-pvtz              for  MP2 TOTAL ENERGY
            mp2 / aug-cc-pvqz              for  MP2 TOTAL ENERGY
             hf / aug-cc-pvtz              for  HF TOTAL ENERGY
             hf / aug-cc-pvqz              for  HF TOTAL ENERGY

    Enlightened listing of computations required.
            mp2 / aug-cc-pvtz              for  MP2 TOTAL ENERGY
            mp2 / aug-cc-pvqz              for  MP2 TOTAL ENERGY

    Full listing of computations to be obtained (required and bonus).
             hf / aug-cc-pvtz              for  HF TOTAL ENERGY
            mp2 / aug-cc-pvtz              for  MP2 TOTAL ENERGY
             hf / aug-cc-pvqz              for  HF TOTAL ENERGY
            mp2 / aug-cc-pvqz              for  MP2 TOTAL ENERGY

  //>>>>>>>>>>>>>>>>>>>>>>>>>>>>>>>>>>>>//
  // CBS Computation: MP2 / AUG-CC-PVTZ //
  //<<<<<<<<<<<<<<<<<<<<<<<<<<<<<<<<<<<<//

    SCF Algorithm Type (re)set to DF.

*** tstart() called on node37.bme.utexas.edu
*** at Tue Feb 22 19:09:59 2022

   => Loading Basis Set <=

    Name: AUG-CC-PVTZ
    Role: ORBITAL
    Keyword: BASIS
    atoms 1-4 entry CL         line   984 file /home/bdw2292/miniconda3/envs/amoebamdpoltype/share/psi4/basis/aug-cc-pvtz.gbs 
    atoms 5   entry C          line   235 file /home/bdw2292/miniconda3/envs/amoebamdpoltype/share/psi4/basis/aug-cc-pvtz.gbs 
    atoms 6   entry O          line   327 file /home/bdw2292/miniconda3/envs/amoebamdpoltype/share/psi4/basis/aug-cc-pvtz.gbs 
    atoms 7-8 entry H          line    36 file /home/bdw2292/miniconda3/envs/amoebamdpoltype/share/psi4/basis/aug-cc-pvtz.gbs 


         ---------------------------------------------------------
                                   SCF
               by Justin Turney, Rob Parrish, Andy Simmonett
                          and Daniel G. A. Smith
                              RHF Reference
                        4 Threads,  14305 MiB Core
         ---------------------------------------------------------

  ==> Geometry <==

    Molecular point group: c1
    Full point group: C1

    Geometry (in Angstrom), charge = 0, multiplicity = 1:

       Center              X                  Y                   Z               Mass       
    ------------   -----------------  -----------------  -----------------  -----------------
      Gh(CL)         -1.122832833154    -1.171662061554     0.156787204440    34.968852682000
      Gh(CL)         -0.614827233154     1.507743638446    -0.790933195560    34.968852682000
      Gh(CL)          0.797085366846    -0.729459961554    -1.961395695560    34.968852682000
      Gh(CL)          1.392882466846     0.111914838446     0.741866204440    34.968852682000
      Gh(C)           0.113766966846    -0.071437961554    -0.467425295560    12.000000000000
         O           -0.981528533154     0.640933938446     3.941821804440    15.994914619570
         H           -1.041031533154    -0.289313461554     4.158543404440     1.007825032230
         H           -0.429880733154     0.733864038446     3.165054404440     1.007825032230

  Running in c1 symmetry.

  Rotational constants: A =      0.05767  B =      0.02691  C =      0.02686 [cm^-1]
  Rotational constants: A =   1728.96547  B =    806.69946  C =    805.23607 [MHz]
  Nuclear repulsion =    9.187140773497795

  Charge       = 0
  Multiplicity = 1
  Electrons    = 10
  Nalpha       = 5
  Nbeta        = 5

  ==> Algorithm <==

  SCF Algorithm Type is DF.
  DIIS enabled.
  MOM disabled.
  Fractional occupation disabled.
  Guess Type is SAD.
  Energy threshold   = 1.00e-08
  Density threshold  = 1.00e-08
  Integral threshold = 0.00e+00

  ==> Primary Basis <==

  Basis Set: AUG-CC-PVTZ
    Blend: AUG-CC-PVTZ
    Number of shells: 110
    Number of basis function: 338
    Number of Cartesian functions: 396
    Spherical Harmonics?: true
    Max angular momentum: 3

   => Loading Basis Set <=

    Name: (AUG-CC-PVTZ AUX)
    Role: JKFIT
    Keyword: DF_BASIS_SCF
    atoms 1-4 entry CL         line   816 file /home/bdw2292/miniconda3/envs/amoebamdpoltype/share/psi4/basis/aug-cc-pvtz-jkfit.gbs 
    atoms 5   entry C          line   162 file /home/bdw2292/miniconda3/envs/amoebamdpoltype/share/psi4/basis/aug-cc-pvtz-jkfit.gbs 
    atoms 6   entry O          line   286 file /home/bdw2292/miniconda3/envs/amoebamdpoltype/share/psi4/basis/aug-cc-pvtz-jkfit.gbs 
    atoms 7-8 entry H          line    70 file /home/bdw2292/miniconda3/envs/amoebamdpoltype/share/psi4/basis/aug-cc-pvtz-jkfit.gbs 

  ==> Pre-Iterations <==

   -------------------------------------------------------
    Irrep   Nso     Nmo     Nalpha   Nbeta   Ndocc  Nsocc
   -------------------------------------------------------
     A        338     338       0       0       0       0
   -------------------------------------------------------
    Total     338     338       5       5       5       0
   -------------------------------------------------------

  ==> Integral Setup <==

  DFHelper Memory: AOs need 0.741 GiB; user supplied 10.477 GiB. Using in-core AOs.

  ==> MemDFJK: Density-Fitted J/K Matrices <==

    J tasked:                   Yes
    K tasked:                   Yes
    wK tasked:                   No
    OpenMP threads:               4
    Memory [MiB]:             10728
    Algorithm:                 Core
    Schwarz Cutoff:           1E-12
    Mask sparsity (%):       5.7771
    Fitting Condition:        1E-10

   => Auxiliary Basis Set <=

  Basis Set: (AUG-CC-PVTZ AUX)
    Blend: AUG-CC-PVTZ-JKFIT
    Number of shells: 256
    Number of basis function: 884
    Number of Cartesian functions: 1092
    Spherical Harmonics?: true
    Max angular momentum: 4

  Minimum eigenvalue in the overlap matrix is 6.9432290147E-05.
  Using Symmetric Orthogonalization.

  SCF Guess: Superposition of Atomic Densities via on-the-fly atomic UHF.

  ==> Iterations <==

                           Total Energy        Delta E     RMS |[F,P]|

   @DF-RHF iter SAD:   -75.47446192695561   -7.54745e+01   0.00000e+00 
   @DF-RHF iter   1:   -75.97664410627787   -5.02182e-01   1.38673e-03 DIIS
   @DF-RHF iter   2:   -76.02908353470575   -5.24394e-02   9.39508e-04 DIIS
   @DF-RHF iter   3:   -76.06009190105469   -3.10084e-02   6.37951e-05 DIIS
   @DF-RHF iter   4:   -76.06048108563844   -3.89185e-04   1.52222e-05 DIIS
   @DF-RHF iter   5:   -76.06050497383825   -2.38882e-05   3.42451e-06 DIIS
   @DF-RHF iter   6:   -76.06050692237125   -1.94853e-06   7.62251e-07 DIIS
   @DF-RHF iter   7:   -76.06050702981480   -1.07444e-07   1.44180e-07 DIIS
   @DF-RHF iter   8:   -76.06050703322720   -3.41240e-09   2.39032e-08 DIIS
   @DF-RHF iter   9:   -76.06050703330112   -7.39249e-11   5.92934e-09 DIIS
  Energy and wave function converged.


  ==> Post-Iterations <==

    Orbital Energies [Eh]
    ---------------------

    Doubly Occupied:                                                      

       1A    -20.565470     2A     -1.350966     3A     -0.725066  
       4A     -0.577577     5A     -0.509238  

    Virtual:                                                              

       6A      0.020093     7A      0.038609     8A      0.048499  
       9A      0.052880    10A      0.063758    11A      0.078974  
      12A      0.101266    13A      0.103278    14A      0.105544  
      15A      0.105620    16A      0.115200    17A      0.123690  
      18A      0.146640    19A      0.151053    20A      0.153500  
      21A      0.165694    22A      0.167724    23A      0.173115  
      24A      0.176933    25A      0.190677    26A      0.192687  
      27A      0.198762    28A      0.209377    29A      0.212766  
      30A      0.220345    31A      0.242619    32A      0.260461  
      33A      0.268269    34A      0.294236    35A      0.295826  
      36A      0.305560    37A      0.314960    38A      0.323905  
      39A      0.328214    40A      0.334953    41A      0.360024  
      42A      0.365104    43A      0.385110    44A      0.390543  
      45A      0.394278    46A      0.416783    47A      0.428947  
      48A      0.442409    49A      0.444971    50A      0.453235  
      51A      0.458540    52A      0.470228    53A      0.499744  
      54A      0.509356    55A      0.522872    56A      0.527840  
      57A      0.532669    58A      0.539169    59A      0.543538  
      60A      0.546204    61A      0.550570    62A      0.565389  
      63A      0.589581    64A      0.595606    65A      0.609669  
      66A      0.613510    67A      0.630290    68A      0.631830  
      69A      0.656615    70A      0.675791    71A      0.706156  
      72A      0.711407    73A      0.717105    74A      0.726898  
      75A      0.735612    76A      0.737711    77A      0.743613  
      78A      0.749803    79A      0.752816    80A      0.756512  
      81A      0.760696    82A      0.775299    83A      0.777171  
      84A      0.792891    85A      0.805087    86A      0.836920  
      87A      0.845060    88A      0.856755    89A      0.878650  
      90A      0.880731    91A      0.924809    92A      0.944168  
      93A      0.953313    94A      0.967583    95A      0.983771  
      96A      1.011664    97A      1.034559    98A      1.042463  
      99A      1.066579   100A      1.122953   101A      1.145326  
     102A      1.171286   103A      1.178755   104A      1.211677  
     105A      1.214341   106A      1.233719   107A      1.238148  
     108A      1.244011   109A      1.249962   110A      1.267060  
     111A      1.275414   112A      1.305444   113A      1.318208  
     114A      1.335169   115A      1.348303   116A      1.352249  
     117A      1.360197   118A      1.361623   119A      1.368299  
     120A      1.376277   121A      1.387882   122A      1.406109  
     123A      1.417694   124A      1.423718   125A      1.446447  
     126A      1.459501   127A      1.466642   128A      1.472567  
     129A      1.478867   130A      1.482007   131A      1.494365  
     132A      1.503833   133A      1.519685   134A      1.524764  
     135A      1.535394   136A      1.544840   137A      1.551563  
     138A      1.554352   139A      1.557333   140A      1.558311  
     141A      1.574263   142A      1.583237   143A      1.597401  
     144A      1.608030   145A      1.632442   146A      1.634364  
     147A      1.642108   148A      1.657454   149A      1.664442  
     150A      1.669616   151A      1.684302   152A      1.689188  
     153A      1.707864   154A      1.713668   155A      1.733119  
     156A      1.747887   157A      1.756863   158A      1.775830  
     159A      1.784416   160A      1.828844   161A      1.857335  
     162A      1.861681   163A      1.875604   164A      1.885950  
     165A      1.890352   166A      1.909579   167A      1.938116  
     168A      2.061103   169A      2.129681   170A      2.131222  
     171A      2.135295   172A      2.139539   173A      2.144976  
     174A      2.146621   175A      2.216754   176A      2.218421  
     177A      2.255355   178A      2.290848   179A      2.295824  
     180A      2.306026   181A      2.318499   182A      2.338660  
     183A      2.358600   184A      2.389066   185A      2.450641  
     186A      2.454379   187A      2.458478   188A      2.468789  
     189A      2.485076   190A      2.516586   191A      2.544298  
     192A      2.562262   193A      2.580076   194A      2.603979  
     195A      2.711827   196A      2.745767   197A      2.748023  
     198A      2.750857   199A      2.778761   200A      2.836612  
     201A      2.912514   202A      2.924746   203A      3.003462  
     204A      3.669269   205A      3.781873   206A      3.793568  
     207A      3.800478   208A      3.821555   209A      3.880977  
     210A      3.944998   211A      3.950532   212A      3.955806  
     213A      3.977641   214A      3.979516   215A      3.986576  
     216A      4.002081   217A      4.006340   218A      4.033186  
     219A      4.041752   220A      4.042203   221A      4.047053  
     222A      4.074467   223A      4.079015   224A      4.106467  
     225A      4.121837   226A      4.126965   227A      4.129283  
     228A      4.136547   229A      4.144646   230A      4.149041  
     231A      4.177156   232A      4.179847   233A      4.190035  
     234A      4.204978   235A      4.214727   236A      4.235404  
     237A      4.236920   238A      4.238508   239A      4.252337  
     240A      4.264091   241A      4.269915   242A      4.271350  
     243A      4.298834   244A      4.329146   245A      4.343867  
     246A      4.399287   247A      4.425059   248A      4.450862  
     249A      4.457054   250A      4.461394   251A      4.468107  
     252A      4.475004   253A      4.477146   254A      4.545293  
     255A      4.692687   256A      4.697517   257A      4.725347  
     258A      4.725904   259A      4.728762   260A      4.738613  
     261A      4.757428   262A      4.763777   263A      4.774448  
     264A      4.780644   265A      4.792186   266A      4.795072  
     267A      4.817862   268A      4.822282   269A      4.824445  
     270A      4.827123   271A      4.871832   272A      4.880247  
     273A      4.887579   274A      4.889069   275A      4.897823  
     276A      4.927894   277A      5.085971   278A      5.088864  
     279A      5.108999   280A      5.110245   281A      5.119450  
     282A      5.129971   283A      5.159500   284A      5.184641  
     285A      5.349031   286A      5.356949   287A      5.396118  
     288A      5.398334   289A      5.400756   290A      5.404927  
     291A      5.408482   292A      5.521692   293A      5.606767  
     294A      5.747483   295A      5.845777   296A      6.121885  
     297A      6.135314   298A      6.141213   299A      6.171608  
     300A      6.551161   301A      6.748640   302A      6.884039  
     303A      7.155791   304A      7.290365   305A      7.322422  
     306A      7.325239   307A      7.404033   308A      7.410929  
     309A      7.540346   310A      7.673005   311A      7.896829  
     312A      7.899673   313A      7.923594   314A      7.938082  
     315A      7.981164   316A      8.806173   317A     15.321332  
     318A     16.250518   319A     16.394497   320A     16.451903  
     321A     16.489366   322A     28.051963   323A     28.062318  
     324A     28.084981   325A     28.165911   326A     28.173775  
     327A     28.235003   328A     28.327796   329A     28.349673  
     330A     28.842863   331A     28.849713   332A     28.874146  
     333A     29.525935   334A     40.631924   335A    160.920869  
     336A    161.040956   337A    161.041801   338A    161.045862  

    Final Occupation by Irrep:
              A 
    DOCC [     5 ]

  @DF-RHF Final Energy:   -76.06050703330112

   => Energetics <=

    Nuclear Repulsion Energy =              9.1871407734977950
    One-Electron Energy =                -123.0386599853174232
    Two-Electron Energy =                  37.7910121785185211
    Total Energy =                        -76.0605070333011213

Computation Completed


Properties will be evaluated at  -0.000000,  -0.000000,   0.000000 [a0]

Properties computed using the SCF density matrix

  Nuclear Dipole Moment: [e a0]
     X:   -17.6182      Y:    10.5296      Z:    73.4313

  Electronic Dipole Moment: [e a0]
     X:    17.9497      Y:   -11.0934      Z:   -73.8086

  Dipole Moment: [e a0]
     X:     0.3315      Y:    -0.5638      Z:    -0.3773     Total:     0.7551

  Dipole Moment: [D]
     X:     0.8426      Y:    -1.4331      Z:    -0.9589     Total:     1.9192


*** tstop() called on node37.bme.utexas.edu at Tue Feb 22 19:10:20 2022
Module time:
	user time   =      44.11 seconds =       0.74 minutes
	system time =       2.41 seconds =       0.04 minutes
	total time  =         21 seconds =       0.35 minutes
Total time:
	user time   =      65.74 seconds =       1.10 minutes
	system time =       3.98 seconds =       0.07 minutes
	total time  =         32 seconds =       0.53 minutes

*** tstart() called on node37.bme.utexas.edu
*** at Tue Feb 22 19:10:20 2022


  //>>>>>>>>>>>>>>>>>>>>>>>>>>>>>>>>>>>//
  //               DFMP2               //
  //<<<<<<<<<<<<<<<<<<<<<<<<<<<<<<<<<<<//

   => Loading Basis Set <=

    Name: (AUG-CC-PVTZ AUX)
    Role: RIFIT
    Keyword: DF_BASIS_MP2
    atoms 1-4 entry CL         line   742 file /home/bdw2292/miniconda3/envs/amoebamdpoltype/share/psi4/basis/aug-cc-pvtz-ri.gbs 
    atoms 5   entry C          line   148 file /home/bdw2292/miniconda3/envs/amoebamdpoltype/share/psi4/basis/aug-cc-pvtz-ri.gbs 
    atoms 6   entry O          line   264 file /home/bdw2292/miniconda3/envs/amoebamdpoltype/share/psi4/basis/aug-cc-pvtz-ri.gbs 
    atoms 7-8 entry H          line    30 file /home/bdw2292/miniconda3/envs/amoebamdpoltype/share/psi4/basis/aug-cc-pvtz-ri.gbs 

	 --------------------------------------------------------
	                          DF-MP2                         
	      2nd-Order Density-Fitted Moller-Plesset Theory     
	              RMP2 Wavefunction,   4 Threads             
	                                                         
	        Rob Parrish, Justin Turney, Andy Simmonett,      
	           Ed Hohenstein, and C. David Sherrill          
	 --------------------------------------------------------

   => Auxiliary Basis Set <=

  Basis Set: (AUG-CC-PVTZ AUX)
    Blend: AUG-CC-PVTZ-RI
    Number of shells: 232
    Number of basis function: 892
    Number of Cartesian functions: 1146
    Spherical Harmonics?: true
    Max angular momentum: 4

	 --------------------------------------------------------
	                 NBF =   338, NAUX =   892
	 --------------------------------------------------------
	   CLASS    FOCC     OCC    AOCC    AVIR     VIR    FVIR
	   PAIRS       1       5       4     333     333       0
	 --------------------------------------------------------

	-----------------------------------------------------------
	 ==================> DF-MP2 Energies <==================== 
	-----------------------------------------------------------
	 Reference Energy          =     -76.0605070333011213 [Eh]
	 Singles Energy            =      -0.0000000000000000 [Eh]
	 Same-Spin Energy          =      -0.0650983934710251 [Eh]
	 Opposite-Spin Energy      =      -0.2030642643690110 [Eh]
	 Correlation Energy        =      -0.2681626578400360 [Eh]
	 Total Energy              =     -76.3286696911411582 [Eh]
	-----------------------------------------------------------
	 ================> DF-SCS-MP2 Energies <================== 
	-----------------------------------------------------------
	 SCS Same-Spin Scale       =       0.3333333333333333 [-]
	 SCS Opposite-Spin Scale   =       1.2000000000000000 [-]
	 SCS Same-Spin Energy      =      -0.0216994644903417 [Eh]
	 SCS Opposite-Spin Energy  =      -0.2436771172428131 [Eh]
	 SCS Correlation Energy    =      -0.2653765817331548 [Eh]
	 SCS Total Energy          =     -76.3258836150342717 [Eh]
	-----------------------------------------------------------


*** tstop() called on node37.bme.utexas.edu at Tue Feb 22 19:10:27 2022
Module time:
	user time   =      17.31 seconds =       0.29 minutes
	system time =       1.02 seconds =       0.02 minutes
	total time  =          7 seconds =       0.12 minutes
Total time:
	user time   =      83.05 seconds =       1.38 minutes
	system time =       5.00 seconds =       0.08 minutes
	total time  =         39 seconds =       0.65 minutes

  //>>>>>>>>>>>>>>>>>>>>>>>>>>>>>>>>>>>>//
  // CBS Computation: MP2 / AUG-CC-PVQZ //
  //<<<<<<<<<<<<<<<<<<<<<<<<<<<<<<<<<<<<//

    SCF Algorithm Type (re)set to DF.

*** tstart() called on node37.bme.utexas.edu
*** at Tue Feb 22 19:10:27 2022

   => Loading Basis Set <=

    Name: AUG-CC-PVQZ
    Role: ORBITAL
    Keyword: BASIS
    atoms 1-4 entry CL         line  1218 file /home/bdw2292/miniconda3/envs/amoebamdpoltype/share/psi4/basis/aug-cc-pvqz.gbs 
    atoms 5   entry C          line   299 file /home/bdw2292/miniconda3/envs/amoebamdpoltype/share/psi4/basis/aug-cc-pvqz.gbs 
    atoms 6   entry O          line   419 file /home/bdw2292/miniconda3/envs/amoebamdpoltype/share/psi4/basis/aug-cc-pvqz.gbs 
    atoms 7-8 entry H          line    36 file /home/bdw2292/miniconda3/envs/amoebamdpoltype/share/psi4/basis/aug-cc-pvqz.gbs 


         ---------------------------------------------------------
                                   SCF
               by Justin Turney, Rob Parrish, Andy Simmonett
                          and Daniel G. A. Smith
                              RHF Reference
                        4 Threads,  14305 MiB Core
         ---------------------------------------------------------

  ==> Geometry <==

    Molecular point group: c1
    Full point group: C1

    Geometry (in Angstrom), charge = 0, multiplicity = 1:

       Center              X                  Y                   Z               Mass       
    ------------   -----------------  -----------------  -----------------  -----------------
      Gh(CL)         -1.122832833154    -1.171662061554     0.156787204440    34.968852682000
      Gh(CL)         -0.614827233154     1.507743638446    -0.790933195560    34.968852682000
      Gh(CL)          0.797085366846    -0.729459961554    -1.961395695560    34.968852682000
      Gh(CL)          1.392882466846     0.111914838446     0.741866204440    34.968852682000
      Gh(C)           0.113766966846    -0.071437961554    -0.467425295560    12.000000000000
         O           -0.981528533154     0.640933938446     3.941821804440    15.994914619570
         H           -1.041031533154    -0.289313461554     4.158543404440     1.007825032230
         H           -0.429880733154     0.733864038446     3.165054404440     1.007825032230

  Running in c1 symmetry.

  Rotational constants: A =      0.05767  B =      0.02691  C =      0.02686 [cm^-1]
  Rotational constants: A =   1728.96547  B =    806.69946  C =    805.23607 [MHz]
  Nuclear repulsion =    9.187140773497795

  Charge       = 0
  Multiplicity = 1
  Electrons    = 10
  Nalpha       = 5
  Nbeta        = 5

  ==> Algorithm <==

  SCF Algorithm Type is DF.
  DIIS enabled.
  MOM disabled.
  Fractional occupation disabled.
  Guess Type is SAD.
  Energy threshold   = 1.00e-08
  Density threshold  = 1.00e-08
  Integral threshold = 0.00e+00

  ==> Primary Basis <==

  Basis Set: AUG-CC-PVQZ
    Blend: AUG-CC-PVQZ
    Number of shells: 156
    Number of basis function: 588
    Number of Cartesian functions: 756
    Spherical Harmonics?: true
    Max angular momentum: 4

   => Loading Basis Set <=

    Name: (AUG-CC-PVQZ AUX)
    Role: JKFIT
    Keyword: DF_BASIS_SCF
    atoms 1-4 entry CL         line   904 file /home/bdw2292/miniconda3/envs/amoebamdpoltype/share/psi4/basis/aug-cc-pvqz-jkfit.gbs 
    atoms 5   entry C          line   178 file /home/bdw2292/miniconda3/envs/amoebamdpoltype/share/psi4/basis/aug-cc-pvqz-jkfit.gbs 
    atoms 6   entry O          line   318 file /home/bdw2292/miniconda3/envs/amoebamdpoltype/share/psi4/basis/aug-cc-pvqz-jkfit.gbs 
    atoms 7-8 entry H          line    70 file /home/bdw2292/miniconda3/envs/amoebamdpoltype/share/psi4/basis/aug-cc-pvqz-jkfit.gbs 

  ==> Pre-Iterations <==

   -------------------------------------------------------
    Irrep   Nso     Nmo     Nalpha   Nbeta   Ndocc  Nsocc
   -------------------------------------------------------
     A        588     588       0       0       0       0
   -------------------------------------------------------
    Total     588     588       5       5       5       0
   -------------------------------------------------------

  ==> Integral Setup <==

  DFHelper Memory: AOs need 2.831 GiB; user supplied 10.477 GiB. Using in-core AOs.

  ==> MemDFJK: Density-Fitted J/K Matrices <==

    J tasked:                   Yes
    K tasked:                   Yes
    wK tasked:                   No
    OpenMP threads:               4
    Memory [MiB]:             10728
    Algorithm:                 Disk
    Schwarz Cutoff:           1E-12
    Mask sparsity (%):       9.7164
    Fitting Condition:        1E-10

   => Auxiliary Basis Set <=

  Basis Set: (AUG-CC-PVQZ AUX)
    Blend: AUG-CC-PVQZ-JKFIT
    Number of shells: 288
    Number of basis function: 1172
    Number of Cartesian functions: 1586
    Spherical Harmonics?: true
    Max angular momentum: 5

  Minimum eigenvalue in the overlap matrix is 1.1785151571E-05.
  Using Symmetric Orthogonalization.

  SCF Guess: Superposition of Atomic Densities via on-the-fly atomic UHF.

  ==> Iterations <==

                           Total Energy        Delta E     RMS |[F,P]|

   @DF-RHF iter SAD:   -75.47961870944991   -7.54796e+01   0.00000e+00 
   @DF-RHF iter   1:   -75.98172177945453   -5.02103e-01   7.98797e-04 DIIS
   @DF-RHF iter   2:   -76.03426099394616   -5.25392e-02   5.42408e-04 DIIS
   @DF-RHF iter   3:   -76.06546354863268   -3.12026e-02   3.69367e-05 DIIS
   @DF-RHF iter   4:   -76.06585472101250   -3.91172e-04   9.01526e-06 DIIS
   @DF-RHF iter   5:   -76.06587948476209   -2.47637e-05   2.02135e-06 DIIS
   @DF-RHF iter   6:   -76.06588151452800   -2.02977e-06   4.61723e-07 DIIS
   @DF-RHF iter   7:   -76.06588163302357   -1.18496e-07   9.00992e-08 DIIS
   @DF-RHF iter   8:   -76.06588163703691   -4.01334e-09   1.44219e-08 DIIS
   @DF-RHF iter   9:   -76.06588163712048   -8.35740e-11   3.48747e-09 DIIS
  Energy and wave function converged.


  ==> Post-Iterations <==

    Orbital Energies [Eh]
    ---------------------

    Doubly Occupied:                                                      

       1A    -20.563007     2A     -1.350243     3A     -0.725035  
       4A     -0.577632     5A     -0.509369  

    Virtual:                                                              

       6A      0.017573     7A      0.034462     8A      0.042391  
       9A      0.045385    10A      0.056314    11A      0.070711  
      12A      0.086232    13A      0.087176    14A      0.088065  
      15A      0.088971    16A      0.098424    17A      0.107171  
      18A      0.125003    19A      0.128696    20A      0.131656  
      21A      0.140036    22A      0.141444    23A      0.146166  
      24A      0.150322    25A      0.163280    26A      0.165972  
      27A      0.171190    28A      0.177804    29A      0.184827  
      30A      0.188995    31A      0.210238    32A      0.217422  
      33A      0.223282    34A      0.238698    35A      0.241235  
      36A      0.247997    37A      0.248748    38A      0.254553  
      39A      0.258028    40A      0.266563    41A      0.281234  
      42A      0.300863    43A      0.311274    44A      0.315907  
      45A      0.318241    46A      0.331319    47A      0.333466  
      48A      0.337699    49A      0.345550    50A      0.356667  
      51A      0.368741    52A      0.373885    53A      0.385209  
      54A      0.389499    55A      0.402120    56A      0.409868  
      57A      0.412712    58A      0.420329    59A      0.425678  
      60A      0.431356    61A      0.434381    62A      0.444020  
      63A      0.449914    64A      0.456573    65A      0.468504  
      66A      0.468914    67A      0.478213    68A      0.480338  
      69A      0.516356    70A      0.517434    71A      0.531301  
      72A      0.532372    73A      0.537204    74A      0.541742  
      75A      0.547385    76A      0.549107    77A      0.556810  
      78A      0.564144    79A      0.574067    80A      0.579185  
      81A      0.583246    82A      0.586206    83A      0.592920  
      84A      0.605055    85A      0.621635    86A      0.646757  
      87A      0.656371    88A      0.665905    89A      0.673874  
      90A      0.675587    91A      0.699860    92A      0.707937  
      93A      0.726020    94A      0.735210    95A      0.740942  
      96A      0.778260    97A      0.793327    98A      0.809092  
      99A      0.815941   100A      0.829231   101A      0.845607  
     102A      0.854737   103A      0.864622   104A      0.872482  
     105A      0.882701   106A      0.896709   107A      0.911745  
     108A      0.917369   109A      0.924957   110A      0.931912  
     111A      0.938117   112A      0.941571   113A      0.944248  
     114A      0.954308   115A      0.960339   116A      0.974785  
     117A      0.981274   118A      0.989165   119A      0.996552  
     120A      1.004387   121A      1.005674   122A      1.011588  
     123A      1.022048   124A      1.023386   125A      1.025318  
     126A      1.043413   127A      1.045653   128A      1.047386  
     129A      1.055720   130A      1.058667   131A      1.063428  
     132A      1.071598   133A      1.083575   134A      1.090801  
     135A      1.092786   136A      1.105395   137A      1.119490  
     138A      1.129623   139A      1.135852   140A      1.145914  
     141A      1.159375   142A      1.167783   143A      1.174027  
     144A      1.181784   145A      1.186390   146A      1.200663  
     147A      1.209977   148A      1.213880   149A      1.217025  
     150A      1.226734   151A      1.238698   152A      1.247878  
     153A      1.256562   154A      1.262911   155A      1.284088  
     156A      1.291271   157A      1.296412   158A      1.323832  
     159A      1.342182   160A      1.350917   161A      1.364122  
     162A      1.370516   163A      1.395315   164A      1.399991  
     165A      1.419787   166A      1.469319   167A      1.476046  
     168A      1.522183   169A      1.555815   170A      1.575707  
     171A      1.587792   172A      1.593747   173A      1.604493  
     174A      1.621194   175A      1.630573   176A      1.638793  
     177A      1.641462   178A      1.649551   179A      1.657806  
     180A      1.662332   181A      1.667761   182A      1.675607  
     183A      1.685713   184A      1.692748   185A      1.696647  
     186A      1.708696   187A      1.717533   188A      1.724673  
     189A      1.730698   190A      1.745769   191A      1.749098  
     192A      1.790104   193A      1.800597   194A      1.812471  
     195A      1.827066   196A      1.837017   197A      1.840253  
     198A      1.849639   199A      1.861596   200A      1.885480  
     201A      1.902093   202A      1.913237   203A      1.921516  
     204A      1.934317   205A      1.937620   206A      1.947447  
     207A      1.950313   208A      1.964205   209A      1.975202  
     210A      1.981736   211A      1.998390   212A      2.004239  
     213A      2.011551   214A      2.032956   215A      2.043639  
     216A      2.044908   217A      2.050046   218A      2.059763  
     219A      2.095975   220A      2.112264   221A      2.152486  
     222A      2.163181   223A      2.210538   224A      2.216392  
     225A      2.222960   226A      2.232519   227A      2.236659  
     228A      2.245078   229A      2.251864   230A      2.259082  
     231A      2.280226   232A      2.296102   233A      2.300196  
     234A      2.314724   235A      2.337645   236A      2.344506  
     237A      2.350861   238A      2.387765   239A      2.391567  
     240A      2.411970   241A      2.426185   242A      2.434473  
     243A      2.438988   244A      2.452487   245A      2.458758  
     246A      2.460594   247A      2.475463   248A      2.483625  
     249A      2.488543   250A      2.498092   251A      2.502956  
     252A      2.518684   253A      2.530118   254A      2.537362  
     255A      2.549316   256A      2.556906   257A      2.560525  
     258A      2.567898   259A      2.574449   260A      2.577797  
     261A      2.592946   262A      2.597647   263A      2.607426  
     264A      2.611306   265A      2.618265   266A      2.624426  
     267A      2.634609   268A      2.651775   269A      2.663205  
     270A      2.672059   271A      2.681312   272A      2.693343  
     273A      2.710582   274A      2.719728   275A      2.736193  
     276A      2.756743   277A      2.781065   278A      2.805655  
     279A      2.812814   280A      2.815469   281A      2.818667  
     282A      2.827178   283A      2.837023   284A      2.885196  
     285A      2.907667   286A      2.917543   287A      2.926861  
     288A      2.935347   289A      2.957103   290A      2.967194  
     291A      2.988792   292A      2.997166   293A      3.006593  
     294A      3.033620   295A      3.036038   296A      3.048101  
     297A      3.092620   298A      3.107090   299A      3.122136  
     300A      3.136285   301A      3.144932   302A      3.151444  
     303A      3.197781   304A      3.203523   305A      3.222134  
     306A      3.225183   307A      3.239970   308A      3.248083  
     309A      3.250627   310A      3.252219   311A      3.267737  
     312A      3.310666   313A      3.319826   314A      3.349077  
     315A      3.376203   316A      3.389743   317A      3.392292  
     318A      3.406732   319A      3.488185   320A      3.495229  
     321A      3.504396   322A      3.552203   323A      3.556861  
     324A      3.562204   325A      3.572681   326A      3.579962  
     327A      3.602472   328A      3.621734   329A      3.625615  
     330A      3.629588   331A      3.653895   332A      3.706529  
     333A      3.725006   334A      3.789435   335A      3.799593  
     336A      3.802428   337A      3.806421   338A      3.837482  
     339A      3.867852   340A      3.868501   341A      3.874513  
     342A      3.920910   343A      3.931962   344A      3.932417  
     345A      3.982515   346A      4.102555   347A      4.111936  
     348A      4.119433   349A      4.143978   350A      4.150981  
     351A      4.180054   352A      4.193605   353A      4.204413  
     354A      4.244537   355A      4.248346   356A      4.261738  
     357A      4.262053   358A      4.279957   359A      4.359383  
     360A      4.417966   361A      4.423151   362A      4.435332  
     363A      4.477048   364A      4.541493   365A      4.575388  
     366A      4.620726   367A      4.699399   368A      4.808629  
     369A      4.835086   370A      4.851279   371A      4.857991  
     372A      4.861819   373A      4.870118   374A      4.873902  
     375A      4.915197   376A      4.962292   377A      5.049236  
     378A      5.312490   379A      5.432315   380A      5.435244  
     381A      5.441794   382A      5.453305   383A      5.480283  
     384A      5.483056   385A      5.493011   386A      5.497721  
     387A      5.527075   388A      5.560802   389A      5.577763  
     390A      5.585409   391A      5.594958   392A      5.631937  
     393A      5.649674   394A      5.651638   395A      5.665119  
     396A      5.667587   397A      5.675543   398A      5.701450  
     399A      5.719487   400A      5.730513   401A      5.738060  
     402A      5.744530   403A      5.769896   404A      5.774201  
     405A      5.787266   406A      5.837292   407A      5.842575  
     408A      5.871751   409A      5.905187   410A      5.919668  
     411A      5.941620   412A      5.965883   413A      5.981391  
     414A      6.080671   415A      6.087556   416A      6.091487  
     417A      6.129802   418A      6.132953   419A      6.146305  
     420A      6.161355   421A      6.285837   422A      6.322294  
     423A      6.327278   424A      6.334979   425A      6.345221  
     426A      6.358854   427A      6.382995   428A      6.387398  
     429A      6.413522   430A      6.417542   431A      6.433090  
     432A      6.438835   433A      6.468685   434A      6.483033  
     435A      6.491905   436A      6.506346   437A      6.526955  
     438A      6.569780   439A      6.572294   440A      6.589229  
     441A      6.591492   442A      6.599825   443A      6.620355  
     444A      6.621609   445A      6.631757   446A      6.637450  
     447A      6.640201   448A      6.659616   449A      6.695452  
     450A      6.854287   451A      6.872619   452A      6.883243  
     453A      6.989767   454A      7.353620   455A      7.359554  
     456A      7.367197   457A      7.395438   458A      7.411175  
     459A      7.472811   460A      7.487777   461A      7.490172  
     462A      7.505510   463A      7.691638   464A      7.703003  
     465A      7.719326   466A      7.732873   467A      7.748221  
     468A      7.757008   469A      7.769261   470A      7.807241  
     471A      7.850684   472A      7.858553   473A      7.864912  
     474A      7.873652   475A      7.895467   476A      7.940459  
     477A      7.963951   478A      7.975867   479A      8.015526  
     480A      8.026998   481A      8.035353   482A      8.039423  
     483A      8.052812   484A      8.061030   485A      8.069236  
     486A      8.077855   487A      8.085632   488A      8.094191  
     489A      8.104243   490A      8.121109   491A      8.207918  
     492A      8.285344   493A      8.287583   494A      8.295514  
     495A      8.376250   496A      8.408897   497A      8.411877  
     498A      8.415114   499A      8.463096   500A      8.469463  
     501A      8.574924   502A      8.593171   503A      8.625397  
     504A      8.648781   505A      8.651505   506A      8.653229  
     507A      8.755148   508A      8.804384   509A      8.834656  
     510A      8.837175   511A      8.854795   512A      8.876828  
     513A      8.897205   514A      9.011514   515A      9.094622  
     516A      9.171322   517A      9.256320   518A      9.256884  
     519A      9.262725   520A      9.265056   521A      9.267386  
     522A      9.309609   523A      9.317934   524A      9.323201  
     525A      9.370077   526A      9.566747   527A      9.873932  
     528A     10.005428   529A     10.019750   530A     10.031245  
     531A     10.095391   532A     10.458194   533A     10.524019  
     534A     10.727364   535A     10.786362   536A     10.789723  
     537A     10.807801   538A     11.020923   539A     11.055081  
     540A     11.181782   541A     11.315257   542A     11.408518  
     543A     11.460397   544A     11.724005   545A     11.830455  
     546A     11.911054   547A     12.049596   548A     12.200096  
     549A     12.271199   550A     12.570138   551A     12.757612  
     552A     12.898754   553A     12.911946   554A     12.989660  
     555A     13.226260   556A     13.412217   557A     13.413519  
     558A     13.459652   559A     14.009515   560A     14.132430  
     561A     14.504177   562A     14.856122   563A     14.906627  
     564A     15.334127   565A     16.989121   566A     17.294014  
     567A     31.086993   568A     31.091731   569A     31.098336  
     570A     31.102851   571A     31.113460   572A     31.118494  
     573A     31.176050   574A     31.178355   575A     31.299654  
     576A     31.303151   577A     31.304830   578A     31.372646  
     579A     42.273710   580A     43.443038   581A     43.483479  
     582A     43.554429   583A     45.671947   584A     68.474492  
     585A    160.299828   586A    160.433553   587A    160.437543  
     588A    160.444628  

    Final Occupation by Irrep:
              A 
    DOCC [     5 ]

  @DF-RHF Final Energy:   -76.06588163712048

   => Energetics <=

    Nuclear Repulsion Energy =              9.1871407734977950
    One-Electron Energy =                -123.0554719703125954
    Two-Electron Energy =                  37.8024495596943240
    Total Energy =                        -76.0658816371204836

Computation Completed


Properties will be evaluated at  -0.000000,  -0.000000,   0.000000 [a0]

Properties computed using the SCF density matrix

  Nuclear Dipole Moment: [e a0]
     X:   -17.6182      Y:    10.5296      Z:    73.4313

  Electronic Dipole Moment: [e a0]
     X:    17.9492      Y:   -11.0928      Z:   -73.8080

  Dipole Moment: [e a0]
     X:     0.3310      Y:    -0.5632      Z:    -0.3767     Total:     0.7541

  Dipole Moment: [D]
     X:     0.8413      Y:    -1.4314      Z:    -0.9575     Total:     1.9167


*** tstop() called on node37.bme.utexas.edu at Tue Feb 22 19:11:57 2022
Module time:
	user time   =     199.60 seconds =       3.33 minutes
	system time =      42.79 seconds =       0.71 minutes
	total time  =         90 seconds =       1.50 minutes
Total time:
	user time   =     282.69 seconds =       4.71 minutes
	system time =      47.80 seconds =       0.80 minutes
	total time  =        129 seconds =       2.15 minutes

*** tstart() called on node37.bme.utexas.edu
*** at Tue Feb 22 19:11:57 2022


  //>>>>>>>>>>>>>>>>>>>>>>>>>>>>>>>>>>>//
  //               DFMP2               //
  //<<<<<<<<<<<<<<<<<<<<<<<<<<<<<<<<<<<//

   => Loading Basis Set <=

    Name: (AUG-CC-PVQZ AUX)
    Role: RIFIT
    Keyword: DF_BASIS_MP2
    atoms 1-4 entry CL         line   914 file /home/bdw2292/miniconda3/envs/amoebamdpoltype/share/psi4/basis/aug-cc-pvqz-ri.gbs 
    atoms 5   entry C          line   184 file /home/bdw2292/miniconda3/envs/amoebamdpoltype/share/psi4/basis/aug-cc-pvqz-ri.gbs 
    atoms 6   entry O          line   332 file /home/bdw2292/miniconda3/envs/amoebamdpoltype/share/psi4/basis/aug-cc-pvqz-ri.gbs 
    atoms 7-8 entry H          line    30 file /home/bdw2292/miniconda3/envs/amoebamdpoltype/share/psi4/basis/aug-cc-pvqz-ri.gbs 

	 --------------------------------------------------------
	                          DF-MP2                         
	      2nd-Order Density-Fitted Moller-Plesset Theory     
	              RMP2 Wavefunction,   4 Threads             
	                                                         
	        Rob Parrish, Justin Turney, Andy Simmonett,      
	           Ed Hohenstein, and C. David Sherrill          
	 --------------------------------------------------------

   => Auxiliary Basis Set <=

  Basis Set: (AUG-CC-PVQZ AUX)
    Blend: AUG-CC-PVQZ-RI
    Number of shells: 288
    Number of basis function: 1272
    Number of Cartesian functions: 1756
    Spherical Harmonics?: true
    Max angular momentum: 5

	 --------------------------------------------------------
	                 NBF =   588, NAUX =  1272
	 --------------------------------------------------------
	   CLASS    FOCC     OCC    AOCC    AVIR     VIR    FVIR
	   PAIRS       1       5       4     583     583       0
	 --------------------------------------------------------

	-----------------------------------------------------------
	 ==================> DF-MP2 Energies <==================== 
	-----------------------------------------------------------
	 Reference Energy          =     -76.0658816371204836 [Eh]
	 Singles Energy            =      -0.0000000000000000 [Eh]
	 Same-Spin Energy          =      -0.0671613288856326 [Eh]
	 Opposite-Spin Energy      =      -0.2185490852883610 [Eh]
	 Correlation Energy        =      -0.2857104141739937 [Eh]
	 Total Energy              =     -76.3515920512944746 [Eh]
	-----------------------------------------------------------
	 ================> DF-SCS-MP2 Energies <================== 
	-----------------------------------------------------------
	 SCS Same-Spin Scale       =       0.3333333333333333 [-]
	 SCS Opposite-Spin Scale   =       1.2000000000000000 [-]
	 SCS Same-Spin Energy      =      -0.0223871096285442 [Eh]
	 SCS Opposite-Spin Energy  =      -0.2622589023460332 [Eh]
	 SCS Correlation Energy    =      -0.2846460119745775 [Eh]
	 SCS Total Energy          =     -76.3505276490950564 [Eh]
	-----------------------------------------------------------


*** tstop() called on node37.bme.utexas.edu at Tue Feb 22 19:12:19 2022
Module time:
	user time   =      61.13 seconds =       1.02 minutes
	system time =       3.25 seconds =       0.05 minutes
	total time  =         22 seconds =       0.37 minutes
Total time:
	user time   =     343.82 seconds =       5.73 minutes
	system time =      51.06 seconds =       0.85 minutes
	total time  =        151 seconds =       2.52 minutes

  //>>>>>>>>>>>>>>>>>>>>>>>>>>>>>>>>>>>//
  //  CBS Results: mp2/aug-cc-pV[TQ]Z  //
  //<<<<<<<<<<<<<<<<<<<<<<<<<<<<<<<<<<<//


   ==> HF <==

   HI-zeta (4) Energy:               -76.065881637120


   ==> Helgaker 2-point correlated extrapolation for method: MP2 <==

   LO-zeta (3) Energy:               -76.328669691141
   HI-zeta (4) Energy:               -76.351592051294
   Alpha (exponent) Value:             3.000000000000
   Extrapolated Energy:              -76.368319178974

   @Extrapolated MP2/(T,Q):          -76.368319178974



   ==> Helgaker 2-point correlated extrapolation for method: HF <==

   LO-zeta (3) Energy:               -76.060507033301
   HI-zeta (4) Energy:               -76.065881637120
   Alpha (exponent) Value:             3.000000000000
   Extrapolated Energy:              -76.069803645313

   @Extrapolated HF/(T,Q):           -76.069803645313


   ==> Components <==

  ---------------------------------------------------------------------------------------------------------
                          Method / Basis                      Rqd      Energy [Eh]   Variable
  ---------------------------------------------------------------------------------------------------------
                              hf / aug-cc-pvtz                  *     -76.06050703   HF TOTAL ENERGY
                             mp2 / aug-cc-pvtz                  *     -76.32866969   MP2 TOTAL ENERGY
                              hf / aug-cc-pvqz                  *     -76.06588164   HF TOTAL ENERGY
                             mp2 / aug-cc-pvqz                  *     -76.35159205   MP2 TOTAL ENERGY
  ---------------------------------------------------------------------------------------------------------

   ==> Stages <==

  ---------------------------------------------------------------------------------------------------------
      Stage               Method / Basis                       Wt      Energy [Eh]   Scheme
  ---------------------------------------------------------------------------------------------------------
        scf                   hf / aug-cc-pvqz                  1     -76.06588164   xtpl_highest_1
       corl                  mp2 / aug-cc-pv[tq]z               1     -76.36831918   corl_xtpl_helgaker_2
       corl                   hf / aug-cc-pv[tq]z              -1     -76.06980365   corl_xtpl_helgaker_2
  ---------------------------------------------------------------------------------------------------------

   ==> CBS <==

  ---------------------------------------------------------------------------------------------------------
      Stage               Method / Basis                               Energy [Eh]   Scheme
  ---------------------------------------------------------------------------------------------------------
        scf                   hf / aug-cc-pvqz                        -76.06588164   xtpl_highest_1
[...]
     139A      0.731287   140A      0.742616   141A      0.749788  
     142A      0.754880   143A      0.769614   144A      0.787475  
     145A      0.793630   146A      0.795352   147A      0.802875  
     148A      0.807997   149A      0.810698   150A      0.826894  
     151A      0.835614   152A      0.846777   153A      0.864263  
     154A      0.869086   155A      0.876196   156A      0.879560  
     157A      0.893587   158A      0.907285   159A      0.913991  
     160A      0.916074   161A      0.947813   162A      0.953298  
     163A      0.955799   164A      0.991719   165A      0.999030  
     166A      1.017321   167A      1.025878   168A      1.038345  
     169A      1.053863   170A      1.072819   171A      1.075767  
     172A      1.089487   173A      1.092718   174A      1.097936  
     175A      1.104511   176A      1.107283   177A      1.122656  
     178A      1.139893   179A      1.147044   180A      1.151628  
     181A      1.161853   182A      1.169049   183A      1.173979  
     184A      1.177205   185A      1.185620   186A      1.189513  
     187A      1.195797   188A      1.197753   189A      1.204041  
     190A      1.219244   191A      1.236274   192A      1.240987  
     193A      1.247817   194A      1.253958   195A      1.272732  
     196A      1.279694   197A      1.298000   198A      1.301743  
     199A      1.307481   200A      1.314734   201A      1.333217  
     202A      1.349503   203A      1.376675   204A      1.421260  
     205A      1.425425   206A      1.436540   207A      1.453615  
     208A      1.459501   209A      1.466210   210A      1.477372  
     211A      1.517801   212A      1.543501   213A      1.574817  
     214A      1.613143   215A      1.629973   216A      1.636605  
     217A      1.643426   218A      1.655380   219A      1.665262  
     220A      1.675224   221A      1.688563   222A      1.692322  
     223A      1.704016   224A      1.710375   225A      1.722770  
     226A      1.740806   227A      1.742286   228A      1.754384  
     229A      1.757289   230A      1.763326   231A      1.768381  
     232A      1.774585   233A      1.780925   234A      1.787420  
     235A      1.793346   236A      1.799016   237A      1.809075  
     238A      1.814804   239A      1.823267   240A      1.828727  
     241A      1.838748   242A      1.848287   243A      1.851866  
     244A      1.859120   245A      1.873983   246A      1.884223  
     247A      1.890934   248A      1.907757   249A      1.913161  
     250A      1.919260   251A      1.923170   252A      1.932421  
     253A      1.942241   254A      1.959498   255A      1.971307  
     256A      1.974021   257A      1.983625   258A      1.993092  
     259A      2.010880   260A      2.013032   261A      2.022171  
     262A      2.029429   263A      2.042387   264A      2.051608  
     265A      2.056330   266A      2.067968   267A      2.076955  
     268A      2.087098   269A      2.092696   270A      2.094062  
     271A      2.106483   272A      2.111140   273A      2.117090  
     274A      2.122499   275A      2.126263   276A      2.134084  
     277A      2.153176   278A      2.172585   279A      2.191394  
     280A      2.196756   281A      2.203146   282A      2.214093  
     283A      2.216366   284A      2.224052   285A      2.226608  
     286A      2.233498   287A      2.237785   288A      2.248529  
     289A      2.257646   290A      2.258405   291A      2.264464  
     292A      2.268710   293A      2.283627   294A      2.294162  
     295A      2.302696   296A      2.306825   297A      2.319883  
     298A      2.326837   299A      2.336835   300A      2.348251  
     301A      2.363889   302A      2.378012   303A      2.388756  
     304A      2.397349   305A      2.417669   306A      2.463143  
     307A      2.466056   308A      2.472971   309A      2.482682  
     310A      2.487392   311A      2.499032   312A      2.508245  
     313A      2.514016   314A      2.524609   315A      2.536649  
     316A      2.542892   317A      2.549640   318A      2.553900  
     319A      2.572326   320A      2.600121   321A      2.613642  
     322A      2.648438   323A      2.654037   324A      2.658140  
     325A      2.669040   326A      2.670812   327A      2.681117  
     328A      2.748649   329A      2.800216   330A      2.809753  
     331A      2.835511   332A      2.853165   333A      2.878303  
     334A      2.890328   335A      2.899307   336A      2.911549  
     337A      2.929903   338A      2.965174   339A      2.971832  
     340A      2.973560   341A      2.981961   342A      3.008803  
     343A      3.016780   344A      3.066373   345A      3.092287  
     346A      3.126276   347A      3.222341   348A      3.229548  
     349A      3.234317   350A      3.242207   351A      3.242849  
     352A      3.254621   353A      3.275293   354A      3.310433  
     355A      3.351718   356A      3.374453   357A      3.404368  
     358A      3.412649   359A      3.431460   360A      3.433529  
     361A      3.456719   362A      3.458590   363A      3.471619  
     364A      3.520689   365A      3.525609   366A      3.557125  
     367A      3.566472   368A      3.585087   369A      3.594057  
     370A      3.596199   371A      3.611181   372A      3.643155  
     373A      3.698328   374A      3.724495   375A      3.746133  
     376A      3.789629   377A      3.828709   378A      3.966308  
     379A      3.972826   380A      3.981723   381A      4.010952  
     382A      4.103843   383A      4.180804   384A      4.203303  
     385A      4.229652   386A      4.244808   387A      4.260178  
     388A      4.348751   389A      4.363465   390A      4.385869  
     391A      4.439033   392A      4.462427   393A      4.468131  
     394A      4.473251   395A      4.482066   396A      4.490365  
     397A      4.503832   398A      4.509274   399A      4.534320  
     400A      4.581925   401A      4.601669   402A      4.617307  
     403A      4.620982   404A      4.643432   405A      4.679391  
     406A      4.681967   407A      4.689520   408A      4.698518  
     409A      4.701326   410A      4.701844   411A      4.713851  
     412A      4.719270   413A      4.726095   414A      4.736387  
     415A      4.739749   416A      4.746342   417A      4.752869  
     418A      4.761663   419A      4.766500   420A      4.769754  
     421A      4.771335   422A      4.780792   423A      4.787131  
     424A      4.790367   425A      4.796542   426A      4.806082  
     427A      4.811961   428A      4.826396   429A      4.833749  
     430A      4.840513   431A      4.841338   432A      4.848740  
     433A      4.853335   434A      4.856271   435A      4.865849  
     436A      4.871331   437A      4.878956   438A      4.884268  
     439A      4.886024   440A      4.893094   441A      4.899502  
     442A      4.909342   443A      4.923073   444A      4.930199  
     445A      4.936627   446A      4.944336   447A      4.948003  
     448A      4.950544   449A      4.958216   450A      4.968359  
     451A      4.972474   452A      4.986386   453A      4.993233  
     454A      5.006218   455A      5.020734   456A      5.039014  
     457A      5.047472   458A      5.059585   459A      5.066749  
     460A      5.084477   461A      5.089644   462A      5.101826  
     463A      5.114043   464A      5.144509   465A      5.172571  
     466A      5.192127   467A      5.283192   468A      5.289380  
     469A      5.292571   470A      5.334144   471A      5.351845  
     472A      5.363737   473A      5.367765   474A      5.374364  
     475A      5.418960   476A      5.423312   477A      5.447351  
     478A      5.452175   479A      5.455270   480A      5.466687  
     481A      5.562033   482A      5.597757   483A      5.617551  
     484A      5.631440   485A      5.669722   486A      5.809774  
     487A      5.908871   488A      5.922166   489A      6.142714  
     490A      6.304937   491A      6.617981   492A      6.653305  
     493A      6.665467   494A      6.674133   495A      6.682299  
     496A      6.684330   497A      6.691373   498A      6.759741  
     499A      6.763867   500A      6.827351   501A      6.831220  
     502A      6.846307   503A      6.859328   504A      6.863347  
     505A      6.871338   506A      6.881802   507A      6.906997  
     508A      6.919091   509A      6.993798   510A      7.108681  
     511A      7.109260   512A      7.204293   513A      7.205917  
     514A      7.224137   515A      7.282966   516A      7.290878  
     517A      7.310428   518A      7.340326   519A      7.353373  
     520A      7.549503   521A      7.742542   522A      7.746564  
     523A      7.749062   524A      7.765142   525A      7.811788  
     526A      7.822441   527A      7.829510   528A      7.834018  
     529A      7.863727   530A      7.871187   531A      7.899199  
     532A      7.946188   533A      7.984164   534A      8.060533  
     535A      8.211845   536A      8.378067   537A      8.516317  
     538A      8.520868   539A      8.531721   540A      8.586821  
     541A      8.628556   542A      8.739221   543A      8.769928  
     544A      8.811151   545A      8.865477   546A      8.897616  
     547A      9.012796   548A      9.097910   549A      9.175288  
     550A      9.567863   551A      9.877728   552A     10.013318  
     553A     10.023531   554A     10.035257   555A     10.462282  
     556A     10.527221   557A     10.732814   558A     11.024712  
     559A     11.058913   560A     11.184831   561A     11.318571  
     562A     11.412029   563A     11.464303   564A     11.727859  
     565A     11.834271   566A     11.914803   567A     12.052910  
     568A     12.204125   569A     12.274138   570A     12.574346  
     571A     12.761793   572A     12.903454   573A     12.916586  
     574A     13.230270   575A     14.013874   576A     14.136189  
     577A     14.508212   578A     14.860310   579A     14.910640  
     580A     15.338443   581A     16.993082   582A     17.298227  
     583A     24.793906   584A     26.715114   585A     26.743658  
     586A     26.787910   587A     26.910039   588A     45.673729  

    Final Occupation by Irrep:
              A 
    DOCC [    42 ]

  @DF-RHF Final Energy: -1951.99972055110197

   => Energetics <=

    Nuclear Repulsion Energy =            533.8708318394892558
    One-Electron Energy =               -3760.5974485509518672
    Two-Electron Energy =                1274.7268961603606385
    Total Energy =                      -1951.9997205511019729

Computation Completed


Properties will be evaluated at  -0.000000,  -0.000000,   0.000000 [a0]

Properties computed using the SCF density matrix

  Nuclear Dipole Moment: [e a0]
     X:    -1.7977      Y:     0.6775      Z:     8.5815

  Electronic Dipole Moment: [e a0]
     X:     2.1201      Y:    -1.2395      Z:    -9.0769

  Dipole Moment: [e a0]
     X:     0.3224      Y:    -0.5620      Z:    -0.4954     Total:     0.8156

  Dipole Moment: [D]
     X:     0.8194      Y:    -1.4284      Z:    -1.2591     Total:     2.0730


*** tstop() called on node37.bme.utexas.edu at Tue Feb 22 19:18:36 2022
Module time:
	user time   =     284.15 seconds =       4.74 minutes
	system time =      54.96 seconds =       0.92 minutes
	total time  =        127 seconds =       2.12 minutes
Total time:
	user time   =    1287.27 seconds =      21.45 minutes
	system time =     174.92 seconds =       2.92 minutes
	total time  =        528 seconds =       8.80 minutes

*** tstart() called on node37.bme.utexas.edu
*** at Tue Feb 22 19:18:36 2022


  //>>>>>>>>>>>>>>>>>>>>>>>>>>>>>>>>>>>//
  //               DFMP2               //
  //<<<<<<<<<<<<<<<<<<<<<<<<<<<<<<<<<<<//

   => Loading Basis Set <=

    Name: (AUG-CC-PVQZ AUX)
    Role: RIFIT
    Keyword: DF_BASIS_MP2
    atoms 1-4 entry CL         line   914 file /home/bdw2292/miniconda3/envs/amoebamdpoltype/share/psi4/basis/aug-cc-pvqz-ri.gbs 
    atoms 5   entry C          line   184 file /home/bdw2292/miniconda3/envs/amoebamdpoltype/share/psi4/basis/aug-cc-pvqz-ri.gbs 
    atoms 6   entry O          line   332 file /home/bdw2292/miniconda3/envs/amoebamdpoltype/share/psi4/basis/aug-cc-pvqz-ri.gbs 
    atoms 7-8 entry H          line    30 file /home/bdw2292/miniconda3/envs/amoebamdpoltype/share/psi4/basis/aug-cc-pvqz-ri.gbs 

	 --------------------------------------------------------
	                          DF-MP2                         
	      2nd-Order Density-Fitted Moller-Plesset Theory     
	              RMP2 Wavefunction,   4 Threads             
	                                                         
	        Rob Parrish, Justin Turney, Andy Simmonett,      
	           Ed Hohenstein, and C. David Sherrill          
	 --------------------------------------------------------

   => Auxiliary Basis Set <=

  Basis Set: (AUG-CC-PVQZ AUX)
    Blend: AUG-CC-PVQZ-RI
    Number of shells: 288
    Number of basis function: 1272
    Number of Cartesian functions: 1756
    Spherical Harmonics?: true
    Max angular momentum: 5

	 --------------------------------------------------------
	                 NBF =   588, NAUX =  1272
	 --------------------------------------------------------
	   CLASS    FOCC     OCC    AOCC    AVIR     VIR    FVIR
	   PAIRS      22      42      20     546     546       0
	 --------------------------------------------------------

	-----------------------------------------------------------
	 ==================> DF-MP2 Energies <==================== 
	-----------------------------------------------------------
	 Reference Energy          =   -1951.9997205511019729 [Eh]
	 Singles Energy            =      -0.0000000000000000 [Eh]
	 Same-Spin Energy          =      -0.3223866136689820 [Eh]
	 Opposite-Spin Energy      =      -0.9911096274552292 [Eh]
	 Correlation Energy        =      -1.3134962411242113 [Eh]
	 Total Energy              =   -1953.3132167922262852 [Eh]
	-----------------------------------------------------------
	 ================> DF-SCS-MP2 Energies <================== 
	-----------------------------------------------------------
	 SCS Same-Spin Scale       =       0.3333333333333333 [-]
	 SCS Opposite-Spin Scale   =       1.2000000000000000 [-]
	 SCS Same-Spin Energy      =      -0.1074622045563273 [Eh]
	 SCS Opposite-Spin Energy  =      -1.1893315529462751 [Eh]
	 SCS Correlation Energy    =      -1.2967937575026025 [Eh]
	 SCS Total Energy          =   -1953.2965143086046282 [Eh]
	-----------------------------------------------------------


*** tstop() called on node37.bme.utexas.edu at Tue Feb 22 19:19:06 2022
Module time:
	user time   =      79.53 seconds =       1.33 minutes
	system time =       5.35 seconds =       0.09 minutes
	total time  =         30 seconds =       0.50 minutes
Total time:
	user time   =    1366.80 seconds =      22.78 minutes
	system time =     180.27 seconds =       3.00 minutes
	total time  =        558 seconds =       9.30 minutes

  //>>>>>>>>>>>>>>>>>>>>>>>>>>>>>>>>>>>//
  //  CBS Results: mp2/aug-cc-pV[TQ]Z  //
  //<<<<<<<<<<<<<<<<<<<<<<<<<<<<<<<<<<<//


   ==> HF <==

   HI-zeta (4) Energy:               -1951.999720551102


   ==> Helgaker 2-point correlated extrapolation for method: MP2 <==

   LO-zeta (3) Energy:               -1953.197636098710
   HI-zeta (4) Energy:               -1953.313216792226
   Alpha (exponent) Value:             3.000000000000
   Extrapolated Energy:              -1953.397559460468

   @Extrapolated MP2/(T,Q):          -1953.397559460468



   ==> Helgaker 2-point correlated extrapolation for method: HF <==

   LO-zeta (3) Energy:               -1951.977071269602
   HI-zeta (4) Energy:               -1951.999720551102
   Alpha (exponent) Value:             3.000000000000
   Extrapolated Energy:              -1952.016248405169

   @Extrapolated HF/(T,Q):           -1952.016248405169


   ==> Components <==

  ---------------------------------------------------------------------------------------------------------
                          Method / Basis                      Rqd      Energy [Eh]   Variable
  ---------------------------------------------------------------------------------------------------------
                              hf / aug-cc-pvtz                  *   -1951.97707127   HF TOTAL ENERGY
                             mp2 / aug-cc-pvtz                  *   -1953.19763610   MP2 TOTAL ENERGY
                              hf / aug-cc-pvqz                  *   -1951.99972055   HF TOTAL ENERGY
                             mp2 / aug-cc-pvqz                  *   -1953.31321679   MP2 TOTAL ENERGY
  ---------------------------------------------------------------------------------------------------------

   ==> Stages <==

  ---------------------------------------------------------------------------------------------------------
      Stage               Method / Basis                       Wt      Energy [Eh]   Scheme
  ---------------------------------------------------------------------------------------------------------
        scf                   hf / aug-cc-pvqz                  1   -1951.99972055   xtpl_highest_1
       corl                  mp2 / aug-cc-pv[tq]z               1   -1953.39755946   corl_xtpl_helgaker_2
       corl                   hf / aug-cc-pv[tq]z              -1   -1952.01624841   corl_xtpl_helgaker_2
  ---------------------------------------------------------------------------------------------------------

   ==> CBS <==

  ---------------------------------------------------------------------------------------------------------
      Stage               Method / Basis                               Energy [Eh]   Scheme
  ---------------------------------------------------------------------------------------------------------
        scf                   hf / aug-cc-pvqz                      -1951.99972055   xtpl_highest_1
       corl                  mp2 / aug-cc-pv[tq]z                      -1.38131106   corl_xtpl_helgaker_2
      total                  CBS                                    -1953.38103161   
  ---------------------------------------------------------------------------------------------------------
   => Loading Basis Set <=

    Name: DEF2-SVP
    Role: ORBITAL
    Keyword: BASIS
    atoms 1-4 entry CL         line   356 file /home/bdw2292/miniconda3/envs/amoebamdpoltype/share/psi4/basis/def2-svp.gbs 
    atoms 5   entry C          line    90 file /home/bdw2292/miniconda3/envs/amoebamdpoltype/share/psi4/basis/def2-svp.gbs 
    atoms 6   entry O          line   130 file /home/bdw2292/miniconda3/envs/amoebamdpoltype/share/psi4/basis/def2-svp.gbs 
    atoms 7-8 entry H          line    15 file /home/bdw2292/miniconda3/envs/amoebamdpoltype/share/psi4/basis/def2-svp.gbs 


       N-Body: Complex Energy (fragments = (1, 2), basis = (1, 2): -1953.38103160640048)

   ==> N-Body: Counterpoise Corrected (CP) energies <==

   n-Body     Total Energy [Eh]       I.E. [kcal/mol]      Delta [kcal/mol]
        1    -1953.379232017818        0.000000000000        0.000000000000
        2    -1953.380953295523       -1.080118067158       -1.080118067158

   => Loading Basis Set <=

    Name: DEF2-SVP
    Role: ORBITAL
    Keyword: BASIS
    atoms 1-4 entry CL         line   356 file /home/bdw2292/miniconda3/envs/amoebamdpoltype/share/psi4/basis/def2-svp.gbs 
    atoms 5   entry C          line    90 file /home/bdw2292/miniconda3/envs/amoebamdpoltype/share/psi4/basis/def2-svp.gbs 
    atoms 6   entry O          line   130 file /home/bdw2292/miniconda3/envs/amoebamdpoltype/share/psi4/basis/def2-svp.gbs 
    atoms 7-8 entry H          line    15 file /home/bdw2292/miniconda3/envs/amoebamdpoltype/share/psi4/basis/def2-svp.gbs 

CP Energy =  -0.001721
    Psi4 stopped on: Tuesday, 22 February 2022 07:19PM
    Psi4 wall time for execution: 0:09:19.14

*** Psi4 exiting successfully. Buy a developer a beer!
