
    -----------------------------------------------------------------------
          Psi4: An Open-Source Ab Initio Electronic Structure Package
                               Psi4 1.3.2 release

                         Git: Rev {HEAD} ecbda83 


    R. M. Parrish, L. A. Burns, D. G. A. Smith, A. C. Simmonett,
    A. E. DePrince III, E. G. Hohenstein, U. Bozkaya, A. Yu. Sokolov,
    R. Di Remigio, R. M. Richard, J. F. Gonthier, A. M. James,
    H. R. McAlexander, A. Kumar, M. Saitow, X. Wang, B. P. Pritchard,
    P. Verma, H. F. Schaefer III, K. Patkowski, R. A. King, E. F. Valeev,
    F. A. Evangelista, J. M. Turney, T. D. Crawford, and C. D. Sherrill,
    J. Chem. Theory Comput. 13(7) pp 3185--3197 (2017).
    (doi: 10.1021/acs.jctc.7b00174)


                         Additional Contributions by
    P. Kraus, H. Kruse, M. H. Lechner, M. C. Schieber, R. A. Shaw,
    A. Alenaizan, R. Galvelis, Z. L. Glick, S. Lehtola, and J. P. Misiewicz

    -----------------------------------------------------------------------


    Psi4 started on: Tuesday, 22 February 2022 08:27PM

    Process ID: 5874
    Host:       node37.bme.utexas.edu
    PSIDATADIR: /home/bdw2292/miniconda3/envs/amoebamdpoltype/share/psi4
    Memory:     500.0 MiB
    Threads:    1
    
  ==> Input File <==

--------------------------------------------------------------------------
molecule { 
0 1
 Cl                 -1.5149002    -0.4329419     0.6007099
 Cl                 -1.6714920     1.8711931    -1.1316761
 Cl                 -2.5967290    -0.7042083    -2.0629299
 Cl                  0.2287502    -0.2297564    -1.6989855
  C                 -1.3875751     0.1256205    -1.0727028
--
0 1
 Cl                  0.2208251    -1.3476688     2.8023762
 Cl                  1.7962699     0.1652018     0.9075403
 Cl                  1.0075930    -2.5494056     0.2913371
 Cl                  2.9835202    -2.0460010     2.3369131
  C                  1.5002511    -1.4438147     1.5827148
}
memory 15GB
set_num_threads(4)
psi4_io.set_default_path("/scratch/bdw2292/Psi4-CCl4")
set maxiter 500
set freeze_core True
set PROPERTIES_ORIGIN ["COM"]
e_dim= energy('mp2/aug-cc-pV[TQ]Z',bsse_type='cp')

psi4.print_out('CP Energy = %10.6f' % (e_dim))
clean()
--------------------------------------------------------------------------

  Memory set to  13.970 GiB by Python driver.
  Threads set to 4 by Python driver.


   ===> N-Body Interaction Abacus <===
        BSSE Treatment:                     cp
        Number of 1-body computations:     4
        Number of 2-body computations:     1

   ==> N-Body: Now computing 1-body complexes <==


       N-Body: Computing complex (1/4) with fragments (2,) in the basis of fragments (2,).


  //>>>>>>>>>>>>>>>>>>>>>>>>>>>>>>>>>>>//
  //   CBS Setup: mp2/aug-cc-pV[TQ]Z   //
  //<<<<<<<<<<<<<<<<<<<<<<<<<<<<<<<<<<<//

    Naive listing of computations required.
             hf / aug-cc-pvqz              for  HF TOTAL ENERGY
            mp2 / aug-cc-pvtz              for  MP2 TOTAL ENERGY
            mp2 / aug-cc-pvqz              for  MP2 TOTAL ENERGY
             hf / aug-cc-pvtz              for  HF TOTAL ENERGY
             hf / aug-cc-pvqz              for  HF TOTAL ENERGY

    Enlightened listing of computations required.
            mp2 / aug-cc-pvtz              for  MP2 TOTAL ENERGY
            mp2 / aug-cc-pvqz              for  MP2 TOTAL ENERGY

    Full listing of computations to be obtained (required and bonus).
             hf / aug-cc-pvtz              for  HF TOTAL ENERGY
            mp2 / aug-cc-pvtz              for  MP2 TOTAL ENERGY
             hf / aug-cc-pvqz              for  HF TOTAL ENERGY
            mp2 / aug-cc-pvqz              for  MP2 TOTAL ENERGY

  //>>>>>>>>>>>>>>>>>>>>>>>>>>>>>>>>>>>>//
  // CBS Computation: MP2 / AUG-CC-PVTZ //
  //<<<<<<<<<<<<<<<<<<<<<<<<<<<<<<<<<<<<//

    SCF Algorithm Type (re)set to DF.

*** tstart() called on node37.bme.utexas.edu
*** at Tue Feb 22 20:27:47 2022

   => Loading Basis Set <=

    Name: AUG-CC-PVTZ
    Role: ORBITAL
    Keyword: BASIS
    atoms 1-4 entry CL         line   984 file /home/bdw2292/miniconda3/envs/amoebamdpoltype/share/psi4/basis/aug-cc-pvtz.gbs 
    atoms 5   entry C          line   235 file /home/bdw2292/miniconda3/envs/amoebamdpoltype/share/psi4/basis/aug-cc-pvtz.gbs 


         ---------------------------------------------------------
                                   SCF
               by Justin Turney, Rob Parrish, Andy Simmonett
                          and Daniel G. A. Smith
                              RHF Reference
                        4 Threads,  14305 MiB Core
         ---------------------------------------------------------

  ==> Geometry <==

    Molecular point group: c1
    Full point group: C1

    Geometry (in Angstrom), charge = 0, multiplicity = 1:

       Center              X                  Y                   Z               Mass       
    ------------   -----------------  -----------------  -----------------  -----------------
         CL           0.164126395101    -0.688478415441     2.546767286805    34.968852682000
         CL           1.739571195101     0.824392184559     0.651931386805    34.968852682000
         CL           0.950894295101    -1.890215215441     0.035728186805    34.968852682000
         CL           2.926821495101    -1.386810615441     2.081304186805    34.968852682000
         C            1.443552395101    -0.784624315441     1.327105886805    12.000000000000

  Running in c1 symmetry.

  Rotational constants: A =      0.05763  B =      0.01736  C =      0.01736 [cm^-1]
  Rotational constants: A =   1727.68791  B =    520.57800  C =    520.43934 [MHz]
  Nuclear repulsion =  439.464152173944910

  Charge       = 0
  Multiplicity = 1
  Electrons    = 74
  Nalpha       = 37
  Nbeta        = 37

  ==> Algorithm <==

  SCF Algorithm Type is DF.
  DIIS enabled.
  MOM disabled.
  Fractional occupation disabled.
  Guess Type is SAD.
  Energy threshold   = 1.00e-08
  Density threshold  = 1.00e-08
  Integral threshold = 0.00e+00

  ==> Primary Basis <==

  Basis Set: AUG-CC-PVTZ
    Blend: AUG-CC-PVTZ
    Number of shells: 78
    Number of basis function: 246
    Number of Cartesian functions: 291
    Spherical Harmonics?: true
    Max angular momentum: 3

   => Loading Basis Set <=

    Name: (AUG-CC-PVTZ AUX)
    Role: JKFIT
    Keyword: DF_BASIS_SCF
    atoms 1-4 entry CL         line   816 file /home/bdw2292/miniconda3/envs/amoebamdpoltype/share/psi4/basis/aug-cc-pvtz-jkfit.gbs 
    atoms 5   entry C          line   162 file /home/bdw2292/miniconda3/envs/amoebamdpoltype/share/psi4/basis/aug-cc-pvtz-jkfit.gbs 

  ==> Pre-Iterations <==

   -------------------------------------------------------
    Irrep   Nso     Nmo     Nalpha   Nbeta   Ndocc  Nsocc
   -------------------------------------------------------
     A        246     246       0       0       0       0
   -------------------------------------------------------
    Total     246     246      37      37      37       0
   -------------------------------------------------------

  ==> Integral Setup <==

  DFHelper Memory: AOs need 0.328 GiB; user supplied 10.477 GiB. Using in-core AOs.

  ==> MemDFJK: Density-Fitted J/K Matrices <==

    J tasked:                   Yes
    K tasked:                   Yes
    wK tasked:                   No
    OpenMP threads:               4
    Memory [MiB]:             10728
    Algorithm:                 Core
    Schwarz Cutoff:           1E-12
    Mask sparsity (%):       0.0000
    Fitting Condition:        1E-10

   => Auxiliary Basis Set <=

  Basis Set: (AUG-CC-PVTZ AUX)
    Blend: AUG-CC-PVTZ-JKFIT
    Number of shells: 198
    Number of basis function: 688
    Number of Cartesian functions: 851
    Spherical Harmonics?: true
    Max angular momentum: 4

  Minimum eigenvalue in the overlap matrix is 8.0653697369E-05.
  Using Symmetric Orthogonalization.

  SCF Guess: Superposition of Atomic Densities via on-the-fly atomic UHF.

  ==> Iterations <==

                           Total Energy        Delta E     RMS |[F,P]|

   @DF-RHF iter SAD: -1875.94739075821053   -1.87595e+03   0.00000e+00 
   @DF-RHF iter   1: -1875.79715760422368    1.50233e-01   1.87152e-03 DIIS
   @DF-RHF iter   2: -1875.83576534449276   -3.86077e-02   1.72633e-03 DIIS
   @DF-RHF iter   3: -1875.91353992365771   -7.77746e-02   1.84940e-04 DIIS
   @DF-RHF iter   4: -1875.91602064367999   -2.48072e-03   6.47784e-05 DIIS
   @DF-RHF iter   5: -1875.91635362332318   -3.32980e-04   1.31615e-05 DIIS
   @DF-RHF iter   6: -1875.91636982837235   -1.62050e-05   2.18486e-06 DIIS
   @DF-RHF iter   7: -1875.91637003810069   -2.09728e-07   2.46482e-07 DIIS
   @DF-RHF iter   8: -1875.91637004249014   -4.38945e-09   5.71601e-08 DIIS
   @DF-RHF iter   9: -1875.91637004270592   -2.15778e-10   1.87947e-08 DIIS
   @DF-RHF iter  10: -1875.91637004272548   -1.95541e-11   4.96382e-09 DIIS
  Energy and wave function converged.


  ==> Post-Iterations <==

    Orbital Energies [Eh]
    ---------------------

    Doubly Occupied:                                                      

       1A   -104.878877     2A   -104.878829     3A   -104.878715  
       4A   -104.878430     5A    -11.499720     6A    -10.603289  
       7A    -10.603245     8A    -10.603132     9A    -10.602885  
      10A     -8.070056    11A     -8.070013    12A     -8.069900  
      13A     -8.069652    14A     -8.067767    15A     -8.067767  
      16A     -8.067724    17A     -8.067724    18A     -8.067612  
      19A     -8.067612    20A     -8.067363    21A     -8.067363  
      22A     -1.282453    23A     -1.128490    24A     -1.128321  
      25A     -1.128008    26A     -0.834212    27A     -0.658325  
      28A     -0.658219    29A     -0.657991    30A     -0.532336  
      31A     -0.532274    32A     -0.489353    33A     -0.489212  
      34A     -0.488881    35A     -0.461024    36A     -0.460755  
      37A     -0.460677  

    Virtual:                                                              

      38A      0.047763    39A      0.070249    40A      0.070269  
      41A      0.070317    42A      0.086441    43A      0.107621  
      44A      0.107650    45A      0.107683    46A      0.120442  
      47A      0.120448    48A      0.161707    49A      0.161747  
      50A      0.161761    51A      0.181007    52A      0.181190  
      53A      0.181307    54A      0.192729    55A      0.192964  
      56A      0.193031    57A      0.211263    58A      0.260136  
      59A      0.260328    60A      0.260379    61A      0.267966  
      62A      0.318119    63A      0.318209    64A      0.318592  
      65A      0.351898    66A      0.351934    67A      0.393880  
      68A      0.394037    69A      0.394063    70A      0.414689  
      71A      0.414723    72A      0.430223    73A      0.430429  
      74A      0.430518    75A      0.498936    76A      0.499076  
      77A      0.499124    78A      0.518118    79A      0.518132  
      80A      0.518204    81A      0.521142    82A      0.523858  
      83A      0.523921    84A      0.572406    85A      0.572441  
      86A      0.572453    87A      0.734350    88A      0.745338  
      89A      0.745663    90A      0.745725    91A      0.785950  
      92A      0.786093    93A      0.786139    94A      0.817415  
      95A      0.817470    96A      0.819988    97A      0.820418  
      98A      0.820465    99A      0.830404   100A      0.831042  
     101A      0.831187   102A      0.845040   103A      0.872120  
     104A      0.872133   105A      0.872175   106A      0.904719  
     107A      0.904788   108A      0.904816   109A      0.940050  
     110A      0.940082   111A      0.957224   112A      0.957482  
     113A      0.957568   114A      1.048943   115A      1.050568  
     116A      1.051147   117A      1.051392   118A      1.081613  
     119A      1.081634   120A      1.126670   121A      1.126825  
     122A      1.127342   123A      1.128619   124A      1.161675  
     125A      1.161854   126A      1.161958   127A      1.210545  
     128A      1.211023   129A      1.211178   130A      1.314792  
     131A      1.314912   132A      1.315445   133A      1.322735  
     134A      1.322955   135A      1.342700   136A      1.511477  
     137A      1.511772   138A      1.518115   139A      1.518648  
     140A      1.518747   141A      1.564648   142A      1.564719  
     143A      1.564751   144A      1.661067   145A      1.661607  
     146A      1.663447   147A      1.673997   148A      1.746148  
     149A      1.746548   150A      1.746666   151A      1.759356  
     152A      1.759672   153A      1.759854   154A      1.874151  
     155A      1.874486   156A      1.875088   157A      1.875487  
     158A      1.888308   159A      1.889185   160A      1.889375  
     161A      1.906617   162A      1.906690   163A      1.992682  
     164A      1.992761   165A      1.993249   166A      2.274255  
     167A      2.500402   168A      2.500466   169A      2.579336  
     170A      2.580106   171A      2.580345   172A      2.586885  
     173A      2.586992   174A      2.587055   175A      2.611730  
     176A      2.611862   177A      2.613830   178A      2.613946  
     179A      2.614024   180A      2.685616   181A      2.697456  
     182A      2.697515   183A      2.697532   184A      2.717455  
     185A      2.719239   186A      2.719626   187A      2.904655  
     188A      2.904770   189A      2.905274   190A      2.984936  
     191A      2.985050   192A      2.985100   193A      3.029587  
     194A      3.035086   195A      3.035200   196A      3.073288  
     197A      3.073536   198A      3.074219   199A      3.084515  
     200A      3.085511   201A      3.088584   202A      3.096577  
     203A      3.096664   204A      3.096705   205A      3.122713  
     206A      3.140368   207A      3.148256   208A      3.148567  
     209A      3.149762   210A      3.206935   211A      3.207281  
     212A      3.207491   213A      3.215292   214A      3.215316  
     215A      3.242959   216A      3.243143   217A      3.243197  
     218A      3.348346   219A      3.349182   220A      3.349473  
     221A      3.427750   222A      3.427979   223A      3.428366  
     224A      3.535393   225A      3.535643   226A      3.771370  
     227A      3.771546   228A      3.771811   229A      3.873732  
     230A      4.006600   231A      4.007113   232A      4.008256  
     233A      4.107461   234A      4.108015   235A      4.297633  
     236A      4.297733   237A      4.297875   238A      4.723834  
     239A      4.724203   240A      4.724445   241A      4.848036  
     242A      6.591877   243A      7.634913   244A      7.636341  
     245A      7.642480   246A     10.773356  

    Final Occupation by Irrep:
              A 
    DOCC [    37 ]

  @DF-RHF Final Energy: -1875.91637004272548

   => Energetics <=

    Nuclear Repulsion Energy =            439.4641521739449104
    One-Electron Energy =               -3467.4846315159793448
    Two-Electron Energy =                1152.1041092993089023
    Total Energy =                      -1875.9163700427254753

Computation Completed


Properties will be evaluated at   2.731053,  -1.483863,   2.511046 [a0]

Properties computed using the SCF density matrix

  Nuclear Dipole Moment: [e a0]
     X:    -0.0005      Y:     0.0002      Z:    -0.0005

  Electronic Dipole Moment: [e a0]
     X:    -0.0005      Y:     0.0003      Z:    -0.0012

  Dipole Moment: [e a0]
     X:    -0.0011      Y:     0.0005      Z:    -0.0017     Total:     0.0021

  Dipole Moment: [D]
     X:    -0.0027      Y:     0.0013      Z:    -0.0044     Total:     0.0053


*** tstop() called on node37.bme.utexas.edu at Tue Feb 22 20:27:52 2022
Module time:
	user time   =      16.80 seconds =       0.28 minutes
	system time =       1.07 seconds =       0.02 minutes
	total time  =          5 seconds =       0.08 minutes
Total time:
	user time   =      16.80 seconds =       0.28 minutes
	system time =       1.07 seconds =       0.02 minutes
	total time  =          5 seconds =       0.08 minutes

*** tstart() called on node37.bme.utexas.edu
*** at Tue Feb 22 20:27:52 2022


  //>>>>>>>>>>>>>>>>>>>>>>>>>>>>>>>>>>>//
  //               DFMP2               //
  //<<<<<<<<<<<<<<<<<<<<<<<<<<<<<<<<<<<//

   => Loading Basis Set <=

    Name: (AUG-CC-PVTZ AUX)
    Role: RIFIT
    Keyword: DF_BASIS_MP2
    atoms 1-4 entry CL         line   742 file /home/bdw2292/miniconda3/envs/amoebamdpoltype/share/psi4/basis/aug-cc-pvtz-ri.gbs 
    atoms 5   entry C          line   148 file /home/bdw2292/miniconda3/envs/amoebamdpoltype/share/psi4/basis/aug-cc-pvtz-ri.gbs 

	 --------------------------------------------------------
	                          DF-MP2                         
	      2nd-Order Density-Fitted Moller-Plesset Theory     
	              RMP2 Wavefunction,   4 Threads             
	                                                         
	        Rob Parrish, Justin Turney, Andy Simmonett,      
	           Ed Hohenstein, and C. David Sherrill          
	 --------------------------------------------------------

   => Auxiliary Basis Set <=

  Basis Set: (AUG-CC-PVTZ AUX)
    Blend: AUG-CC-PVTZ-RI
    Number of shells: 176
    Number of basis function: 694
    Number of Cartesian functions: 900
    Spherical Harmonics?: true
    Max angular momentum: 4

	 --------------------------------------------------------
	                 NBF =   246, NAUX =   694
	 --------------------------------------------------------
	   CLASS    FOCC     OCC    AOCC    AVIR     VIR    FVIR
	   PAIRS      21      37      16     209     209       0
	 --------------------------------------------------------

	-----------------------------------------------------------
	 ==================> DF-MP2 Energies <==================== 
	-----------------------------------------------------------
	 Reference Energy          =   -1875.9163700427254753 [Eh]
	 Singles Energy            =      -0.0000000000000000 [Eh]
	 Same-Spin Energy          =      -0.2463651756915086 [Eh]
	 Opposite-Spin Energy      =      -0.7042355718056967 [Eh]
	 Correlation Energy        =      -0.9506007474972054 [Eh]
	 Total Energy              =   -1876.8669707902226946 [Eh]
	-----------------------------------------------------------
	 ================> DF-SCS-MP2 Energies <================== 
	-----------------------------------------------------------
	 SCS Same-Spin Scale       =       0.3333333333333333 [-]
	 SCS Opposite-Spin Scale   =       1.2000000000000000 [-]
	 SCS Same-Spin Energy      =      -0.0821217252305029 [Eh]
	 SCS Opposite-Spin Energy  =      -0.8450826861668360 [Eh]
	 SCS Correlation Energy    =      -0.9272044113973389 [Eh]
	 SCS Total Energy          =   -1876.8435744541227450 [Eh]
	-----------------------------------------------------------


*** tstop() called on node37.bme.utexas.edu at Tue Feb 22 20:27:54 2022
Module time:
	user time   =       6.95 seconds =       0.12 minutes
	system time =       0.42 seconds =       0.01 minutes
	total time  =          2 seconds =       0.03 minutes
Total time:
	user time   =      23.75 seconds =       0.40 minutes
	system time =       1.49 seconds =       0.02 minutes
	total time  =          7 seconds =       0.12 minutes

  //>>>>>>>>>>>>>>>>>>>>>>>>>>>>>>>>>>>>//
  // CBS Computation: MP2 / AUG-CC-PVQZ //
  //<<<<<<<<<<<<<<<<<<<<<<<<<<<<<<<<<<<<//

    SCF Algorithm Type (re)set to DF.

*** tstart() called on node37.bme.utexas.edu
*** at Tue Feb 22 20:27:54 2022

   => Loading Basis Set <=

    Name: AUG-CC-PVQZ
    Role: ORBITAL
    Keyword: BASIS
    atoms 1-4 entry CL         line  1218 file /home/bdw2292/miniconda3/envs/amoebamdpoltype/share/psi4/basis/aug-cc-pvqz.gbs 
    atoms 5   entry C          line   299 file /home/bdw2292/miniconda3/envs/amoebamdpoltype/share/psi4/basis/aug-cc-pvqz.gbs 


         ---------------------------------------------------------
                                   SCF
               by Justin Turney, Rob Parrish, Andy Simmonett
                          and Daniel G. A. Smith
                              RHF Reference
                        4 Threads,  14305 MiB Core
         ---------------------------------------------------------

  ==> Geometry <==

    Molecular point group: c1
    Full point group: C1

    Geometry (in Angstrom), charge = 0, multiplicity = 1:

       Center              X                  Y                   Z               Mass       
    ------------   -----------------  -----------------  -----------------  -----------------
         CL           0.164126395101    -0.688478415441     2.546767286805    34.968852682000
         CL           1.739571195101     0.824392184559     0.651931386805    34.968852682000
         CL           0.950894295101    -1.890215215441     0.035728186805    34.968852682000
         CL           2.926821495101    -1.386810615441     2.081304186805    34.968852682000
         C            1.443552395101    -0.784624315441     1.327105886805    12.000000000000

  Running in c1 symmetry.

  Rotational constants: A =      0.05763  B =      0.01736  C =      0.01736 [cm^-1]
  Rotational constants: A =   1727.68791  B =    520.57800  C =    520.43934 [MHz]
  Nuclear repulsion =  439.464152173944910

  Charge       = 0
  Multiplicity = 1
  Electrons    = 74
  Nalpha       = 37
  Nbeta        = 37

  ==> Algorithm <==

  SCF Algorithm Type is DF.
  DIIS enabled.
  MOM disabled.
  Fractional occupation disabled.
  Guess Type is SAD.
  Energy threshold   = 1.00e-08
  Density threshold  = 1.00e-08
  Integral threshold = 0.00e+00

  ==> Primary Basis <==

  Basis Set: AUG-CC-PVQZ
    Blend: AUG-CC-PVQZ
    Number of shells: 108
    Number of basis function: 416
    Number of Cartesian functions: 541
    Spherical Harmonics?: true
    Max angular momentum: 4

   => Loading Basis Set <=

    Name: (AUG-CC-PVQZ AUX)
    Role: JKFIT
    Keyword: DF_BASIS_SCF
    atoms 1-4 entry CL         line   904 file /home/bdw2292/miniconda3/envs/amoebamdpoltype/share/psi4/basis/aug-cc-pvqz-jkfit.gbs 
    atoms 5   entry C          line   178 file /home/bdw2292/miniconda3/envs/amoebamdpoltype/share/psi4/basis/aug-cc-pvqz-jkfit.gbs 

  ==> Pre-Iterations <==

   -------------------------------------------------------
    Irrep   Nso     Nmo     Nalpha   Nbeta   Ndocc  Nsocc
   -------------------------------------------------------
     A        416     416       0       0       0       0
   -------------------------------------------------------
    Total     416     416      37      37      37       0
   -------------------------------------------------------

  ==> Integral Setup <==

  DFHelper Memory: AOs need 1.181 GiB; user supplied 10.477 GiB. Using in-core AOs.

  ==> MemDFJK: Density-Fitted J/K Matrices <==

    J tasked:                   Yes
    K tasked:                   Yes
    wK tasked:                   No
    OpenMP threads:               4
    Memory [MiB]:             10728
    Algorithm:                 Core
    Schwarz Cutoff:           1E-12
    Mask sparsity (%):       0.4253
    Fitting Condition:        1E-10

   => Auxiliary Basis Set <=

  Basis Set: (AUG-CC-PVQZ AUX)
    Blend: AUG-CC-PVQZ-JKFIT
    Number of shells: 218
    Number of basis function: 878
    Number of Cartesian functions: 1186
    Spherical Harmonics?: true
    Max angular momentum: 5

  Minimum eigenvalue in the overlap matrix is 1.3117248311E-05.
  Using Symmetric Orthogonalization.

  SCF Guess: Superposition of Atomic Densities via on-the-fly atomic UHF.

  ==> Iterations <==

                           Total Energy        Delta E     RMS |[F,P]|

   @DF-RHF iter SAD: -1875.95817408570406   -1.87596e+03   0.00000e+00 
   @DF-RHF iter   1: -1875.81433950419932    1.43835e-01   1.13073e-03 DIIS
   @DF-RHF iter   2: -1875.85328984147532   -3.89503e-02   1.03612e-03 DIIS
   @DF-RHF iter   3: -1875.93068907835209   -7.73992e-02   1.16246e-04 DIIS
   @DF-RHF iter   4: -1875.93324063264072   -2.55155e-03   4.23326e-05 DIIS
   @DF-RHF iter   5: -1875.93365689175289   -4.16259e-04   8.49140e-06 DIIS
   @DF-RHF iter   6: -1875.93367537553058   -1.84838e-05   1.39750e-06 DIIS
   @DF-RHF iter   7: -1875.93367561251171   -2.36981e-07   1.74839e-07 DIIS
   @DF-RHF iter   8: -1875.93367561849414   -5.98243e-09   4.11583e-08 DIIS
   @DF-RHF iter   9: -1875.93367561881223   -3.18096e-10   1.29808e-08 DIIS
   @DF-RHF iter  10: -1875.93367561884111   -2.88765e-11   3.78639e-09 DIIS
  Energy and wave function converged.


  ==> Post-Iterations <==

    Orbital Energies [Eh]
    ---------------------

    Doubly Occupied:                                                      

       1A   -104.876387     2A   -104.876339     3A   -104.876226  
       4A   -104.875942     5A    -11.496963     6A    -10.602042  
       7A    -10.601998     8A    -10.601886     9A    -10.601639  
      10A     -8.069013    11A     -8.068970    12A     -8.068857  
      13A     -8.068610    14A     -8.066917    15A     -8.066916  
      16A     -8.066874    17A     -8.066874    18A     -8.066762  
      19A     -8.066761    20A     -8.066513    21A     -8.066513  
      22A     -1.281360    23A     -1.127772    24A     -1.127603  
      25A     -1.127291    26A     -0.833865    27A     -0.658094  
      28A     -0.657989    29A     -0.657760    30A     -0.532041  
      31A     -0.531979    32A     -0.489044    33A     -0.488903  
      34A     -0.488572    35A     -0.460758    36A     -0.460489  
      37A     -0.460411  

    Virtual:                                                              

      38A      0.040100    39A      0.057973    40A      0.057990  
      41A      0.058028    42A      0.083893    43A      0.091776  
      44A      0.091793    45A      0.091802    46A      0.096212  
      47A      0.096216    48A      0.136296    49A      0.136317  
      50A      0.136327    51A      0.159605    52A      0.159944  
      53A      0.160104    54A      0.168416    55A      0.168436  
      56A      0.168512    57A      0.177043    58A      0.215151  
      59A      0.215277    60A      0.215307    61A      0.230039  
      62A      0.255418    63A      0.255459    64A      0.255696  
      65A      0.295646    66A      0.295665    67A      0.316619  
      68A      0.316661    69A      0.326469    70A      0.326923  
      71A      0.327055    72A      0.350595    73A      0.350658  
      74A      0.350695    75A      0.360033    76A      0.360196  
      77A      0.360731    78A      0.369654    79A      0.369665  
      80A      0.369684    81A      0.383450    82A      0.433240  
      83A      0.433265    84A      0.449852    85A      0.449866  
      86A      0.449882    87A      0.552149    88A      0.558629  
      89A      0.558786    90A      0.559288    91A      0.578705  
      92A      0.578725    93A      0.581224    94A      0.581341  
      95A      0.581362    96A      0.600131    97A      0.600538  
      98A      0.600635    99A      0.604219   100A      0.604495  
     101A      0.604557   102A      0.634642   103A      0.648008  
     104A      0.648829   105A      0.649094   106A      0.683654  
     107A      0.683688   108A      0.683747   109A      0.685659  
     110A      0.685677   111A      0.737666   112A      0.738162  
     113A      0.738283   114A      0.790587   115A      0.790594  
     116A      0.802190   117A      0.809766   118A      0.810059  
     119A      0.810175   120A      0.874573   121A      0.874636  
     122A      0.874727   123A      0.879177   124A      0.880612  
     125A      0.880657   126A      0.880733   127A      0.931849  
     128A      0.931906   129A      0.932106   130A      1.025739  
     131A      1.039017   132A      1.039056   133A      1.039132  
     134A      1.087835   135A      1.087849   136A      1.106361  
     137A      1.106484   138A      1.106743   139A      1.121361  
     140A      1.121366   141A      1.131993   142A      1.154646  
     143A      1.154796   144A      1.154837   145A      1.173952  
     146A      1.174089   147A      1.174597   148A      1.198049  
     149A      1.198139   150A      1.198186   151A      1.241177  
     152A      1.241238   153A      1.241286   154A      1.271693  
     155A      1.272252   156A      1.272378   157A      1.272740  
     158A      1.295604   159A      1.296095   160A      1.296226  
     161A      1.363771   162A      1.430311   163A      1.430358  
     164A      1.430434   165A      1.458287   166A      1.458422  
     167A      1.643856   168A      1.643977   169A      1.644520  
     170A      1.675378   171A      1.675381   172A      1.766597  
     173A      1.766693   174A      1.766854   175A      1.771913  
     176A      1.772065   177A      1.772512   178A      1.772949  
     179A      1.773102   180A      1.784384   181A      1.784469  
     182A      1.784526   183A      1.794838   184A      1.848821  
     185A      1.849259   186A      1.849375   187A      1.899765  
     188A      1.899784   189A      1.899802   190A      1.929278  
     191A      1.929459   192A      1.955084   193A      1.955570  
     194A      1.955653   195A      1.992724   196A      1.992746  
     197A      2.020243   198A      2.020637   199A      2.021807  
     200A      2.026633   201A      2.050332   202A      2.050580  
     203A      2.050629   204A      2.096634   205A      2.096945  
     206A      2.097019   207A      2.099330   208A      2.112693  
     209A      2.112918   210A      2.122171   211A      2.122320  
     212A      2.122368   213A      2.184658   214A      2.184842  
     215A      2.185548   216A      2.192057   217A      2.224916  
     218A      2.225857   219A      2.226105   220A      2.238901  
     221A      2.239164   222A      2.240094   223A      2.273003  
     224A      2.273087   225A      2.273123   226A      2.276568  
     227A      2.277145   228A      2.277294   229A      2.311824  
     230A      2.311899   231A      2.311981   232A      2.370653  
     233A      2.380004   234A      2.380042   235A      2.468157  
     236A      2.468546   237A      2.469394   238A      2.469709  
     239A      2.471380   240A      2.471582   241A      2.471622  
     242A      2.516714   243A      2.522709   244A      2.522811  
     245A      2.523479   246A      2.530884   247A      2.530923  
     248A      2.588433   249A      2.643813   250A      2.644129  
     251A      2.644282   252A      2.655010   253A      2.655304  
     254A      2.656759   255A      2.800575   256A      2.801726  
     257A      2.802163   258A      2.856570   259A      2.886845  
     260A      2.888799   261A      2.889247   262A      2.969188  
     263A      2.969264   264A      2.971583   265A      2.972493  
     266A      2.972700   267A      3.236629   268A      3.237350  
     269A      3.237785   270A      3.238094   271A      3.238846  
     272A      3.239808   273A      3.403851   274A      3.403929  
     275A      3.431101   276A      3.431208   277A      3.431869  
     278A      3.454615   279A      3.454788   280A      3.500276  
     281A      3.521079   282A      3.521324   283A      3.521441  
     284A      3.591126   285A      3.591370   286A      3.591881  
     287A      3.725200   288A      3.968781   289A      3.969464  
     290A      3.972013   291A      4.187373   292A      4.355169  
     293A      4.355309   294A      4.455352   295A      4.456596  
     296A      4.456969   297A      4.479140   298A      4.479174  
     299A      4.488509   300A      4.489288   301A      4.489432  
     302A      4.617770   303A      4.617833   304A      4.618001  
     305A      4.679432   306A      4.679572   307A      4.679935  
     308A      4.701564   309A      4.702151   310A      4.702305  
     311A      4.709705   312A      4.709969   313A      4.710119  
     314A      4.740773   315A      4.741407   316A      4.741641  
     317A      4.747728   318A      4.752591   319A      4.769455  
     320A      4.769578   321A      4.777227   322A      4.777774  
     323A      4.777927   324A      4.784416   325A      4.784493  
     326A      4.784639   327A      4.797508   328A      4.797713  
     329A      4.832116   330A      4.851115   331A      4.852016  
     332A      4.852322   333A      4.857687   334A      4.858286  
     335A      4.858463   336A      4.875547   337A      4.876159  
     338A      4.878277   339A      4.909862   340A      4.909898  
     341A      4.946837   342A      4.946879   343A      4.946964  
     344A      4.950959   345A      4.950989   346A      4.951131  
     347A      4.975784   348A      4.975906   349A      4.976139  
     350A      4.998948   351A      5.038941   352A      5.039593  
     353A      5.039724   354A      5.057770   355A      5.089404  
     356A      5.090333   357A      5.090552   358A      5.167403  
     359A      5.167490   360A      5.268192   361A      5.293271  
     362A      5.293546   363A      5.293911   364A      5.356258  
     365A      5.359659   366A      5.360516   367A      5.421335  
     368A      5.421401   369A      5.421915   370A      5.447315  
     371A      5.447628   372A      5.603016   373A      5.604423  
     374A      5.608971   375A      5.799103   376A      6.595678  
     377A      6.649088   378A      6.649469   379A      6.651149  
     380A      6.686464   381A      6.687448   382A      6.687632  
     383A      6.763722   384A      6.763885   385A      6.823467  
     386A      6.823643   387A      6.823909   388A      6.870060  
     389A      6.870334   390A      6.870594   391A      7.113378  
     392A      7.113413   393A      7.204269   394A      7.204589  
     395A      7.204778   396A      7.282128   397A      7.282527  
     398A      7.282782   399A      7.336274   400A      7.336338  
     401A      7.545834   402A      7.740933   403A      7.741416  
     404A      7.742724   405A      7.825855   406A      7.826460  
     407A      7.827622   408A      8.521096   409A      8.522384  
     410A      8.522519   411A      8.660301   412A     24.674380  
     413A     26.675107   414A     26.676221   415A     26.682895  
     416A     26.803220  

    Final Occupation by Irrep:
              A 
    DOCC [    37 ]

  @DF-RHF Final Energy: -1875.93367561884111

   => Energetics <=

    Nuclear Repulsion Energy =            439.4641521739449104
    One-Electron Energy =               -3467.5897885760978170
    Two-Electron Energy =                1152.1919607833117425
    Total Energy =                      -1875.9336756188411073

Computation Completed


Properties will be evaluated at   2.731053,  -1.483863,   2.511046 [a0]

Properties computed using the SCF density matrix

  Nuclear Dipole Moment: [e a0]
     X:    -0.0005      Y:     0.0002      Z:    -0.0005

  Electronic Dipole Moment: [e a0]
     X:    -0.0005      Y:     0.0003      Z:    -0.0012

  Dipole Moment: [e a0]
     X:    -0.0011      Y:     0.0005      Z:    -0.0017     Total:     0.0021

  Dipole Moment: [D]
     X:    -0.0027      Y:     0.0013      Z:    -0.0044     Total:     0.0053


*** tstop() called on node37.bme.utexas.edu at Tue Feb 22 20:28:11 2022
Module time:
	user time   =      54.31 seconds =       0.91 minutes
	system time =       2.93 seconds =       0.05 minutes
	total time  =         17 seconds =       0.28 minutes
Total time:
	user time   =      78.10 seconds =       1.30 minutes
	system time =       4.42 seconds =       0.07 minutes
	total time  =         24 seconds =       0.40 minutes

*** tstart() called on node37.bme.utexas.edu
*** at Tue Feb 22 20:28:11 2022


  //>>>>>>>>>>>>>>>>>>>>>>>>>>>>>>>>>>>//
  //               DFMP2               //
  //<<<<<<<<<<<<<<<<<<<<<<<<<<<<<<<<<<<//

   => Loading Basis Set <=

    Name: (AUG-CC-PVQZ AUX)
    Role: RIFIT
    Keyword: DF_BASIS_MP2
    atoms 1-4 entry CL         line   914 file /home/bdw2292/miniconda3/envs/amoebamdpoltype/share/psi4/basis/aug-cc-pvqz-ri.gbs 
    atoms 5   entry C          line   184 file /home/bdw2292/miniconda3/envs/amoebamdpoltype/share/psi4/basis/aug-cc-pvqz-ri.gbs 

	 --------------------------------------------------------
	                          DF-MP2                         
	      2nd-Order Density-Fitted Moller-Plesset Theory     
	              RMP2 Wavefunction,   4 Threads             
	                                                         
	        Rob Parrish, Justin Turney, Andy Simmonett,      
	           Ed Hohenstein, and C. David Sherrill          
	 --------------------------------------------------------

   => Auxiliary Basis Set <=

  Basis Set: (AUG-CC-PVQZ AUX)
    Blend: AUG-CC-PVQZ-RI
    Number of shells: 212
    Number of basis function: 944
    Number of Cartesian functions: 1309
    Spherical Harmonics?: true
    Max angular momentum: 5

	 --------------------------------------------------------
	                 NBF =   416, NAUX =   944
	 --------------------------------------------------------
	   CLASS    FOCC     OCC    AOCC    AVIR     VIR    FVIR
	   PAIRS      21      37      16     379     379       0
	 --------------------------------------------------------

	-----------------------------------------------------------
	 ==================> DF-MP2 Energies <==================== 
	-----------------------------------------------------------
	 Reference Energy          =   -1875.9336756188411073 [Eh]
	 Singles Energy            =      -0.0000000000000000 [Eh]
	 Same-Spin Energy          =      -0.2544183617018794 [Eh]
	 Opposite-Spin Energy      =      -0.7716646447287607 [Eh]
	 Correlation Energy        =      -1.0260830064306401 [Eh]
	 Total Energy              =   -1876.9597586252716610 [Eh]
	-----------------------------------------------------------
	 ================> DF-SCS-MP2 Energies <================== 
	-----------------------------------------------------------
	 SCS Same-Spin Scale       =       0.3333333333333333 [-]
	 SCS Opposite-Spin Scale   =       1.2000000000000000 [-]
	 SCS Same-Spin Energy      =      -0.0848061205672931 [Eh]
	 SCS Opposite-Spin Energy  =      -0.9259975736745129 [Eh]
	 SCS Correlation Energy    =      -1.0108036942418059 [Eh]
	 SCS Total Energy          =   -1876.9444793130828657 [Eh]
	-----------------------------------------------------------


*** tstop() called on node37.bme.utexas.edu at Tue Feb 22 20:28:18 2022
Module time:
	user time   =      22.18 seconds =       0.37 minutes
	system time =       1.33 seconds =       0.02 minutes
	total time  =          7 seconds =       0.12 minutes
Total time:
	user time   =     100.29 seconds =       1.67 minutes
	system time =       5.75 seconds =       0.10 minutes
	total time  =         31 seconds =       0.52 minutes

  //>>>>>>>>>>>>>>>>>>>>>>>>>>>>>>>>>>>//
  //  CBS Results: mp2/aug-cc-pV[TQ]Z  //
  //<<<<<<<<<<<<<<<<<<<<<<<<<<<<<<<<<<<//


   ==> HF <==

   HI-zeta (4) Energy:               -1875.933675618841


   ==> Helgaker 2-point correlated extrapolation for method: MP2 <==

   LO-zeta (3) Energy:               -1876.866970790223
   HI-zeta (4) Energy:               -1876.959758625272
   Alpha (exponent) Value:             3.000000000000
   Extrapolated Energy:              -1877.027468667064

   @Extrapolated MP2/(T,Q):          -1877.027468667064



   ==> Helgaker 2-point correlated extrapolation for method: HF <==

   LO-zeta (3) Energy:               -1875.916370042725
   HI-zeta (4) Energy:               -1875.933675618841
   Alpha (exponent) Value:             3.000000000000
   Extrapolated Energy:              -1875.946304012223

   @Extrapolated HF/(T,Q):           -1875.946304012223


   ==> Components <==

  ---------------------------------------------------------------------------------------------------------
                          Method / Basis                      Rqd      Energy [Eh]   Variable
  ---------------------------------------------------------------------------------------------------------
                              hf / aug-cc-pvtz                  *   -1875.91637004   HF TOTAL ENERGY
                             mp2 / aug-cc-pvtz                  *   -1876.86697079   MP2 TOTAL ENERGY
                              hf / aug-cc-pvqz                  *   -1875.93367562   HF TOTAL ENERGY
                             mp2 / aug-cc-pvqz                  *   -1876.95975863   MP2 TOTAL ENERGY
  ---------------------------------------------------------------------------------------------------------

   ==> Stages <==

  ---------------------------------------------------------------------------------------------------------
      Stage               Method / Basis                       Wt      Energy [Eh]   Scheme
  ---------------------------------------------------------------------------------------------------------
        scf                   hf / aug-cc-pvqz                  1   -1875.93367562   xtpl_highest_1
       corl                  mp2 / aug-cc-pv[tq]z               1   -1877.02746867   corl_xtpl_helgaker_2
       corl                   hf / aug-cc-pv[tq]z              -1   -1875.94630401   corl_xtpl_helgaker_2
  ---------------------------------------------------------------------------------------------------------

   ==> CBS <==

  ---------------------------------------------------------------------------------------------------------
      Stage               Method / Basis                               Energy [Eh]   Scheme
  ---------------------------------------------------------------------------------------------------------
        scf                   hf / aug-cc-pvqz                      -1875.93367562   xtpl_highest_1
       corl                  mp2 / aug-cc-pv[tq]z                      -1.08116465   corl_xtpl_helgaker_2
      total                  CBS                                    -1877.01484027   
  ---------------------------------------------------------------------------------------------------------
   => Loading Basis Set <=

    Name: DEF2-SVP
    Role: ORBITAL
    Keyword: BASIS
    atoms 1-4 entry CL         line   356 file /home/bdw2292/miniconda3/envs/amoebamdpoltype/share/psi4/basis/def2-svp.gbs 
    atoms 5   entry C          line    90 file /home/bdw2292/miniconda3/envs/amoebamdpoltype/share/psi4/basis/def2-svp.gbs 


       N-Body: Complex Energy (fragments = (2,), basis = (2,): -1877.01484027368247)

       N-Body: Computing complex (2/4) with fragments (2,) in the basis of fragments (1, 2).


  //>>>>>>>>>>>>>>>>>>>>>>>>>>>>>>>>>>>//
  //   CBS Setup: mp2/aug-cc-pV[TQ]Z   //
  //<<<<<<<<<<<<<<<<<<<<<<<<<<<<<<<<<<<//

    Naive listing of computations required.
             hf / aug-cc-pvqz              for  HF TOTAL ENERGY
            mp2 / aug-cc-pvtz              for  MP2 TOTAL ENERGY
            mp2 / aug-cc-pvqz              for  MP2 TOTAL ENERGY
             hf / aug-cc-pvtz              for  HF TOTAL ENERGY
             hf / aug-cc-pvqz              for  HF TOTAL ENERGY

    Enlightened listing of computations required.
            mp2 / aug-cc-pvtz              for  MP2 TOTAL ENERGY
            mp2 / aug-cc-pvqz              for  MP2 TOTAL ENERGY

    Full listing of computations to be obtained (required and bonus).
             hf / aug-cc-pvtz              for  HF TOTAL ENERGY
            mp2 / aug-cc-pvtz              for  MP2 TOTAL ENERGY
             hf / aug-cc-pvqz              for  HF TOTAL ENERGY
            mp2 / aug-cc-pvqz              for  MP2 TOTAL ENERGY

  //>>>>>>>>>>>>>>>>>>>>>>>>>>>>>>>>>>>>//
  // CBS Computation: MP2 / AUG-CC-PVTZ //
  //<<<<<<<<<<<<<<<<<<<<<<<<<<<<<<<<<<<<//

    SCF Algorithm Type (re)set to DF.

*** tstart() called on node37.bme.utexas.edu
*** at Tue Feb 22 20:28:19 2022

   => Loading Basis Set <=

    Name: AUG-CC-PVTZ
    Role: ORBITAL
    Keyword: BASIS
    atoms 1-4, 6-9 entry CL         line   984 file /home/bdw2292/miniconda3/envs/amoebamdpoltype/share/psi4/basis/aug-cc-pvtz.gbs 
    atoms 5, 10    entry C          line   235 file /home/bdw2292/miniconda3/envs/amoebamdpoltype/share/psi4/basis/aug-cc-pvtz.gbs 


         ---------------------------------------------------------
                                   SCF
               by Justin Turney, Rob Parrish, Andy Simmonett
                          and Daniel G. A. Smith
                              RHF Reference
                        4 Threads,  14305 MiB Core
         ---------------------------------------------------------

  ==> Geometry <==

    Molecular point group: c1
    Full point group: C1

    Geometry (in Angstrom), charge = 0, multiplicity = 1:

       Center              X                  Y                   Z               Mass       
    ------------   -----------------  -----------------  -----------------  -----------------
      Gh(CL)         -1.571598904899     0.226248484559     0.345100986805    34.968852682000
      Gh(CL)         -1.728190704899     2.530383484559    -1.387285013195    34.968852682000
      Gh(CL)         -2.653427704899    -0.045017915441    -2.318538813195    34.968852682000
      Gh(CL)          0.172051495101     0.429433984559    -1.954594413195    34.968852682000
      Gh(C)          -1.444273804899     0.784810884559    -1.328311713195    12.000000000000
         CL           0.164126395101    -0.688478415441     2.546767286805    34.968852682000
         CL           1.739571195101     0.824392184559     0.651931386805    34.968852682000
         CL           0.950894295101    -1.890215215441     0.035728186805    34.968852682000
         CL           2.926821495101    -1.386810615441     2.081304186805    34.968852682000
         C            1.443552395101    -0.784624315441     1.327105886805    12.000000000000

  Running in c1 symmetry.

  Rotational constants: A =      0.02882  B =      0.00868  C =      0.00868 [cm^-1]
  Rotational constants: A =    863.94376  B =    260.31129  C =    260.26807 [MHz]
  Nuclear repulsion =  439.464152173944910

  Charge       = 0
  Multiplicity = 1
  Electrons    = 74
  Nalpha       = 37
  Nbeta        = 37

  ==> Algorithm <==

  SCF Algorithm Type is DF.
  DIIS enabled.
  MOM disabled.
  Fractional occupation disabled.
  Guess Type is SAD.
  Energy threshold   = 1.00e-08
  Density threshold  = 1.00e-08
  Integral threshold = 0.00e+00

  ==> Primary Basis <==

  Basis Set: AUG-CC-PVTZ
    Blend: AUG-CC-PVTZ
    Number of shells: 156
    Number of basis function: 492
    Number of Cartesian functions: 582
    Spherical Harmonics?: true
    Max angular momentum: 3

   => Loading Basis Set <=

    Name: (AUG-CC-PVTZ AUX)
    Role: JKFIT
    Keyword: DF_BASIS_SCF
    atoms 1-4, 6-9 entry CL         line   816 file /home/bdw2292/miniconda3/envs/amoebamdpoltype/share/psi4/basis/aug-cc-pvtz-jkfit.gbs 
    atoms 5, 10    entry C          line   162 file /home/bdw2292/miniconda3/envs/amoebamdpoltype/share/psi4/basis/aug-cc-pvtz-jkfit.gbs 

  ==> Pre-Iterations <==

   -------------------------------------------------------
    Irrep   Nso     Nmo     Nalpha   Nbeta   Ndocc  Nsocc
   -------------------------------------------------------
     A        492     492       0       0       0       0
   -------------------------------------------------------
    Total     492     492      37      37      37       0
   -------------------------------------------------------

  ==> Integral Setup <==

  DFHelper Memory: AOs need 2.421 GiB; user supplied 10.477 GiB. Using in-core AOs.

  ==> MemDFJK: Density-Fitted J/K Matrices <==

    J tasked:                   Yes
    K tasked:                   Yes
    wK tasked:                   No
    OpenMP threads:               4
    Memory [MiB]:             10728
    Algorithm:                 Disk
    Schwarz Cutoff:           1E-12
    Mask sparsity (%):       5.2490
    Fitting Condition:        1E-10

   => Auxiliary Basis Set <=

  Basis Set: (AUG-CC-PVTZ AUX)
    Blend: AUG-CC-PVTZ-JKFIT
    Number of shells: 396
    Number of basis function: 1376
    Number of Cartesian functions: 1702
    Spherical Harmonics?: true
    Max angular momentum: 4

  Minimum eigenvalue in the overlap matrix is 4.2170790998E-05.
  Using Symmetric Orthogonalization.

  SCF Guess: Superposition of Atomic Densities via on-the-fly atomic UHF.

  ==> Iterations <==

                           Total Energy        Delta E     RMS |[F,P]|

   @DF-RHF iter SAD: -1875.94739352397437   -1.87595e+03   0.00000e+00 
   @DF-RHF iter   1: -1875.79736761180857    1.50026e-01   9.36057e-04 DIIS
   @DF-RHF iter   2: -1875.83599663363771   -3.86290e-02   8.63245e-04 DIIS
   @DF-RHF iter   3: -1875.91375699778064   -7.77604e-02   9.25672e-05 DIIS
   @DF-RHF iter   4: -1875.91623913633794   -2.48214e-03   3.24545e-05 DIIS
   @DF-RHF iter   5: -1875.91657342405392   -3.34288e-04   6.58690e-06 DIIS
   @DF-RHF iter   6: -1875.91658965718011   -1.62331e-05   1.09470e-06 DIIS
   @DF-RHF iter   7: -1875.91658986782932   -2.10649e-07   1.23679e-07 DIIS
   @DF-RHF iter   8: -1875.91658987223968   -4.41037e-09   2.90835e-08 DIIS
   @DF-RHF iter   9: -1875.91658987246046   -2.20780e-10   9.57113e-09 DIIS
  Energy and wave function converged.


  ==> Post-Iterations <==

    Orbital Energies [Eh]
    ---------------------

    Doubly Occupied:                                                      

       1A   -104.878927     2A   -104.878881     3A   -104.878755  
       4A   -104.878459     5A    -11.499656     6A    -10.603242  
       7A    -10.603197     8A    -10.603091     9A    -10.602867  
      10A     -8.070010    11A     -8.069966    12A     -8.069859  
      13A     -8.069630    14A     -8.067723    15A     -8.067715  
      16A     -8.067680    17A     -8.067672    18A     -8.067575  
      19A     -8.067568    20A     -8.067349    21A     -8.067348  
      22A     -1.282392    23A     -1.128415    24A     -1.128252  
      25A     -1.127967    26A     -0.834151    27A     -0.658260  
      28A     -0.658160    29A     -0.657959    30A     -0.532283  
      31A     -0.532222    32A     -0.489299    33A     -0.489157  
      34A     -0.488837    35A     -0.460964    36A     -0.460730  
      37A     -0.460649  

    Virtual:                                                              

      38A      0.031381    39A      0.053136    40A      0.054484  
      41A      0.058082    42A      0.071749    43A      0.079892  
      44A      0.081620    45A      0.081665    46A      0.091152  
      47A      0.099996    48A      0.100385    49A      0.115118  
      50A      0.115629    51A      0.121339    52A      0.130131  
      53A      0.131776    54A      0.145245    55A      0.148306  
      56A      0.149659    57A      0.152798    58A      0.156794  
      59A      0.162360    60A      0.168798    61A      0.171900  
      62A      0.180901    63A      0.184516    64A      0.185402  
      65A      0.186026    66A      0.190227    67A      0.191418  
      68A      0.200178    69A      0.202603    70A      0.205353  
      71A      0.215535    72A      0.221745    73A      0.224991  
      74A      0.233283    75A      0.235300    76A      0.252671  
      77A      0.257513    78A      0.265518    79A      0.273663  
      80A      0.288895    81A      0.307112    82A      0.324385  
      83A      0.328358    84A      0.330970    85A      0.332530  
      86A      0.339413    87A      0.344156    88A      0.353461  
      89A      0.363689    90A      0.373817    91A      0.384103  
      92A      0.391424    93A      0.397472    94A      0.402651  
      95A      0.406914    96A      0.413916    97A      0.422267  
      98A      0.427430    99A      0.431767   100A      0.434255  
     101A      0.435748   102A      0.440631   103A      0.454714  
     104A      0.464801   105A      0.467516   106A      0.475309  
     107A      0.486546   108A      0.493493   109A      0.500034  
     110A      0.502493   111A      0.514221   112A      0.517610  
     113A      0.525912   114A      0.530594   115A      0.533393  
     116A      0.542452   117A      0.547526   118A      0.551473  
     119A      0.561299   120A      0.562847   121A      0.572740  
     122A      0.574721   123A      0.582868   124A      0.590697  
     125A      0.602667   126A      0.607270   127A      0.623384  
     128A      0.637602   129A      0.639614   130A      0.653761  
     131A      0.655860   132A      0.670391   133A      0.683572  
     134A      0.699892   135A      0.708793   136A      0.721352  
     137A      0.739947   138A      0.747859   139A      0.748703  
     140A      0.752263   141A      0.759959   142A      0.763163  
     143A      0.769155   144A      0.777979   145A      0.779865  
     146A      0.783890   147A      0.790013   148A      0.807173  
     149A      0.809664   150A      0.817328   151A      0.821936  
     152A      0.826767   153A      0.834478   154A      0.837900  
     155A      0.845029   156A      0.861285   157A      0.868669  
     158A      0.878797   159A      0.882272   160A      0.885367  
     161A      0.886215   162A      0.899761   163A      0.903441  
     164A      0.912416   165A      0.922342   166A      0.925768  
     167A      0.943923   168A      0.952166   169A      0.955999  
     170A      0.961366   171A      0.975749   172A      0.980036  
     173A      0.994993   174A      1.012864   175A      1.016909  
     176A      1.031924   177A      1.033911   178A      1.051045  
     179A      1.077674   180A      1.081862   181A      1.087844  
     182A      1.093402   183A      1.114928   184A      1.123614  
     185A      1.150225   186A      1.157141   187A      1.160517  
     188A      1.167076   189A      1.172561   190A      1.188510  
     191A      1.208873   192A      1.214308   193A      1.245081  
     194A      1.253667   195A      1.253979   196A      1.262245  
     197A      1.268064   198A      1.272300   199A      1.281758  
     200A      1.297730   201A      1.305664   202A      1.312948  
     203A      1.317392   204A      1.336710   205A      1.343360  
     206A      1.347625   207A      1.354378   208A      1.363326  
     209A      1.369201   210A      1.370518   211A      1.386563  
     212A      1.402923   213A      1.421037   214A      1.428728  
     215A      1.434612   216A      1.446186   217A      1.457646  
     218A      1.479245   219A      1.482559   220A      1.485701  
     221A      1.493560   222A      1.497308   223A      1.503188  
     224A      1.509931   225A      1.510681   226A      1.519023  
     227A      1.530976   228A      1.534145   229A      1.549131  
     230A      1.551262   231A      1.559328   232A      1.563533  
     233A      1.570207   234A      1.572989   235A      1.581058  
     236A      1.586561   237A      1.595713   238A      1.600291  
     239A      1.615271   240A      1.617174   241A      1.633395  
     242A      1.634394   243A      1.651532   244A      1.659406  
     245A      1.661419   246A      1.671053   247A      1.672630  
     248A      1.684128   249A      1.690674   250A      1.702469  
     251A      1.713415   252A      1.719094   253A      1.721049  
     254A      1.733772   255A      1.745958   256A      1.762144  
     257A      1.769102   258A      1.774114   259A      1.780509  
     260A      1.792205   261A      1.801520   262A      1.803314  
     263A      1.812395   264A      1.819545   265A      1.824827  
     266A      1.834220   267A      1.846469   268A      1.855146  
     269A      1.872009   270A      1.886342   271A      1.890331  
     272A      1.900300   273A      1.909906   274A      1.915042  
     275A      1.921991   276A      1.927992   277A      1.942515  
     278A      1.946703   279A      1.973214   280A      1.983642  
     281A      1.997503   282A      2.007336   283A      2.009881  
     284A      2.048293   285A      2.055473   286A      2.071915  
     287A      2.079414   288A      2.090371   289A      2.141794  
     290A      2.157137   291A      2.166168   292A      2.176708  
     293A      2.186606   294A      2.205684   295A      2.258452  
     296A      2.279672   297A      2.283894   298A      2.355326  
     299A      2.359536   300A      2.388996   301A      2.423914  
     302A      2.480841   303A      2.487796   304A      2.520779  
     305A      2.554013   306A      2.568108   307A      2.584032  
     308A      2.595259   309A      2.609528   310A      2.615651  
     311A      2.626016   312A      2.629961   313A      2.633351  
     314A      2.648984   315A      2.660340   316A      2.665691  
     317A      2.670031   318A      2.693817   319A      2.724607  
     320A      2.728664   321A      2.732925   322A      2.737338  
     323A      2.767135   324A      2.777695   325A      2.789709  
     326A      2.807617   327A      2.813865   328A      2.829040  
     329A      2.853745   330A      2.889634   331A      2.919655  
     332A      2.924922   333A      2.965443   334A      2.989766  
     335A      3.032663   336A      3.048389   337A      3.055079  
     338A      3.071744   339A      3.074426   340A      3.090824  
     341A      3.093091   342A      3.107724   343A      3.112210  
     344A      3.124030   345A      3.135680   346A      3.141844  
     347A      3.149698   348A      3.157348   349A      3.195040  
     350A      3.203441   351A      3.213388   352A      3.227778  
     353A      3.246829   354A      3.261025   355A      3.280080  
     356A      3.301859   357A      3.303699   358A      3.320728  
     359A      3.341993   360A      3.354986   361A      3.356485  
     362A      3.380953   363A      3.399060   364A      3.412793  
     365A      3.429643   366A      3.448743   367A      3.452276  
     368A      3.493450   369A      3.547978   370A      3.557608  
     371A      3.777665   372A      3.791207   373A      3.801484  
     374A      3.835541   375A      3.841209   376A      3.868041  
     377A      3.891140   378A      3.943267   379A      3.978181  
     380A      3.979406   381A      3.996348   382A      3.999602  
     383A      4.002780   384A      4.009997   385A      4.034707  
     386A      4.036829   387A      4.062160   388A      4.072396  
     389A      4.081088   390A      4.095791   391A      4.099227  
     392A      4.111150   393A      4.113107   394A      4.117855  
     395A      4.135618   396A      4.141397   397A      4.151489  
     398A      4.180672   399A      4.184597   400A      4.203291  
     401A      4.209100   402A      4.216992   403A      4.228486  
     404A      4.244318   405A      4.257712   406A      4.271835  
     407A      4.278929   408A      4.297109   409A      4.305611  
     410A      4.308396   411A      4.345690   412A      4.352177  
     413A      4.377127   414A      4.415853   415A      4.423788  
     416A      4.450273   417A      4.479395   418A      4.489340  
     419A      4.501956   420A      4.515547   421A      4.548183  
     422A      4.588486   423A      4.723276   424A      4.733606  
     425A      4.737065   426A      4.743923   427A      4.749075  
     428A      4.751897   429A      4.754232   430A      4.776638  
     431A      4.792101   432A      4.793470   433A      4.806452  
     434A      4.818378   435A      4.842488   436A      4.855246  
     437A      4.858089   438A      4.872803   439A      4.877243  
     440A      4.900178   441A      4.914186   442A      4.915303  
     443A      4.932453   444A      4.967591   445A      5.000774  
     446A      5.061598   447A      5.109933   448A      5.120592  
     449A      5.129626   450A      5.139550   451A      5.178834  
     452A      5.212527   453A      5.414130   454A      5.419275  
     455A      5.431286   456A      5.447189   457A      5.481051  
     458A      5.673537   459A      5.904371   460A      6.158452  
     461A      6.184938   462A      6.205503   463A      6.892465  
     464A      7.678292   465A      7.812261   466A      7.845963  
     467A      7.885704   468A      7.923333   469A      7.932351  
     470A      7.967554   471A     11.075058   472A     15.542962  
     473A     16.496089   474A     16.592013   475A     16.832890  
     476A     28.089962   477A     28.097447   478A     28.168100  
     479A     28.232872   480A     28.276715   481A     28.356806  
     482A     28.419657   483A     28.514138   484A     28.902041  
     485A     28.931137   486A     28.948452   487A     29.565981  
     488A     41.194567   489A    160.950865   490A    161.052326  
     491A    161.069512   492A    161.079063  

    Final Occupation by Irrep:
              A 
    DOCC [    37 ]

  @DF-RHF Final Energy: -1875.91658987246046

   => Energetics <=

    Nuclear Repulsion Energy =            439.4641521739449104
    One-Electron Energy =               -3467.4877643832232934
    Two-Electron Energy =                1152.1070223368178631
    Total Energy =                      -1875.9165898724604631

Computation Completed


Properties will be evaluated at  -0.000000,  -0.000000,   0.000000 [a0]

Properties computed using the SCF density matrix

  Nuclear Dipole Moment: [e a0]
     X:   202.0974      Y:  -109.8057      Z:   185.8169

  Electronic Dipole Moment: [e a0]
     X:  -202.0984      Y:   109.8061      Z:  -185.8185

  Dipole Moment: [e a0]
     X:    -0.0010      Y:     0.0005      Z:    -0.0016     Total:     0.0020

  Dipole Moment: [D]
     X:    -0.0025      Y:     0.0012      Z:    -0.0041     Total:     0.0050


*** tstop() called on node37.bme.utexas.edu at Tue Feb 22 20:29:28 2022
Module time:
	user time   =     177.25 seconds =       2.95 minutes
	system time =      27.16 seconds =       0.45 minutes
	total time  =         69 seconds =       1.15 minutes
Total time:
	user time   =     279.05 seconds =       4.65 minutes
	system time =      32.94 seconds =       0.55 minutes
	total time  =        101 seconds =       1.68 minutes

*** tstart() called on node37.bme.utexas.edu
*** at Tue Feb 22 20:29:28 2022


  //>>>>>>>>>>>>>>>>>>>>>>>>>>>>>>>>>>>//
  //               DFMP2               //
  //<<<<<<<<<<<<<<<<<<<<<<<<<<<<<<<<<<<//

   => Loading Basis Set <=

    Name: (AUG-CC-PVTZ AUX)
    Role: RIFIT
    Keyword: DF_BASIS_MP2
    atoms 1-4, 6-9 entry CL         line   742 file /home/bdw2292/miniconda3/envs/amoebamdpoltype/share/psi4/basis/aug-cc-pvtz-ri.gbs 
    atoms 5, 10    entry C          line   148 file /home/bdw2292/miniconda3/envs/amoebamdpoltype/share/psi4/basis/aug-cc-pvtz-ri.gbs 

	 --------------------------------------------------------
	                          DF-MP2                         
	      2nd-Order Density-Fitted Moller-Plesset Theory     
	              RMP2 Wavefunction,   4 Threads             
	                                                         
	        Rob Parrish, Justin Turney, Andy Simmonett,      
	           Ed Hohenstein, and C. David Sherrill          
	 --------------------------------------------------------

   => Auxiliary Basis Set <=

  Basis Set: (AUG-CC-PVTZ AUX)
    Blend: AUG-CC-PVTZ-RI
    Number of shells: 352
    Number of basis function: 1388
    Number of Cartesian functions: 1800
    Spherical Harmonics?: true
    Max angular momentum: 4

	 --------------------------------------------------------
	                 NBF =   492, NAUX =  1388
	 --------------------------------------------------------
	   CLASS    FOCC     OCC    AOCC    AVIR     VIR    FVIR
	   PAIRS      21      37      16     455     455       0
	 --------------------------------------------------------

	-----------------------------------------------------------
	 ==================> DF-MP2 Energies <==================== 
	-----------------------------------------------------------
	 Reference Energy          =   -1875.9165898724604631 [Eh]
	 Singles Energy            =      -0.0000000000000000 [Eh]
	 Same-Spin Energy          =      -0.2465135278937583 [Eh]
	 Opposite-Spin Energy      =      -0.7053213666741288 [Eh]
	 Correlation Energy        =      -0.9518348945678872 [Eh]
	 Total Energy              =   -1876.8684247670282730 [Eh]
	-----------------------------------------------------------
	 ================> DF-SCS-MP2 Energies <================== 
	-----------------------------------------------------------
	 SCS Same-Spin Scale       =       0.3333333333333333 [-]
	 SCS Opposite-Spin Scale   =       1.2000000000000000 [-]
	 SCS Same-Spin Energy      =      -0.0821711759645861 [Eh]
	 SCS Opposite-Spin Energy  =      -0.8463856400089546 [Eh]
	 SCS Correlation Energy    =      -0.9285568159735407 [Eh]
	 SCS Total Energy          =   -1876.8451466884339425 [Eh]
	-----------------------------------------------------------


*** tstop() called on node37.bme.utexas.edu at Tue Feb 22 20:29:47 2022
Module time:
	user time   =      58.23 seconds =       0.97 minutes
	system time =       2.48 seconds =       0.04 minutes
	total time  =         19 seconds =       0.32 minutes
Total time:
	user time   =     337.28 seconds =       5.62 minutes
	system time =      35.42 seconds =       0.59 minutes
	total time  =        120 seconds =       2.00 minutes

  //>>>>>>>>>>>>>>>>>>>>>>>>>>>>>>>>>>>>//
  // CBS Computation: MP2 / AUG-CC-PVQZ //
  //<<<<<<<<<<<<<<<<<<<<<<<<<<<<<<<<<<<<//

    SCF Algorithm Type (re)set to DF.

*** tstart() called on node37.bme.utexas.edu
*** at Tue Feb 22 20:29:47 2022

   => Loading Basis Set <=

    Name: AUG-CC-PVQZ
    Role: ORBITAL
    Keyword: BASIS
    atoms 1-4, 6-9 entry CL         line  1218 file /home/bdw2292/miniconda3/envs/amoebamdpoltype/share/psi4/basis/aug-cc-pvqz.gbs 
    atoms 5, 10    entry C          line   299 file /home/bdw2292/miniconda3/envs/amoebamdpoltype/share/psi4/basis/aug-cc-pvqz.gbs 


         ---------------------------------------------------------
                                   SCF
               by Justin Turney, Rob Parrish, Andy Simmonett
                          and Daniel G. A. Smith
                              RHF Reference
                        4 Threads,  14305 MiB Core
         ---------------------------------------------------------

  ==> Geometry <==

    Molecular point group: c1
    Full point group: C1

    Geometry (in Angstrom), charge = 0, multiplicity = 1:

       Center              X                  Y                   Z               Mass       
    ------------   -----------------  -----------------  -----------------  -----------------
      Gh(CL)         -1.571598904899     0.226248484559     0.345100986805    34.968852682000
      Gh(CL)         -1.728190704899     2.530383484559    -1.387285013195    34.968852682000
      Gh(CL)         -2.653427704899    -0.045017915441    -2.318538813195    34.968852682000
      Gh(CL)          0.172051495101     0.429433984559    -1.954594413195    34.968852682000
      Gh(C)          -1.444273804899     0.784810884559    -1.328311713195    12.000000000000
         CL           0.164126395101    -0.688478415441     2.546767286805    34.968852682000
         CL           1.739571195101     0.824392184559     0.651931386805    34.968852682000
         CL           0.950894295101    -1.890215215441     0.035728186805    34.968852682000
         CL           2.926821495101    -1.386810615441     2.081304186805    34.968852682000
         C            1.443552395101    -0.784624315441     1.327105886805    12.000000000000

  Running in c1 symmetry.

  Rotational constants: A =      0.02882  B =      0.00868  C =      0.00868 [cm^-1]
  Rotational constants: A =    863.94376  B =    260.31129  C =    260.26807 [MHz]
  Nuclear repulsion =  439.464152173944910

  Charge       = 0
  Multiplicity = 1
  Electrons    = 74
  Nalpha       = 37
  Nbeta        = 37

  ==> Algorithm <==

  SCF Algorithm Type is DF.
  DIIS enabled.
  MOM disabled.
  Fractional occupation disabled.
  Guess Type is SAD.
  Energy threshold   = 1.00e-08
  Density threshold  = 1.00e-08
  Integral threshold = 0.00e+00

  ==> Primary Basis <==

  Basis Set: AUG-CC-PVQZ
    Blend: AUG-CC-PVQZ
    Number of shells: 216
    Number of basis function: 832
    Number of Cartesian functions: 1082
    Spherical Harmonics?: true
    Max angular momentum: 4

   => Loading Basis Set <=

    Name: (AUG-CC-PVQZ AUX)
    Role: JKFIT
    Keyword: DF_BASIS_SCF
    atoms 1-4, 6-9 entry CL         line   904 file /home/bdw2292/miniconda3/envs/amoebamdpoltype/share/psi4/basis/aug-cc-pvqz-jkfit.gbs 
    atoms 5, 10    entry C          line   178 file /home/bdw2292/miniconda3/envs/amoebamdpoltype/share/psi4/basis/aug-cc-pvqz-jkfit.gbs 

  ==> Pre-Iterations <==

   -------------------------------------------------------
    Irrep   Nso     Nmo     Nalpha   Nbeta   Ndocc  Nsocc
   -------------------------------------------------------
     A        832     832       0       0       0       0
   -------------------------------------------------------
    Total     832     832      37      37      37       0
   -------------------------------------------------------

  ==> Integral Setup <==

  DFHelper Memory: AOs need 8.478 GiB; user supplied 10.477 GiB. Using in-core AOs.

  ==> MemDFJK: Density-Fitted J/K Matrices <==

    J tasked:                   Yes
    K tasked:                   Yes
    wK tasked:                   No
    OpenMP threads:               4
    Memory [MiB]:             10728
    Algorithm:                 Disk
    Schwarz Cutoff:           1E-12
    Mask sparsity (%):       8.7460
    Fitting Condition:        1E-10

   => Auxiliary Basis Set <=

  Basis Set: (AUG-CC-PVQZ AUX)
    Blend: AUG-CC-PVQZ-JKFIT
    Number of shells: 436
    Number of basis function: 1756
    Number of Cartesian functions: 2372
    Spherical Harmonics?: true
    Max angular momentum: 5

  Minimum eigenvalue in the overlap matrix is 9.2785107190E-06.
  Using Symmetric Orthogonalization.

  SCF Guess: Superposition of Atomic Densities via on-the-fly atomic UHF.

  ==> Iterations <==

                           Total Energy        Delta E     RMS |[F,P]|

   @DF-RHF iter SAD: -1875.95817456425175   -1.87596e+03   0.00000e+00 
   @DF-RHF iter   1: -1875.81438807490213    1.43786e-01   5.65396e-04 DIIS
   @DF-RHF iter   2: -1875.85333985657758   -3.89518e-02   5.18082e-04 DIIS
   @DF-RHF iter   3: -1875.93073634088364   -7.73965e-02   5.81385e-05 DIIS
   @DF-RHF iter   4: -1875.93328809095897   -2.55175e-03   2.11731e-05 DIIS
   @DF-RHF iter   5: -1875.93370464566033   -4.16555e-04   4.24688e-06 DIIS
   @DF-RHF iter   6: -1875.93372313710938   -1.84914e-05   6.99169e-07 DIIS
   @DF-RHF iter   7: -1875.93372337433721   -2.37228e-07   8.75040e-08 DIIS
   @DF-RHF iter   8: -1875.93372338032964   -5.99243e-09   2.06488e-08 DIIS
   @DF-RHF iter   9: -1875.93372338064773   -3.18096e-10   6.52687e-09 DIIS
  Energy and wave function converged.


  ==> Post-Iterations <==

    Orbital Energies [Eh]
    ---------------------

    Doubly Occupied:                                                      

       1A   -104.876394     2A   -104.876346     3A   -104.876232  
       4A   -104.875944     5A    -11.496948     6A    -10.602038  
       7A    -10.601994     8A    -10.601881     9A    -10.601635  
      10A     -8.069010    11A     -8.068967    12A     -8.068854  
      13A     -8.068607    14A     -8.066914    15A     -8.066914  
      16A     -8.066871    17A     -8.066871    18A     -8.066759  
      19A     -8.066759    20A     -8.066510    21A     -8.066510  
      22A     -1.281349    23A     -1.127763    24A     -1.127594  
      25A     -1.127283    26A     -0.833858    27A     -0.658086  
      28A     -0.657982    29A     -0.657754    30A     -0.532034  
      31A     -0.531972    32A     -0.489039    33A     -0.488898  
      34A     -0.488569    35A     -0.460753    36A     -0.460486  
      37A     -0.460408  

    Virtual:                                                              

      38A      0.026959    39A      0.044496    40A      0.046404  
      41A      0.049059    42A      0.061214    43A      0.067498  
      44A      0.069208    45A      0.075170    46A      0.081459  
      47A      0.083608    48A      0.086077    49A      0.097141  
      50A      0.098174    51A      0.102562    52A      0.109563  
      53A      0.112234    54A      0.124813    55A      0.126500  
      56A      0.129073    57A      0.133006    58A      0.135362  
      59A      0.139567    60A      0.142821    61A      0.145402  
      62A      0.153927    63A      0.158622    64A      0.160940  
      65A      0.161529    66A      0.164283    67A      0.165676  
      68A      0.170349    69A      0.174705    70A      0.176857  
      71A      0.181675    72A      0.188997    73A      0.192725  
      74A      0.201281    75A      0.202084    76A      0.207626  
      77A      0.217036    78A      0.224966    79A      0.229244  
      80A      0.233520    81A      0.246753    82A      0.256378  
      83A      0.265351    84A      0.265717    85A      0.277032  
      86A      0.280183    87A      0.283457    88A      0.292053  
      89A      0.301149    90A      0.306263    91A      0.318825  
      92A      0.321350    93A      0.323817    94A      0.327815  
      95A      0.331072    96A      0.333378    97A      0.334576  
      98A      0.338365    99A      0.343684   100A      0.347364  
     101A      0.350483   102A      0.356069   103A      0.358675  
     104A      0.362683   105A      0.367464   106A      0.370175  
     107A      0.371296   108A      0.376498   109A      0.378390  
     110A      0.384433   111A      0.391398   112A      0.402672  
     113A      0.408976   114A      0.411715   115A      0.418555  
     116A      0.425686   117A      0.435102   118A      0.442273  
     119A      0.442997   120A      0.447202   121A      0.451626  
     122A      0.458254   123A      0.459909   124A      0.469105  
     125A      0.472937   126A      0.484077   127A      0.491761  
     128A      0.496141   129A      0.506080   130A      0.514079  
     131A      0.516754   132A      0.524732   133A      0.526223  
     134A      0.542652   135A      0.551642   136A      0.555151  
     137A      0.558801   138A      0.565443   139A      0.566000  
     140A      0.573586   141A      0.578019   142A      0.579454  
     143A      0.581853   144A      0.582078   145A      0.586682  
     146A      0.590984   147A      0.593954   148A      0.598754  
     149A      0.601080   150A      0.607736   151A      0.610790  
     152A      0.615962   153A      0.619245   154A      0.624753  
     155A      0.631140   156A      0.637840   157A      0.644865  
     158A      0.652158   159A      0.659547   160A      0.663347  
     161A      0.667602   162A      0.686361   163A      0.691820  
     164A      0.696718   165A      0.699995   166A      0.706210  
     167A      0.713613   168A      0.715621   169A      0.719870  
     170A      0.723284   171A      0.726628   172A      0.737580  
     173A      0.745514   174A      0.766822   175A      0.769780  
     176A      0.794897   177A      0.795574   178A      0.805763  
     179A      0.812446   180A      0.816976   181A      0.825128  
     182A      0.845942   183A      0.859198   184A      0.860959  
     185A      0.874305   186A      0.882555   187A      0.883290  
     188A      0.891188   189A      0.899855   190A      0.909515  
     191A      0.912515   192A      0.917496   193A      0.928270  
     194A      0.936624   195A      0.941933   196A      0.948311  
     197A      0.959287   198A      0.962751   199A      0.965717  
     200A      0.971685   201A      0.978982   202A      0.982957  
     203A      0.989800   204A      0.994001   205A      1.007581  
     206A      1.012986   207A      1.016292   208A      1.020146  
     209A      1.031989   210A      1.037806   211A      1.039978  
     212A      1.045990   213A      1.049341   214A      1.053855  
     215A      1.055190   216A      1.061379   217A      1.064991  
     218A      1.073919   219A      1.081446   220A      1.088822  
     221A      1.094303   222A      1.098882   223A      1.102134  
     224A      1.103095   225A      1.108720   226A      1.114078  
     227A      1.117624   228A      1.121817   229A      1.133287  
     230A      1.144817   231A      1.149950   232A      1.153360  
     233A      1.157013   234A      1.164538   235A      1.165652  
     236A      1.167208   237A      1.175989   238A      1.177019  
     239A      1.180239   240A      1.181051   241A      1.187408  
     242A      1.194682   243A      1.198034   244A      1.203674  
     245A      1.209625   246A      1.215987   247A      1.216802  
     248A      1.224826   249A      1.229976   250A      1.233167  
     251A      1.239387   252A      1.244923   253A      1.254589  
     254A      1.264114   255A      1.269174   256A      1.275210  
     257A      1.278699   258A      1.281940   259A      1.289966  
     260A      1.301515   261A      1.310126   262A      1.316913  
     263A      1.324595   264A      1.332216   265A      1.335840  
     266A      1.348019   267A      1.351894   268A      1.368332  
     269A      1.372809   270A      1.385063   271A      1.390399  
     272A      1.397057   273A      1.404923   274A      1.413075  
     275A      1.418024   276A      1.425306   277A      1.430595  
     278A      1.436279   279A      1.440776   280A      1.454309  
     281A      1.457649   282A      1.471668   283A      1.480622  
     284A      1.493474   285A      1.503785   286A      1.519718  
     287A      1.534560   288A      1.547076   289A      1.568907  
     290A      1.608284   291A      1.617048   292A      1.629850  
     293A      1.652126   294A      1.658317   295A      1.666888  
     296A      1.678211   297A      1.681772   298A      1.700825  
     299A      1.711908   300A      1.718101   301A      1.731871  
     302A      1.742483   303A      1.747522   304A      1.756980  
     305A      1.766157   306A      1.784040   307A      1.793178  
     308A      1.804891   309A      1.814841   310A      1.817639  
     311A      1.825540   312A      1.829623   313A      1.833478  
     314A      1.845399   315A      1.851834   316A      1.855259  
     317A      1.862983   318A      1.869766   319A      1.869848  
     320A      1.885290   321A      1.896202   322A      1.905585  
     323A      1.910928   324A      1.935040   325A      1.937977  
     326A      1.940489   327A      1.947877   328A      1.954997  
     329A      1.961309   330A      1.966321   331A      1.972672  
     332A      1.983051   333A      1.992194   334A      1.999682  
     335A      2.006600   336A      2.016191   337A      2.024185  
     338A      2.033211   339A      2.038610   340A      2.043318  
     341A      2.049043   342A      2.051945   343A      2.056697  
     344A      2.072547   345A      2.084009   346A      2.094012  
     347A      2.098338   348A      2.098750   349A      2.101181  
     350A      2.111809   351A      2.113055   352A      2.118291  
     353A      2.124353   354A      2.127721   355A      2.137824  
     356A      2.143092   357A      2.150466   358A      2.157159  
     359A      2.179478   360A      2.200160   361A      2.208140  
     362A      2.208876   363A      2.220035   364A      2.221410  
     365A      2.229260   366A      2.231840   367A      2.239149  
     368A      2.242116   369A      2.250430   370A      2.259811  
     371A      2.262585   372A      2.264317   373A      2.271806  
     374A      2.276078   375A      2.280407   376A      2.289995  
     377A      2.294858   378A      2.300940   379A      2.310310  
     380A      2.325672   381A      2.328600   382A      2.333520  
     383A      2.336347   384A      2.343076   385A      2.347419  
     386A      2.361836   387A      2.369973   388A      2.375902  
     389A      2.381170   390A      2.390451   391A      2.397906  
     392A      2.404378   393A      2.410456   394A      2.415537  
[...]
     351A      1.807167   352A      1.812889   353A      1.818271  
     354A      1.821516   355A      1.831190   356A      1.834379  
     357A      1.837542   358A      1.847596   359A      1.853485  
     360A      1.858652   361A      1.863556   362A      1.865531  
     363A      1.875841   364A      1.880224   365A      1.896345  
     366A      1.902925   367A      1.908406   368A      1.912331  
     369A      1.921191   370A      1.928384   371A      1.930262  
     372A      1.935806   373A      1.943685   374A      1.954569  
     375A      1.962942   376A      1.967457   377A      1.982506  
     378A      1.987594   379A      1.991064   380A      2.009822  
     381A      2.015226   382A      2.023024   383A      2.023556  
     384A      2.030545   385A      2.034740   386A      2.039478  
     387A      2.041496   388A      2.046471   389A      2.057471  
     390A      2.061420   391A      2.071814   392A      2.074372  
     393A      2.082525   394A      2.087528   395A      2.088264  
     396A      2.094573   397A      2.099019   398A      2.103497  
     399A      2.109455   400A      2.112397   401A      2.116657  
     402A      2.121508   403A      2.122978   404A      2.125814  
     405A      2.133702   406A      2.138721   407A      2.145735  
     408A      2.149015   409A      2.156979   410A      2.162167  
     411A      2.169259   412A      2.171144   413A      2.179455  
     414A      2.187897   415A      2.196458   416A      2.203011  
     417A      2.205592   418A      2.210814   419A      2.217953  
     420A      2.221772   421A      2.225170   422A      2.230491  
     423A      2.234306   424A      2.240514   425A      2.245093  
     426A      2.249395   427A      2.251742   428A      2.256174  
     429A      2.261167   430A      2.262757   431A      2.266251  
     432A      2.267099   433A      2.274276   434A      2.278227  
     435A      2.279636   436A      2.285448   437A      2.296452  
     438A      2.303196   439A      2.307445   440A      2.316571  
     441A      2.320246   442A      2.333379   443A      2.340244  
     444A      2.341088   445A      2.350814   446A      2.355602  
     447A      2.363292   448A      2.370106   449A      2.372826  
     450A      2.374630   451A      2.387450   452A      2.394490  
     453A      2.402896   454A      2.414822   455A      2.422052  
     456A      2.426438   457A      2.431672   458A      2.436728  
     459A      2.439069   460A      2.450814   461A      2.458529  
     462A      2.465807   463A      2.481031   464A      2.493412  
     465A      2.498067   466A      2.499815   467A      2.503085  
     468A      2.508348   469A      2.512306   470A      2.515804  
     471A      2.519654   472A      2.528032   473A      2.532328  
     474A      2.534439   475A      2.542357   476A      2.548920  
     477A      2.557160   478A      2.570479   479A      2.578695  
     480A      2.581640   481A      2.591083   482A      2.594888  
     483A      2.602409   484A      2.617624   485A      2.627132  
     486A      2.629873   487A      2.647658   488A      2.653129  
     489A      2.665083   490A      2.674405   491A      2.682358  
     492A      2.687056   493A      2.695194   494A      2.702372  
     495A      2.707029   496A      2.710075   497A      2.716015  
     498A      2.732903   499A      2.737720   500A      2.740182  
     501A      2.757494   502A      2.767641   503A      2.781057  
     504A      2.793174   505A      2.808340   506A      2.831093  
     507A      2.835451   508A      2.850558   509A      2.872710  
     510A      2.885423   511A      2.890823   512A      2.898543  
     513A      2.919237   514A      2.926980   515A      2.940197  
     516A      2.950422   517A      2.957301   518A      2.960764  
     519A      2.982146   520A      2.986166   521A      2.987556  
     522A      3.000716   523A      3.011750   524A      3.025586  
     525A      3.037865   526A      3.045651   527A      3.049986  
     528A      3.064118   529A      3.079048   530A      3.104227  
     531A      3.122944   532A      3.140686   533A      3.244314  
     534A      3.250748   535A      3.258172   536A      3.268555  
     537A      3.277549   538A      3.278456   539A      3.289871  
     540A      3.302116   541A      3.302652   542A      3.343245  
     543A      3.347675   544A      3.368150   545A      3.430661  
     546A      3.443815   547A      3.447916   548A      3.452629  
     549A      3.455008   550A      3.467734   551A      3.475349  
     552A      3.481780   553A      3.483028   554A      3.488205  
     555A      3.496644   556A      3.503983   557A      3.529479  
     558A      3.554373   559A      3.567870   560A      3.575790  
     561A      3.583143   562A      3.594718   563A      3.598705  
     564A      3.607071   565A      3.614929   566A      3.626266  
     567A      3.646714   568A      3.652080   569A      3.658706  
     570A      3.672383   571A      3.730422   572A      3.763211  
     573A      3.777566   574A      3.820892   575A      3.999069  
     576A      4.023184   577A      4.033859   578A      4.060558  
     579A      4.064613   580A      4.069898   581A      4.258084  
     582A      4.295158   583A      4.400791   584A      4.423927  
     585A      4.433969   586A      4.441064   587A      4.469560  
     588A      4.483649   589A      4.488023   590A      4.490158  
     591A      4.495591   592A      4.503991   593A      4.516847  
     594A      4.533188   595A      4.537335   596A      4.554214  
     597A      4.594383   598A      4.609103   599A      4.613639  
     600A      4.628411   601A      4.629847   602A      4.640324  
     603A      4.641642   604A      4.646684   605A      4.671353  
     606A      4.676627   607A      4.679283   608A      4.685528  
     609A      4.690960   610A      4.698065   611A      4.704628  
     612A      4.711689   613A      4.723196   614A      4.725340  
     615A      4.728361   616A      4.731403   617A      4.741347  
     618A      4.744699   619A      4.746362   620A      4.751406  
     621A      4.755019   622A      4.757940   623A      4.761201  
     624A      4.766174   625A      4.767515   626A      4.769525  
     627A      4.774234   628A      4.774307   629A      4.781701  
     630A      4.784179   631A      4.784620   632A      4.789062  
     633A      4.791345   634A      4.797066   635A      4.798775  
     636A      4.806305   637A      4.809225   638A      4.812000  
     639A      4.821735   640A      4.828351   641A      4.833744  
     642A      4.836185   643A      4.840285   644A      4.848900  
     645A      4.858640   646A      4.860855   647A      4.863143  
     648A      4.868236   649A      4.869441   650A      4.874276  
     651A      4.878724   652A      4.884914   653A      4.893791  
     654A      4.897478   655A      4.899775   656A      4.900579  
     657A      4.903735   658A      4.909537   659A      4.911521  
     660A      4.916152   661A      4.919183   662A      4.921658  
     663A      4.926579   664A      4.933883   665A      4.936352  
     666A      4.940257   667A      4.943630   668A      4.945122  
     669A      4.952089   670A      4.953314   671A      4.955420  
     672A      4.959421   673A      4.964206   674A      4.967770  
     675A      4.981403   676A      4.984297   677A      4.987574  
     678A      4.989447   679A      4.993969   680A      5.002767  
     681A      5.011554   682A      5.013475   683A      5.021196  
     684A      5.024664   685A      5.028186   686A      5.036335  
     687A      5.038753   688A      5.045384   689A      5.050528  
     690A      5.058000   691A      5.069809   692A      5.074972  
     693A      5.087477   694A      5.093915   695A      5.098902  
     696A      5.104534   697A      5.112676   698A      5.128818  
     699A      5.132122   700A      5.142604   701A      5.154100  
     702A      5.157372   703A      5.167747   704A      5.183047  
     705A      5.184374   706A      5.191580   707A      5.201316  
     708A      5.211847   709A      5.215399   710A      5.234983  
     711A      5.247135   712A      5.253995   713A      5.269962  
     714A      5.273078   715A      5.287834   716A      5.304768  
     717A      5.324631   718A      5.330472   719A      5.340623  
     720A      5.348001   721A      5.353576   722A      5.359936  
     723A      5.386063   724A      5.396333   725A      5.413475  
     726A      5.419244   727A      5.424506   728A      5.430297  
     729A      5.438255   730A      5.450875   731A      5.459929  
     732A      5.464022   733A      5.469306   734A      5.481341  
     735A      5.491705   736A      5.495953   737A      5.504330  
     738A      5.510991   739A      5.548191   740A      5.586123  
     741A      5.599206   742A      5.632930   743A      5.643584  
     744A      5.655685   745A      5.692740   746A      5.700134  
     747A      5.725853   748A      5.784558   749A      5.864606  
     750A      5.867392   751A      6.667485   752A      6.677992  
     753A      6.687201   754A      6.689070   755A      6.697040  
     756A      6.698299   757A      6.701768   758A      6.717183  
     759A      6.719036   760A      6.721968   761A      6.737450  
     762A      6.744447   763A      6.747840   764A      6.774235  
     765A      6.781512   766A      6.785456   767A      6.801550  
     768A      6.817627   769A      6.856204   770A      6.859126  
     771A      6.869236   772A      6.875769   773A      6.883505  
     774A      6.893026   775A      6.925300   776A      6.932592  
     777A      6.983197   778A      6.998755   779A      7.038221  
     780A      7.056887   781A      7.117787   782A      7.125138  
     783A      7.127943   784A      7.141581   785A      7.221446  
     786A      7.228177   787A      7.236344   788A      7.241769  
     789A      7.255938   790A      7.289682   791A      7.309654  
     792A      7.318705   793A      7.320870   794A      7.339553  
     795A      7.381648   796A      7.400048   797A      7.406687  
     798A      7.424278   799A      7.436463   800A      7.468243  
     801A      7.568572   802A      7.589164   803A      7.766261  
     804A      7.770679   805A      7.778184   806A      7.786024  
     807A      7.810598   808A      7.827265   809A      7.839233  
     810A      7.844303   811A      7.855670   812A      7.861467  
     813A      7.867986   814A      7.895044   815A      8.526933  
     816A      8.531144   817A      8.543969   818A      8.545217  
     819A      8.553594   820A      8.590101   821A      8.819366  
     822A      8.860931   823A     24.880788   824A     25.035965  
     825A     26.809734   826A     26.817170   827A     26.902303  
     828A     26.967702   829A     27.139535   830A     27.194624  
     831A     27.312892   832A     27.565928  

    Final Occupation by Irrep:
              A 
    DOCC [    74 ]

  @DF-RHF Final Energy: -3751.83471908303272

   => Energetics <=

    Nuclear Repulsion Energy =           1540.7697458513669062
    One-Electron Energy =               -8259.1571195363794686
    Two-Electron Energy =                2966.5526546019800662
    Total Energy =                      -3751.8347190830327236

Computation Completed


Properties will be evaluated at  -0.000000,  -0.000000,   0.000000 [a0]

Properties computed using the SCF density matrix

  Nuclear Dipole Moment: [e a0]
     X:    -0.0002      Y:     0.0001      Z:    -0.0004

  Electronic Dipole Moment: [e a0]
     X:     0.0386      Y:    -0.0138      Z:     0.0162

  Dipole Moment: [e a0]
     X:     0.0383      Y:    -0.0138      Z:     0.0158     Total:     0.0437

  Dipole Moment: [D]
     X:     0.0974      Y:    -0.0350      Z:     0.0403     Total:     0.1111


*** tstop() called on node37.bme.utexas.edu at Tue Feb 22 20:48:05 2022
Module time:
	user time   =     707.14 seconds =      11.79 minutes
	system time =     111.12 seconds =       1.85 minutes
	total time  =        278 seconds =       4.63 minutes
Total time:
	user time   =    3186.10 seconds =      53.10 minutes
	system time =     417.35 seconds =       6.96 minutes
	total time  =       1218 seconds =      20.30 minutes

*** tstart() called on node37.bme.utexas.edu
*** at Tue Feb 22 20:48:05 2022


  //>>>>>>>>>>>>>>>>>>>>>>>>>>>>>>>>>>>//
  //               DFMP2               //
  //<<<<<<<<<<<<<<<<<<<<<<<<<<<<<<<<<<<//

   => Loading Basis Set <=

    Name: (AUG-CC-PVQZ AUX)
    Role: RIFIT
    Keyword: DF_BASIS_MP2
    atoms 1-4, 6-9 entry CL         line   914 file /home/bdw2292/miniconda3/envs/amoebamdpoltype/share/psi4/basis/aug-cc-pvqz-ri.gbs 
    atoms 5, 10    entry C          line   184 file /home/bdw2292/miniconda3/envs/amoebamdpoltype/share/psi4/basis/aug-cc-pvqz-ri.gbs 

	 --------------------------------------------------------
	                          DF-MP2                         
	      2nd-Order Density-Fitted Moller-Plesset Theory     
	              RMP2 Wavefunction,   4 Threads             
	                                                         
	        Rob Parrish, Justin Turney, Andy Simmonett,      
	           Ed Hohenstein, and C. David Sherrill          
	 --------------------------------------------------------

   => Auxiliary Basis Set <=

  Basis Set: (AUG-CC-PVQZ AUX)
    Blend: AUG-CC-PVQZ-RI
    Number of shells: 424
    Number of basis function: 1888
    Number of Cartesian functions: 2618
    Spherical Harmonics?: true
    Max angular momentum: 5

	 --------------------------------------------------------
	                 NBF =   832, NAUX =  1888
	 --------------------------------------------------------
	   CLASS    FOCC     OCC    AOCC    AVIR     VIR    FVIR
	   PAIRS      42      74      32     758     758       0
	 --------------------------------------------------------

	-----------------------------------------------------------
	 ==================> DF-MP2 Energies <==================== 
	-----------------------------------------------------------
	 Reference Energy          =   -3751.8347190830327236 [Eh]
	 Singles Energy            =      -0.0000000000000000 [Eh]
	 Same-Spin Energy          =      -0.5211903209464419 [Eh]
	 Opposite-Spin Energy      =      -1.5573751843259520 [Eh]
	 Correlation Energy        =      -2.0785655052723939 [Eh]
	 Total Energy              =   -3753.9132845883050322 [Eh]
	-----------------------------------------------------------
	 ================> DF-SCS-MP2 Energies <================== 
	-----------------------------------------------------------
	 SCS Same-Spin Scale       =       0.3333333333333333 [-]
	 SCS Opposite-Spin Scale   =       1.2000000000000000 [-]
	 SCS Same-Spin Energy      =      -0.1737301069821473 [Eh]
	 SCS Opposite-Spin Energy  =      -1.8688502211911424 [Eh]
	 SCS Correlation Energy    =      -2.0425803281732895 [Eh]
	 SCS Total Energy          =   -3753.8772994112059678 [Eh]
	-----------------------------------------------------------


*** tstop() called on node37.bme.utexas.edu at Tue Feb 22 20:49:22 2022
Module time:
	user time   =     219.62 seconds =       3.66 minutes
	system time =       9.53 seconds =       0.16 minutes
	total time  =         77 seconds =       1.28 minutes
Total time:
	user time   =    3405.72 seconds =      56.76 minutes
	system time =     426.88 seconds =       7.11 minutes
	total time  =       1295 seconds =      21.58 minutes

  //>>>>>>>>>>>>>>>>>>>>>>>>>>>>>>>>>>>//
  //  CBS Results: mp2/aug-cc-pV[TQ]Z  //
  //<<<<<<<<<<<<<<<<<<<<<<<<<<<<<<<<<<<//


   ==> HF <==

   HI-zeta (4) Energy:               -3751.834719083033


   ==> Helgaker 2-point correlated extrapolation for method: MP2 <==

   LO-zeta (3) Energy:               -3753.727488001435
   HI-zeta (4) Energy:               -3753.913284588305
   Alpha (exponent) Value:             3.000000000000
   Extrapolated Energy:              -3754.048865881426

   @Extrapolated MP2/(T,Q):          -3754.048865881426



   ==> Helgaker 2-point correlated extrapolation for method: HF <==

   LO-zeta (3) Energy:               -3751.800312650295
   HI-zeta (4) Energy:               -3751.834719083033
   Alpha (exponent) Value:             3.000000000000
   Extrapolated Energy:              -3751.859826479895

   @Extrapolated HF/(T,Q):           -3751.859826479895


   ==> Components <==

  ---------------------------------------------------------------------------------------------------------
                          Method / Basis                      Rqd      Energy [Eh]   Variable
  ---------------------------------------------------------------------------------------------------------
                              hf / aug-cc-pvtz                  *   -3751.80031265   HF TOTAL ENERGY
                             mp2 / aug-cc-pvtz                  *   -3753.72748800   MP2 TOTAL ENERGY
                              hf / aug-cc-pvqz                  *   -3751.83471908   HF TOTAL ENERGY
                             mp2 / aug-cc-pvqz                  *   -3753.91328459   MP2 TOTAL ENERGY
  ---------------------------------------------------------------------------------------------------------

   ==> Stages <==

  ---------------------------------------------------------------------------------------------------------
      Stage               Method / Basis                       Wt      Energy [Eh]   Scheme
  ---------------------------------------------------------------------------------------------------------
        scf                   hf / aug-cc-pvqz                  1   -3751.83471908   xtpl_highest_1
       corl                  mp2 / aug-cc-pv[tq]z               1   -3754.04886588   corl_xtpl_helgaker_2
       corl                   hf / aug-cc-pv[tq]z              -1   -3751.85982648   corl_xtpl_helgaker_2
  ---------------------------------------------------------------------------------------------------------

   ==> CBS <==

  ---------------------------------------------------------------------------------------------------------
      Stage               Method / Basis                               Energy [Eh]   Scheme
  ---------------------------------------------------------------------------------------------------------
        scf                   hf / aug-cc-pvqz                      -3751.83471908   xtpl_highest_1
       corl                  mp2 / aug-cc-pv[tq]z                      -2.18903940   corl_xtpl_helgaker_2
      total                  CBS                                    -3754.02375848   
  ---------------------------------------------------------------------------------------------------------
   => Loading Basis Set <=

    Name: DEF2-SVP
    Role: ORBITAL
    Keyword: BASIS
    atoms 1-4, 6-9 entry CL         line   356 file /home/bdw2292/miniconda3/envs/amoebamdpoltype/share/psi4/basis/def2-svp.gbs 
    atoms 5, 10    entry C          line    90 file /home/bdw2292/miniconda3/envs/amoebamdpoltype/share/psi4/basis/def2-svp.gbs 


       N-Body: Complex Energy (fragments = (1, 2), basis = (1, 2): -3754.02375848456313)

   ==> N-Body: Counterpoise Corrected (CP) energies <==

   n-Body     Total Energy [Eh]       I.E. [kcal/mol]      Delta [kcal/mol]
        1    -3754.029707808962        0.000000000000        0.000000000000
        2    -3754.023369677991        3.977237230070        3.977237230070

   => Loading Basis Set <=

    Name: DEF2-SVP
    Role: ORBITAL
    Keyword: BASIS
    atoms 1-4, 6-9 entry CL         line   356 file /home/bdw2292/miniconda3/envs/amoebamdpoltype/share/psi4/basis/def2-svp.gbs 
    atoms 5, 10    entry C          line    90 file /home/bdw2292/miniconda3/envs/amoebamdpoltype/share/psi4/basis/def2-svp.gbs 

CP Energy =   0.006338
    Psi4 stopped on: Tuesday, 22 February 2022 08:49PM
    Psi4 wall time for execution: 0:21:35.89

*** Psi4 exiting successfully. Buy a developer a beer!
