Generated by Psi4
        SP                        DF-MP2                      6-311G**
Number of atoms                            I               18
Charge                                     I                0
Multiplicity                               I                1
Number of electrons                        I               90
Number of alpha electrons                  I               45
Number of beta electrons                   I               45
Number of basis functions                  I              248
Number of independent functions            I              248
Atomic numbers                             I   N=          18
           1           1           6          16           6           7
           6           8           7           1           6           1
           6           8           7           1           1           1
Nuclear charges                            R   N=          18
  1.00000000e+00  1.00000000e+00  6.00000000e+00  1.60000000e+01  6.00000000e+00
  7.00000000e+00  6.00000000e+00  8.00000000e+00  7.00000000e+00  1.00000000e+00
  6.00000000e+00  1.00000000e+00  6.00000000e+00  8.00000000e+00  7.00000000e+00
  1.00000000e+00  1.00000000e+00  1.00000000e+00
Current cartesian coordinates              R   N=          54
  2.45380543e+00  1.89499701e+00 -8.59332116e-01  1.62730385e+00  2.10350647e+00
  2.37056076e+00  1.51436313e+00  9.14038979e-01  6.94721226e-01  3.05823289e+00
 -2.11966356e+00  1.29156750e+00  6.00076340e+00 -1.00701474e+00  1.88169801e+00
  8.08165669e+00 -2.87977313e-01  2.28861266e+00 -3.41351127e+00 -2.60665538e+00
 -2.75529894e+00 -5.34380001e+00 -2.70381647e+00 -1.45294260e+00 -1.40381294e+00
 -1.10778311e+00 -2.23341162e+00  5.85905377e-02 -1.07165890e+00 -3.47154657e+00
 -1.23781273e+00  4.14707981e-01  5.45169305e-02 -2.16133066e+00 -6.65645906e-01
  1.56649835e+00 -2.61643391e+00  2.97066380e+00 -1.87196835e-01 -1.55265482e+00
  4.97191846e+00  3.33323099e-01 -5.04583925e+00  2.77316661e+00 -9.62206288e-01
 -3.16183663e+00 -3.75176788e+00 -4.47533363e+00 -5.91142336e+00  1.06212904e+00
 -1.04101473e+00 -6.09324838e+00  4.37270422e+00 -9.82191899e-01
Integer atomic weights                     I   N=          18
           1           1          12          32          12          14
          12          16          14           1          12           1
          12          16          14           1           1           1
Real atomic weights                        R   N=          18
  1.00782503e+00  1.00782503e+00  1.20000000e+01  3.19720712e+01  1.20000000e+01
  1.40030740e+01  1.20000000e+01  1.59949146e+01  1.40030740e+01  1.00782503e+00
  1.20000000e+01  1.00782503e+00  1.20000000e+01  1.59949146e+01  1.40030740e+01
  1.00782503e+00  1.00782503e+00  1.00782503e+00
Number of primitive shells                 I              235
Number of contracted shells                I              120
Pure/Cartesian d shells                    I                0
Pure/Cartesian f shells                    I                0
Highest angular momentum                   I                2
Largest degree of contraction              I                6
Shell types                                I   N=         120
           0           0           0           1           0           0
           0           1           0           0           1           0
           1           0           1          -2           0           0
           0           0           0           0           1           1
           1           1           1          -2           0           0
           1           0           1           0           1          -2
           0           0           1           0           1           0
           1          -2           0           0           1           0
           1           0           1          -2           0           0
           1           0           1           0           1          -2
           0           0           1           0           1           0
           1          -2           0           0           0           1
           0           0           1           0           1           0
           1          -2           0           0           0           1
           0           0           1           0           1           0
           1          -2           0           0           1           0
           1           0           1          -2           0           0
           1           0           1           0           1          -2
           0           0           0           1           0           0
           0           1           0           0           0           1
Number of primitives per shell             I   N=         120
           3           1           1           1           3           1
           1           1           6           3           3           1
           1           1           1           1           6           3
           1           1           1           1           4           2
           1           1           1           1           6           3
           3           1           1           1           1           1
           6           3           3           1           1           1
           1           1           6           3           3           1
           1           1           1           1           6           3
           3           1           1           1           1           1
           6           3           3           1           1           1
           1           1           3           1           1           1
           6           3           3           1           1           1
           1           1           3           1           1           1
           6           3           3           1           1           1
           1           1           6           3           3           1
           1           1           1           1           6           3
           3           1           1           1           1           1
           3           1           1           1           3           1
           1           1           3           1           1           1
Shell to atom map                          I   N=         120
           1           1           1           1           2           2
           2           2           3           3           3           3
           3           3           3           3           4           4
           4           4           4           4           4           4
           4           4           4           4           5           5
           5           5           5           5           5           5
           6           6           6           6           6           6
           6           6           7           7           7           7
           7           7           7           7           8           8
           8           8           8           8           8           8
           9           9           9           9           9           9
           9           9          10          10          10          10
          11          11          11          11          11          11
          11          11          12          12          12          12
          13          13          13          13          13          13
          13          13          14          14          14          14
          14          14          14          14          15          15
          15          15          15          15          15          15
          16          16          16          16          17          17
          17          17          18          18          18          18
Primitive exponents                        R   N=         235
  3.38650000e+01  5.09479000e+00  1.15879000e+00  3.25840000e-01  1.02741000e-01
  7.50000000e-01  3.38650000e+01  5.09479000e+00  1.15879000e+00  3.25840000e-01
  1.02741000e-01  7.50000000e-01  4.56324000e+03  6.82024000e+02  1.54973000e+02
  4.44553000e+01  1.30290000e+01  1.82773000e+00  2.09642000e+01  4.80331000e+00
  1.45933000e+00  2.09642000e+01  4.80331000e+00  1.45933000e+00  4.83456000e-01
  4.83456000e-01  1.45585000e-01  1.45585000e-01  6.26000000e-01  9.34134000e+04
  1.39617000e+04  3.16991000e+03  9.02456000e+02  2.97158000e+02  1.08702000e+02
  1.08702000e+02  4.31553000e+01  1.81079000e+01  5.56009000e+00  2.13183000e+00
  4.20403000e-01  1.36045000e-01  4.95040000e+02  1.17221000e+02  3.77749000e+01
  1.40584000e+01  5.56574000e+00  2.26297000e+00  8.07994000e-01  2.77460000e-01
  7.71410000e-02  6.50000000e-01  4.56324000e+03  6.82024000e+02  1.54973000e+02
  4.44553000e+01  1.30290000e+01  1.82773000e+00  2.09642000e+01  4.80331000e+00
  1.45933000e+00  2.09642000e+01  4.80331000e+00  1.45933000e+00  4.83456000e-01
  4.83456000e-01  1.45585000e-01  1.45585000e-01  6.26000000e-01  6.29348000e+03
  9.49044000e+02  2.18776000e+02  6.36916000e+01  1.88282000e+01  2.72023000e+00
  3.06331000e+01  7.02614000e+00  2.11205000e+00  3.06331000e+01  7.02614000e+00
  2.11205000e+00  6.84009000e-01  6.84009000e-01  2.00878000e-01  2.00878000e-01
  9.13000000e-01  4.56324000e+03  6.82024000e+02  1.54973000e+02  4.44553000e+01
  1.30290000e+01  1.82773000e+00  2.09642000e+01  4.80331000e+00  1.45933000e+00
  2.09642000e+01  4.80331000e+00  1.45933000e+00  4.83456000e-01  4.83456000e-01
  1.45585000e-01  1.45585000e-01  6.26000000e-01  8.58850000e+03  1.29723000e+03
  2.99296000e+02  8.73771000e+01  2.56789000e+01  3.74004000e+00  4.21175000e+01
  9.62837000e+00  2.85332000e+00  4.21175000e+01  9.62837000e+00  2.85332000e+00
  9.05661000e-01  9.05661000e-01  2.55611000e-01  2.55611000e-01  1.29200000e+00
  6.29348000e+03  9.49044000e+02  2.18776000e+02  6.36916000e+01  1.88282000e+01
  2.72023000e+00  3.06331000e+01  7.02614000e+00  2.11205000e+00  3.06331000e+01
  7.02614000e+00  2.11205000e+00  6.84009000e-01  6.84009000e-01  2.00878000e-01
  2.00878000e-01  9.13000000e-01  3.38650000e+01  5.09479000e+00  1.15879000e+00
  3.25840000e-01  1.02741000e-01  7.50000000e-01  4.56324000e+03  6.82024000e+02
  1.54973000e+02  4.44553000e+01  1.30290000e+01  1.82773000e+00  2.09642000e+01
  4.80331000e+00  1.45933000e+00  2.09642000e+01  4.80331000e+00  1.45933000e+00
  4.83456000e-01  4.83456000e-01  1.45585000e-01  1.45585000e-01  6.26000000e-01
  3.38650000e+01  5.09479000e+00  1.15879000e+00  3.25840000e-01  1.02741000e-01
  7.50000000e-01  4.56324000e+03  6.82024000e+02  1.54973000e+02  4.44553000e+01
  1.30290000e+01  1.82773000e+00  2.09642000e+01  4.80331000e+00  1.45933000e+00
  2.09642000e+01  4.80331000e+00  1.45933000e+00  4.83456000e-01  4.83456000e-01
  1.45585000e-01  1.45585000e-01  6.26000000e-01  8.58850000e+03  1.29723000e+03
  2.99296000e+02  8.73771000e+01  2.56789000e+01  3.74004000e+00  4.21175000e+01
  9.62837000e+00  2.85332000e+00  4.21175000e+01  9.62837000e+00  2.85332000e+00
  9.05661000e-01  9.05661000e-01  2.55611000e-01  2.55611000e-01  1.29200000e+00
  6.29348000e+03  9.49044000e+02  2.18776000e+02  6.36916000e+01  1.88282000e+01
  2.72023000e+00  3.06331000e+01  7.02614000e+00  2.11205000e+00  3.06331000e+01
  7.02614000e+00  2.11205000e+00  6.84009000e-01  6.84009000e-01  2.00878000e-01
  2.00878000e-01  9.13000000e-01  3.38650000e+01  5.09479000e+00  1.15879000e+00
  3.25840000e-01  1.02741000e-01  7.50000000e-01  3.38650000e+01  5.09479000e+00
  1.15879000e+00  3.25840000e-01  1.02741000e-01  7.50000000e-01  3.38650000e+01
  5.09479000e+00  1.15879000e+00  3.25840000e-01  1.02741000e-01  7.50000000e-01
Contraction coefficients                   R   N=         235
  2.54938145e-02  1.90373109e-01  8.52161486e-01  1.00000000e+00  1.00000000e+00
  1.00000000e+00  2.54938145e-02  1.90373109e-01  8.52161486e-01  1.00000000e+00
  1.00000000e+00  1.00000000e+00  1.96665025e-03  1.52306019e-02  7.61269097e-02
  2.60801033e-01  6.16462078e-01  2.21006028e-01  1.14660081e-01  9.19999648e-01
 -3.03068213e-03  4.02486927e-02  2.37593957e-01  8.15853851e-01  1.00000000e+00
  1.00000000e+00  1.00000000e+00  1.00000000e+00  1.00000000e+00  7.42999957e-04
  5.79299966e-03  2.99539983e-02  1.19027993e-01  3.68431979e-01  5.77298966e-01
  1.43186060e-01  6.24465262e-01  2.83366119e-01  1.00000000e+00  1.00000000e+00
  1.00000000e+00  1.00000000e+00  8.30900251e-03  6.40240194e-02  2.77614084e-01
  7.45076225e-01  6.13711672e-01  4.43817763e-01  1.00000000e+00  1.00000000e+00
  1.00000000e+00  1.00000000e+00  1.96665025e-03  1.52306019e-02  7.61269097e-02
  2.60801033e-01  6.16462078e-01  2.21006028e-01  1.14660081e-01  9.19999648e-01
 -3.03068213e-03  4.02486927e-02  2.37593957e-01  8.15853851e-01  1.00000000e+00
  1.00000000e+00  1.00000000e+00  1.00000000e+00  1.00000000e+00  1.96978815e-03
  1.49612859e-02  7.35005308e-02  2.48936766e-01  6.02459433e-01  2.56201759e-01
  1.11906080e-01  9.21666655e-01 -2.56919183e-03  3.83119186e-02  2.37403116e-01
  8.17592398e-01  1.00000000e+00  1.00000000e+00  1.00000000e+00  1.00000000e+00
  1.00000000e+00  1.96665025e-03  1.52306019e-02  7.61269097e-02  2.60801033e-01
  6.16462078e-01  2.21006028e-01  1.14660081e-01  9.19999648e-01 -3.03068213e-03
  4.02486927e-02  2.37593957e-01  8.15853851e-01  1.00000000e+00  1.00000000e+00
  1.00000000e+00  1.00000000e+00  1.00000000e+00  1.89515008e-03  1.43859006e-02
  7.07320031e-02  2.40001011e-01  5.94797026e-01  2.80802012e-01  1.13889012e-01
  9.20811101e-01 -3.27447036e-03  3.65113974e-02  2.37152983e-01  8.19701941e-01
  1.00000000e+00  1.00000000e+00  1.00000000e+00  1.00000000e+00  1.00000000e+00
  1.96978815e-03  1.49612859e-02  7.35005308e-02  2.48936766e-01  6.02459433e-01
  2.56201759e-01  1.11906080e-01  9.21666655e-01 -2.56919183e-03  3.83119186e-02
  2.37403116e-01  8.17592398e-01  1.00000000e+00  1.00000000e+00  1.00000000e+00
  1.00000000e+00  1.00000000e+00  2.54938145e-02  1.90373109e-01  8.52161486e-01
  1.00000000e+00  1.00000000e+00  1.00000000e+00  1.96665025e-03  1.52306019e-02
  7.61269097e-02  2.60801033e-01  6.16462078e-01  2.21006028e-01  1.14660081e-01
  9.19999648e-01 -3.03068213e-03  4.02486927e-02  2.37593957e-01  8.15853851e-01
  1.00000000e+00  1.00000000e+00  1.00000000e+00  1.00000000e+00  1.00000000e+00
  2.54938145e-02  1.90373109e-01  8.52161486e-01  1.00000000e+00  1.00000000e+00
  1.00000000e+00  1.96665025e-03  1.52306019e-02  7.61269097e-02  2.60801033e-01
  6.16462078e-01  2.21006028e-01  1.14660081e-01  9.19999648e-01 -3.03068213e-03
  4.02486927e-02  2.37593957e-01  8.15853851e-01  1.00000000e+00  1.00000000e+00
  1.00000000e+00  1.00000000e+00  1.00000000e+00  1.89515008e-03  1.43859006e-02
  7.07320031e-02  2.40001011e-01  5.94797026e-01  2.80802012e-01  1.13889012e-01
  9.20811101e-01 -3.27447036e-03  3.65113974e-02  2.37152983e-01  8.19701941e-01
  1.00000000e+00  1.00000000e+00  1.00000000e+00  1.00000000e+00  1.00000000e+00
  1.96978815e-03  1.49612859e-02  7.35005308e-02  2.48936766e-01  6.02459433e-01
  2.56201759e-01  1.11906080e-01  9.21666655e-01 -2.56919183e-03  3.83119186e-02
  2.37403116e-01  8.17592398e-01  1.00000000e+00  1.00000000e+00  1.00000000e+00
  1.00000000e+00  1.00000000e+00  2.54938145e-02  1.90373109e-01  8.52161486e-01
  1.00000000e+00  1.00000000e+00  1.00000000e+00  2.54938145e-02  1.90373109e-01
  8.52161486e-01  1.00000000e+00  1.00000000e+00  1.00000000e+00  2.54938145e-02
  1.90373109e-01  8.52161486e-01  1.00000000e+00  1.00000000e+00  1.00000000e+00
Coordinates of each shell                  R   N=         360
  2.45380543e+00  1.89499701e+00 -8.59332116e-01  2.45380543e+00  1.89499701e+00
 -8.59332116e-01  2.45380543e+00  1.89499701e+00 -8.59332116e-01  2.45380543e+00
  1.89499701e+00 -8.59332116e-01  1.62730385e+00  2.10350647e+00  2.37056076e+00
  1.62730385e+00  2.10350647e+00  2.37056076e+00  1.62730385e+00  2.10350647e+00
  2.37056076e+00  1.62730385e+00  2.10350647e+00  2.37056076e+00  1.51436313e+00
  9.14038979e-01  6.94721226e-01  1.51436313e+00  9.14038979e-01  6.94721226e-01
  1.51436313e+00  9.14038979e-01  6.94721226e-01  1.51436313e+00  9.14038979e-01
  6.94721226e-01  1.51436313e+00  9.14038979e-01  6.94721226e-01  1.51436313e+00
  9.14038979e-01  6.94721226e-01  1.51436313e+00  9.14038979e-01  6.94721226e-01
  1.51436313e+00  9.14038979e-01  6.94721226e-01  3.05823289e+00 -2.11966356e+00
  1.29156750e+00  3.05823289e+00 -2.11966356e+00  1.29156750e+00  3.05823289e+00
 -2.11966356e+00  1.29156750e+00  3.05823289e+00 -2.11966356e+00  1.29156750e+00
  3.05823289e+00 -2.11966356e+00  1.29156750e+00  3.05823289e+00 -2.11966356e+00
  1.29156750e+00  3.05823289e+00 -2.11966356e+00  1.29156750e+00  3.05823289e+00
 -2.11966356e+00  1.29156750e+00  3.05823289e+00 -2.11966356e+00  1.29156750e+00
  3.05823289e+00 -2.11966356e+00  1.29156750e+00  3.05823289e+00 -2.11966356e+00
  1.29156750e+00  3.05823289e+00 -2.11966356e+00  1.29156750e+00  6.00076340e+00
 -1.00701474e+00  1.88169801e+00  6.00076340e+00 -1.00701474e+00  1.88169801e+00
  6.00076340e+00 -1.00701474e+00  1.88169801e+00  6.00076340e+00 -1.00701474e+00
  1.88169801e+00  6.00076340e+00 -1.00701474e+00  1.88169801e+00  6.00076340e+00
 -1.00701474e+00  1.88169801e+00  6.00076340e+00 -1.00701474e+00  1.88169801e+00
  6.00076340e+00 -1.00701474e+00  1.88169801e+00  8.08165669e+00 -2.87977313e-01
  2.28861266e+00  8.08165669e+00 -2.87977313e-01  2.28861266e+00  8.08165669e+00
 -2.87977313e-01  2.28861266e+00  8.08165669e+00 -2.87977313e-01  2.28861266e+00
  8.08165669e+00 -2.87977313e-01  2.28861266e+00  8.08165669e+00 -2.87977313e-01
  2.28861266e+00  8.08165669e+00 -2.87977313e-01  2.28861266e+00  8.08165669e+00
 -2.87977313e-01  2.28861266e+00 -3.41351127e+00 -2.60665538e+00 -2.75529894e+00
 -3.41351127e+00 -2.60665538e+00 -2.75529894e+00 -3.41351127e+00 -2.60665538e+00
 -2.75529894e+00 -3.41351127e+00 -2.60665538e+00 -2.75529894e+00 -3.41351127e+00
 -2.60665538e+00 -2.75529894e+00 -3.41351127e+00 -2.60665538e+00 -2.75529894e+00
 -3.41351127e+00 -2.60665538e+00 -2.75529894e+00 -3.41351127e+00 -2.60665538e+00
 -2.75529894e+00 -5.34380001e+00 -2.70381647e+00 -1.45294260e+00 -5.34380001e+00
 -2.70381647e+00 -1.45294260e+00 -5.34380001e+00 -2.70381647e+00 -1.45294260e+00
 -5.34380001e+00 -2.70381647e+00 -1.45294260e+00 -5.34380001e+00 -2.70381647e+00
 -1.45294260e+00 -5.34380001e+00 -2.70381647e+00 -1.45294260e+00 -5.34380001e+00
 -2.70381647e+00 -1.45294260e+00 -5.34380001e+00 -2.70381647e+00 -1.45294260e+00
 -1.40381294e+00 -1.10778311e+00 -2.23341162e+00 -1.40381294e+00 -1.10778311e+00
 -2.23341162e+00 -1.40381294e+00 -1.10778311e+00 -2.23341162e+00 -1.40381294e+00
 -1.10778311e+00 -2.23341162e+00 -1.40381294e+00 -1.10778311e+00 -2.23341162e+00
 -1.40381294e+00 -1.10778311e+00 -2.23341162e+00 -1.40381294e+00 -1.10778311e+00
 -2.23341162e+00 -1.40381294e+00 -1.10778311e+00 -2.23341162e+00  5.85905377e-02
 -1.07165890e+00 -3.47154657e+00  5.85905377e-02 -1.07165890e+00 -3.47154657e+00
  5.85905377e-02 -1.07165890e+00 -3.47154657e+00  5.85905377e-02 -1.07165890e+00
 -3.47154657e+00 -1.23781273e+00  4.14707981e-01  5.45169305e-02 -1.23781273e+00
  4.14707981e-01  5.45169305e-02 -1.23781273e+00  4.14707981e-01  5.45169305e-02
 -1.23781273e+00  4.14707981e-01  5.45169305e-02 -1.23781273e+00  4.14707981e-01
  5.45169305e-02 -1.23781273e+00  4.14707981e-01  5.45169305e-02 -1.23781273e+00
  4.14707981e-01  5.45169305e-02 -1.23781273e+00  4.14707981e-01  5.45169305e-02
 -2.16133066e+00 -6.65645906e-01  1.56649835e+00 -2.16133066e+00 -6.65645906e-01
  1.56649835e+00 -2.16133066e+00 -6.65645906e-01  1.56649835e+00 -2.16133066e+00
 -6.65645906e-01  1.56649835e+00 -2.61643391e+00  2.97066380e+00 -1.87196835e-01
 -2.61643391e+00  2.97066380e+00 -1.87196835e-01 -2.61643391e+00  2.97066380e+00
 -1.87196835e-01 -2.61643391e+00  2.97066380e+00 -1.87196835e-01 -2.61643391e+00
  2.97066380e+00 -1.87196835e-01 -2.61643391e+00  2.97066380e+00 -1.87196835e-01
 -2.61643391e+00  2.97066380e+00 -1.87196835e-01 -2.61643391e+00  2.97066380e+00
 -1.87196835e-01 -1.55265482e+00  4.97191846e+00  3.33323099e-01 -1.55265482e+00
  4.97191846e+00  3.33323099e-01 -1.55265482e+00  4.97191846e+00  3.33323099e-01
 -1.55265482e+00  4.97191846e+00  3.33323099e-01 -1.55265482e+00  4.97191846e+00
  3.33323099e-01 -1.55265482e+00  4.97191846e+00  3.33323099e-01 -1.55265482e+00
  4.97191846e+00  3.33323099e-01 -1.55265482e+00  4.97191846e+00  3.33323099e-01
 -5.04583925e+00  2.77316661e+00 -9.62206288e-01 -5.04583925e+00  2.77316661e+00
 -9.62206288e-01 -5.04583925e+00  2.77316661e+00 -9.62206288e-01 -5.04583925e+00
  2.77316661e+00 -9.62206288e-01 -5.04583925e+00  2.77316661e+00 -9.62206288e-01
 -5.04583925e+00  2.77316661e+00 -9.62206288e-01 -5.04583925e+00  2.77316661e+00
 -9.62206288e-01 -5.04583925e+00  2.77316661e+00 -9.62206288e-01 -3.16183663e+00
 -3.75176788e+00 -4.47533363e+00 -3.16183663e+00 -3.75176788e+00 -4.47533363e+00
 -3.16183663e+00 -3.75176788e+00 -4.47533363e+00 -3.16183663e+00 -3.75176788e+00
 -4.47533363e+00 -5.91142336e+00  1.06212904e+00 -1.04101473e+00 -5.91142336e+00
  1.06212904e+00 -1.04101473e+00 -5.91142336e+00  1.06212904e+00 -1.04101473e+00
 -5.91142336e+00  1.06212904e+00 -1.04101473e+00 -6.09324838e+00  4.37270422e+00
 -9.82191899e-01 -6.09324838e+00  4.37270422e+00 -9.82191899e-01 -6.09324838e+00
  4.37270422e+00 -9.82191899e-01 -6.09324838e+00  4.37270422e+00 -9.82191899e-01
Total Energy                               R     -9.058912795616833e+02
Alpha Orbital Energies                     R   N=         248
 -9.20259468e+01 -2.05603887e+01 -2.05379741e+01 -1.56349798e+01 -1.55953980e+01
 -1.55915688e+01 -1.13943417e+01 -1.13775832e+01 -1.13299712e+01 -1.13111400e+01
 -1.13085817e+01 -9.02811614e+00 -6.71069143e+00 -6.70881265e+00 -6.70727049e+00
 -1.41879122e+00 -1.39728767e+00 -1.28684427e+00 -1.22565193e+00 -1.22452983e+00
 -1.12733580e+00 -1.03858596e+00 -9.14649779e-01 -8.74359859e-01 -8.15599355e-01
 -7.65041993e-01 -7.58965126e-01 -7.13667871e-01 -7.03378863e-01 -6.70405121e-01
 -6.41885395e-01 -6.25830162e-01 -6.11433432e-01 -5.94894769e-01 -5.89161393e-01
 -5.65012140e-01 -5.59182687e-01 -5.35084127e-01 -5.18300767e-01 -4.77134923e-01
 -4.68416878e-01 -4.56151933e-01 -4.29549807e-01 -4.20825957e-01 -3.89288450e-01
  1.06168797e-01  1.20962036e-01  1.32968803e-01  1.50428339e-01  1.57089479e-01
  1.68351138e-01  1.71165015e-01  1.77492791e-01  1.81180714e-01  1.99663308e-01
  2.10953824e-01  2.33767231e-01  2.56729233e-01  2.81763132e-01  2.95414435e-01
  3.23117305e-01  3.41566354e-01  3.66328146e-01  3.78829411e-01  4.05081188e-01
  4.33700961e-01  4.41171233e-01  4.54305054e-01  5.08751421e-01  5.15835242e-01
  5.29692489e-01  5.31875916e-01  5.61311593e-01  5.70232881e-01  5.92257871e-01
  6.07163116e-01  6.14206082e-01  6.45770572e-01  6.60279952e-01  6.76974623e-01
  6.84902958e-01  7.07102132e-01  7.38588628e-01  7.39461748e-01  7.48594852e-01
  7.54536033e-01  7.57125083e-01  7.70701654e-01  7.83604635e-01  7.89100393e-01
  8.08237680e-01  8.25791554e-01  8.47401475e-01  8.60369056e-01  8.76176049e-01
  9.02488473e-01  9.12269444e-01  9.32411375e-01  9.39241299e-01  9.57675009e-01
  9.72098236e-01  9.88783480e-01  1.00074567e+00  1.00887968e+00  1.04005180e+00
  1.05186456e+00  1.07611480e+00  1.11459366e+00  1.12473280e+00  1.16492555e+00
  1.17038877e+00  1.19611056e+00  1.20487080e+00  1.21738309e+00  1.25826626e+00
  1.29546712e+00  1.34453679e+00  1.36158106e+00  1.37484311e+00  1.40277637e+00
  1.41589723e+00  1.44811997e+00  1.47138718e+00  1.49097143e+00  1.51199111e+00
  1.51977957e+00  1.53689361e+00  1.54664791e+00  1.61789920e+00  1.64967084e+00
  1.67407806e+00  1.70190269e+00  1.71170502e+00  1.72806430e+00  1.74988303e+00
  1.75767532e+00  1.77829210e+00  1.80054516e+00  1.80307467e+00  1.81891003e+00
  1.85443831e+00  1.87490489e+00  1.90281933e+00  1.92453576e+00  1.94941357e+00
  1.98335383e+00  1.99732643e+00  2.02028232e+00  2.02394577e+00  2.03649184e+00
  2.04250418e+00  2.08181542e+00  2.11666308e+00  2.12717145e+00  2.18266300e+00
  2.18461926e+00  2.25905411e+00  2.27732999e+00  2.32589970e+00  2.34811548e+00
  2.35718641e+00  2.36878823e+00  2.38636828e+00  2.40642222e+00  2.42446274e+00
  2.47215551e+00  2.55122078e+00  2.59429758e+00  2.63667591e+00  2.64463706e+00
  2.68795820e+00  2.72511693e+00  2.73598147e+00  2.74242851e+00  2.76306994e+00
  2.77825249e+00  2.79010839e+00  2.81690330e+00  2.83856467e+00  2.87887083e+00
  2.89162289e+00  2.91723300e+00  2.93217798e+00  2.98687980e+00  3.04659258e+00
  3.06181464e+00  3.08415808e+00  3.10761269e+00  3.15469017e+00  3.15537935e+00
  3.17598197e+00  3.17754833e+00  3.18910384e+00  3.25703878e+00  3.28773339e+00
  3.29153756e+00  3.31406370e+00  3.33781504e+00  3.38975173e+00  3.42576748e+00
  3.45197241e+00  3.50340515e+00  3.53564936e+00  3.55532883e+00  3.69365426e+00
  3.70421987e+00  3.72466959e+00  3.72742461e+00  3.76355311e+00  3.90348468e+00
  3.92525071e+00  3.96416259e+00  4.06805869e+00  4.10229213e+00  4.12454932e+00
  4.24074037e+00  4.25739294e+00  4.27653174e+00  4.29589970e+00  4.31130300e+00
  4.41670871e+00  4.58419910e+00  4.87905080e+00  5.23292904e+00  5.26980832e+00
  5.34032885e+00  5.39970292e+00  5.47409711e+00  5.48727364e+00  5.62270258e+00
  5.65201455e+00  6.17143341e+00  6.20944825e+00  8.37804076e+00  1.82801063e+01
  1.84289076e+01  1.85316933e+01  2.48988794e+01  2.49014724e+01  2.49398182e+01
  2.49544792e+01  2.50194332e+01  3.69565439e+01  3.70416403e+01  3.71154772e+01
  5.16335702e+01  5.16890792e+01  1.92191383e+02
Alpha MO coefficients                      R   N=       61504
 -5.00454046e-06 -3.58244300e-06  2.12195512e-05  4.25810358e-06 -6.72120673e-07
 -3.99197063e-06 -3.42332554e-06 -1.54582817e-05  2.42977741e-05  2.45158349e-06
  1.65930118e-06  6.74767124e-06  5.39148152e-07 -2.80061406e-07  5.68953877e-06
 -1.30390900e-05  2.25819625e-06  5.38772076e-06 -1.29498745e-05  3.53642349e-05
 -4.61359301e-06  5.18041701e-05  1.36657136e-05 -3.59102347e-05  1.32834412e-05
  1.13993502e-05 -3.52595156e-06  6.53307458e-06  9.39695893e-06  1.35998029e-05
  4.11056907e-01  6.54977105e-01  1.22360477e-02 -1.40785007e-03  4.46463998e-04
 -2.74575209e-04  7.28923403e-05  1.18854331e-04  6.90929867e-06 -2.65787720e-05
 -4.32681570e-05 -2.54859654e-06  1.31169668e-05  2.46976775e-05  1.34170879e-06
  1.98421966e-05  2.83408565e-06  2.76327909e-06 -6.00000852e-06 -6.46521325e-05
  8.23732172e-06 -1.25720742e-05  7.35368127e-06 -1.29371219e-07  1.00448165e-05
  5.76869093e-06 -2.30284481e-06  8.80006055e-06 -1.39084576e-05 -4.60650184e-06
 -3.24587431e-06 -9.85570644e-06  4.17335097e-05  1.35790964e-05  9.86813848e-06
  1.09975514e-04  2.45668136e-05  1.78885136e-05 -4.43605445e-08  1.85551236e-05
 -1.17061645e-05 -3.98090946e-06 -2.28727432e-05 -2.03902981e-05  1.23943155e-06
 -4.30646221e-06 -1.06975013e-06 -4.74261761e-07 -1.49459795e-07  2.88575800e-05
 -7.07013259e-06 -1.86868441e-06 -1.62700690e-06 -9.57886097e-05  4.03916796e-05
  1.28733117e-05  9.47823887e-06 -3.79388244e-07  5.45053676e-08 -9.29021084e-08
  6.08026587e-07 -1.26069387e-07  9.41776134e-08 -2.98663033e-07 -1.15906823e-07
 -3.43327413e-07 -4.70871636e-07  3.69016391e-06  9.54629945e-07  1.85087882e-06
  2.81300947e-06 -1.07810050e-05 -1.41125176e-05  5.78699502e-07 -2.04040922e-06
 -6.05166663e-07 -4.62732482e-07 -1.23938705e-06 -1.58793511e-06 -7.18747714e-07
  1.54867742e-08 -8.22106111e-08  1.11392532e-07  4.81251482e-08  1.67505166e-08
  4.74645071e-07 -3.95232165e-07 -1.45597468e-07 -1.24352486e-07 -2.72140356e-06
  1.70554413e-06  7.05263030e-08  9.52958002e-07 -9.31252572e-08 -1.24938135e-07
  1.09404105e-07  8.55479490e-09  4.40397699e-08 -7.05039882e-08  2.61688484e-07
  1.34091217e-06 -1.17209808e-06  1.42191968e-06 -2.97133770e-06 -4.18971420e-06
  3.48421466e-06 -5.58204552e-06  2.02105571e-05  1.74395921e-05 -3.51227617e-06
  9.28219747e-07  2.72375349e-07 -1.91338019e-06  1.52591795e-06  6.08009047e-07
  2.69114697e-07  2.59471969e-06 -2.51819028e-05  2.13598130e-05  1.76569542e-06
 -4.87605518e-07 -2.16041009e-06 -3.17327180e-07  8.00785741e-07  2.01234471e-06
 -2.64877159e-07 -1.24541699e-07 -1.73664371e-06 -1.02780277e-05  3.42451364e-06
  6.66536549e-07 -2.43178280e-05  7.09835370e-06 -2.83058816e-05  8.60243947e-06
 -3.19878339e-07 -3.74970962e-07 -3.13896930e-06 -2.63821638e-06 -1.93870313e-06
  8.63567582e-07 -1.13512590e-05  4.30025788e-06 -1.23028492e-06  6.67710394e-07
  1.39903137e-06 -2.38055222e-07  6.77157378e-07 -4.20944858e-07  1.04755710e-07
 -1.00183863e-07 -3.94665008e-06  3.54052813e-07 -8.02745024e-07  1.07512867e-07
  1.63879840e-05  9.29894084e-06 -1.75164193e-05 -1.80413827e-06  1.68249839e-07
  2.26702133e-07  1.87470329e-07  2.60294735e-06 -4.51726403e-07 -8.08633334e-08
  4.08415531e-07  5.51651709e-08 -1.71254892e-07 -4.39255736e-08 -2.95309304e-06
 -1.72601817e-07  6.32393802e-07  1.57607466e-07  1.07131805e-05 -3.68898254e-06
 -4.31378916e-06 -1.64757090e-06 -5.78476578e-07  3.02722308e-07  3.45528182e-07
  6.28124133e-08  4.84293262e-07 -1.17858291e-07  4.05885715e-07  3.18999723e-07
 -9.91886651e-08  9.94903558e-08 -2.36034069e-06 -1.59454265e-06  2.41032450e-07
 -4.80281863e-07  4.58974376e-06  4.10390371e-06 -3.43054037e-07  1.62344952e-06
 -2.96439499e-07 -1.01595818e-08  8.92276330e-08 -2.27130372e-07  1.21297870e-08
 -1.09687083e-06  8.34362303e-06 -6.49743343e-06  6.37619221e-07  5.98489039e-07
  1.57245938e-06 -5.08138019e-07  3.58597430e-07 -1.70490609e-06 -4.29078748e-07
 -6.07774947e-08 -3.25512948e-07 -4.73800107e-07  1.42471482e-06  2.70445862e-06
  3.85054534e-07 -5.04578366e-08  1.05252413e-07 -7.56077657e-07  1.50139773e-05
 -6.67375772e-06  5.56096555e-08  8.72099215e-07  3.05069222e-06  2.13048168e-06
 -1.24973433e-05 -2.11730632e-06 -2.73718287e-07  4.20293570e-06 -3.75119970e-07
  6.63250135e-08 -2.55436075e-07  1.62113166e-06  3.15426123e-07  7.93399903e-07
 -4.54719708e-06 -9.67227769e-06  7.46813434e-07 -1.43707558e-06  1.08599726e-04