Generated by Psi4
        SP                        DF-MP2                      6-311G**
Number of atoms                            I               19
Charge                                     I                0
Multiplicity                               I                1
Number of electrons                        I               72
Number of alpha electrons                  I               36
Number of beta electrons                   I               36
Number of basis functions                  I              234
Number of independent functions            I              234
Atomic numbers                             I   N=          19
           6           7           6           6           6           6
           6           6           6           1           1           8
           1           1           1           1           1           1
           1
Nuclear charges                            R   N=          19
  6.00000000e+00  7.00000000e+00  6.00000000e+00  6.00000000e+00  6.00000000e+00
  6.00000000e+00  6.00000000e+00  6.00000000e+00  6.00000000e+00  1.00000000e+00
  1.00000000e+00  8.00000000e+00  1.00000000e+00  1.00000000e+00  1.00000000e+00
  1.00000000e+00  1.00000000e+00  1.00000000e+00  1.00000000e+00
Current cartesian coordinates              R   N=          57
  4.35270635e+00  4.27546563e-01  9.22353678e-01  2.08439613e+00 -6.02348504e-01
  1.66825494e+00 -1.82630195e-01 -2.28118529e-01  2.78267585e-01 -1.53662927e-01
 -1.59498575e-01 -2.36953852e+00  1.94828170e+00 -1.87386762e+00  4.10612954e+00
 -2.48507845e+00 -2.08344400e-02  1.56651104e+00 -4.72985265e+00  2.76216186e-01
  2.21773879e-01 -4.70599851e+00  3.68154938e-01 -2.40922035e+00 -2.40943175e+00
  1.59455342e-01 -3.68596798e+00 -2.54056306e+00 -5.25674944e-02  3.61624329e+00
  1.61901952e+00 -3.18059965e-01 -3.37569734e+00  4.73970181e+00  1.68059050e+00
 -9.85388980e-01  3.85417201e+00 -2.40628845e+00  4.68577258e+00  8.06872975e-01
 -3.58386712e+00  3.93102520e+00  1.13620292e+00 -6.68050602e-01  5.57754764e+00
 -6.50257104e+00  4.38336821e-01  1.24685838e+00 -2.36570933e+00  2.16028335e-01
 -5.73879783e+00 -6.45725824e+00  6.06824592e-01 -3.45436562e+00  5.87455402e+00
 -2.18701340e-02  2.27961098e+00
Integer atomic weights                     I   N=          19
          12          14          12          12          12          12
          12          12          12           1           1          16
           1           1           1           1           1           1
           1
Real atomic weights                        R   N=          19
  1.20000000e+01  1.40030740e+01  1.20000000e+01  1.20000000e+01  1.20000000e+01
  1.20000000e+01  1.20000000e+01  1.20000000e+01  1.20000000e+01  1.00782503e+00
  1.00782503e+00  1.59949146e+01  1.00782503e+00  1.00782503e+00  1.00782503e+00
  1.00782503e+00  1.00782503e+00  1.00782503e+00  1.00782503e+00
Number of primitive shells                 I              224
Number of contracted shells                I              116
Pure/Cartesian d shells                    I                0
Pure/Cartesian f shells                    I                0
Highest angular momentum                   I                2
Largest degree of contraction              I                6
Shell types                                I   N=         116
           0           0           1           0           1           0
           1          -2           0           0           1           0
           1           0           1          -2           0           0
           1           0           1           0           1          -2
           0           0           1           0           1           0
           1          -2           0           0           1           0
           1           0           1          -2           0           0
           1           0           1           0           1          -2
           0           0           1           0           1           0
           1          -2           0           0           1           0
           1           0           1          -2           0           0
           1           0           1           0           1          -2
           0           0           0           1           0           0
           0           1           0           0           1           0
           1           0           1          -2           0           0
           0           1           0           0           0           1
           0           0           0           1           0           0
           0           1           0           0           0           1
           0           0           0           1           0           0
           0           1
Number of primitives per shell             I   N=         116
           6           3           3           1           1           1
           1           1           6           3           3           1
           1           1           1           1           6           3
           3           1           1           1           1           1
           6           3           3           1           1           1
           1           1           6           3           3           1
           1           1           1           1           6           3
           3           1           1           1           1           1
           6           3           3           1           1           1
           1           1           6           3           3           1
           1           1           1           1           6           3
           3           1           1           1           1           1
           3           1           1           1           3           1
           1           1           6           3           3           1
           1           1           1           1           3           1
           1           1           3           1           1           1
           3           1           1           1           3           1
           1           1           3           1           1           1
           3           1           1           1           3           1
           1           1
Shell to atom map                          I   N=         116
           1           1           1           1           1           1
           1           1           2           2           2           2
           2           2           2           2           3           3
           3           3           3           3           3           3
           4           4           4           4           4           4
           4           4           5           5           5           5
           5           5           5           5           6           6
           6           6           6           6           6           6
           7           7           7           7           7           7
           7           7           8           8           8           8
           8           8           8           8           9           9
           9           9           9           9           9           9
          10          10          10          10          11          11
          11          11          12          12          12          12
          12          12          12          12          13          13
          13          13          14          14          14          14
          15          15          15          15          16          16
          16          16          17          17          17          17
          18          18          18          18          19          19
          19          19
Primitive exponents                        R   N=         224
  4.56324000e+03  6.82024000e+02  1.54973000e+02  4.44553000e+01  1.30290000e+01
  1.82773000e+00  2.09642000e+01  4.80331000e+00  1.45933000e+00  2.09642000e+01
  4.80331000e+00  1.45933000e+00  4.83456000e-01  4.83456000e-01  1.45585000e-01
  1.45585000e-01  6.26000000e-01  6.29348000e+03  9.49044000e+02  2.18776000e+02
  6.36916000e+01  1.88282000e+01  2.72023000e+00  3.06331000e+01  7.02614000e+00
  2.11205000e+00  3.06331000e+01  7.02614000e+00  2.11205000e+00  6.84009000e-01
  6.84009000e-01  2.00878000e-01  2.00878000e-01  9.13000000e-01  4.56324000e+03
  6.82024000e+02  1.54973000e+02  4.44553000e+01  1.30290000e+01  1.82773000e+00
  2.09642000e+01  4.80331000e+00  1.45933000e+00  2.09642000e+01  4.80331000e+00
  1.45933000e+00  4.83456000e-01  4.83456000e-01  1.45585000e-01  1.45585000e-01
  6.26000000e-01  4.56324000e+03  6.82024000e+02  1.54973000e+02  4.44553000e+01
  1.30290000e+01  1.82773000e+00  2.09642000e+01  4.80331000e+00  1.45933000e+00
  2.09642000e+01  4.80331000e+00  1.45933000e+00  4.83456000e-01  4.83456000e-01
  1.45585000e-01  1.45585000e-01  6.26000000e-01  4.56324000e+03  6.82024000e+02
  1.54973000e+02  4.44553000e+01  1.30290000e+01  1.82773000e+00  2.09642000e+01
  4.80331000e+00  1.45933000e+00  2.09642000e+01  4.80331000e+00  1.45933000e+00
  4.83456000e-01  4.83456000e-01  1.45585000e-01  1.45585000e-01  6.26000000e-01
  4.56324000e+03  6.82024000e+02  1.54973000e+02  4.44553000e+01  1.30290000e+01
  1.82773000e+00  2.09642000e+01  4.80331000e+00  1.45933000e+00  2.09642000e+01
  4.80331000e+00  1.45933000e+00  4.83456000e-01  4.83456000e-01  1.45585000e-01
  1.45585000e-01  6.26000000e-01  4.56324000e+03  6.82024000e+02  1.54973000e+02
  4.44553000e+01  1.30290000e+01  1.82773000e+00  2.09642000e+01  4.80331000e+00
  1.45933000e+00  2.09642000e+01  4.80331000e+00  1.45933000e+00  4.83456000e-01
  4.83456000e-01  1.45585000e-01  1.45585000e-01  6.26000000e-01  4.56324000e+03
  6.82024000e+02  1.54973000e+02  4.44553000e+01  1.30290000e+01  1.82773000e+00
  2.09642000e+01  4.80331000e+00  1.45933000e+00  2.09642000e+01  4.80331000e+00
  1.45933000e+00  4.83456000e-01  4.83456000e-01  1.45585000e-01  1.45585000e-01
  6.26000000e-01  4.56324000e+03  6.82024000e+02  1.54973000e+02  4.44553000e+01
  1.30290000e+01  1.82773000e+00  2.09642000e+01  4.80331000e+00  1.45933000e+00
  2.09642000e+01  4.80331000e+00  1.45933000e+00  4.83456000e-01  4.83456000e-01
  1.45585000e-01  1.45585000e-01  6.26000000e-01  3.38650000e+01  5.09479000e+00
  1.15879000e+00  3.25840000e-01  1.02741000e-01  7.50000000e-01  3.38650000e+01
  5.09479000e+00  1.15879000e+00  3.25840000e-01  1.02741000e-01  7.50000000e-01
  8.58850000e+03  1.29723000e+03  2.99296000e+02  8.73771000e+01  2.56789000e+01
  3.74004000e+00  4.21175000e+01  9.62837000e+00  2.85332000e+00  4.21175000e+01
  9.62837000e+00  2.85332000e+00  9.05661000e-01  9.05661000e-01  2.55611000e-01
  2.55611000e-01  1.29200000e+00  3.38650000e+01  5.09479000e+00  1.15879000e+00
  3.25840000e-01  1.02741000e-01  7.50000000e-01  3.38650000e+01  5.09479000e+00
  1.15879000e+00  3.25840000e-01  1.02741000e-01  7.50000000e-01  3.38650000e+01
  5.09479000e+00  1.15879000e+00  3.25840000e-01  1.02741000e-01  7.50000000e-01
  3.38650000e+01  5.09479000e+00  1.15879000e+00  3.25840000e-01  1.02741000e-01
  7.50000000e-01  3.38650000e+01  5.09479000e+00  1.15879000e+00  3.25840000e-01
  1.02741000e-01  7.50000000e-01  3.38650000e+01  5.09479000e+00  1.15879000e+00
  3.25840000e-01  1.02741000e-01  7.50000000e-01  3.38650000e+01  5.09479000e+00
  1.15879000e+00  3.25840000e-01  1.02741000e-01  7.50000000e-01
Contraction coefficients                   R   N=         224
  1.96665025e-03  1.52306019e-02  7.61269097e-02  2.60801033e-01  6.16462078e-01
  2.21006028e-01  1.14660081e-01  9.19999648e-01 -3.03068213e-03  4.02486927e-02
  2.37593957e-01  8.15853851e-01  1.00000000e+00  1.00000000e+00  1.00000000e+00
  1.00000000e+00  1.00000000e+00  1.96978815e-03  1.49612859e-02  7.35005308e-02
  2.48936766e-01  6.02459433e-01  2.56201759e-01  1.11906080e-01  9.21666655e-01
 -2.56919183e-03  3.83119186e-02  2.37403116e-01  8.17592398e-01  1.00000000e+00
  1.00000000e+00  1.00000000e+00  1.00000000e+00  1.00000000e+00  1.96665025e-03
  1.52306019e-02  7.61269097e-02  2.60801033e-01  6.16462078e-01  2.21006028e-01
  1.14660081e-01  9.19999648e-01 -3.03068213e-03  4.02486927e-02  2.37593957e-01
  8.15853851e-01  1.00000000e+00  1.00000000e+00  1.00000000e+00  1.00000000e+00
  1.00000000e+00  1.96665025e-03  1.52306019e-02  7.61269097e-02  2.60801033e-01
  6.16462078e-01  2.21006028e-01  1.14660081e-01  9.19999648e-01 -3.03068213e-03
  4.02486927e-02  2.37593957e-01  8.15853851e-01  1.00000000e+00  1.00000000e+00
  1.00000000e+00  1.00000000e+00  1.00000000e+00  1.96665025e-03  1.52306019e-02
  7.61269097e-02  2.60801033e-01  6.16462078e-01  2.21006028e-01  1.14660081e-01
  9.19999648e-01 -3.03068213e-03  4.02486927e-02  2.37593957e-01  8.15853851e-01
  1.00000000e+00  1.00000000e+00  1.00000000e+00  1.00000000e+00  1.00000000e+00
  1.96665025e-03  1.52306019e-02  7.61269097e-02  2.60801033e-01  6.16462078e-01
  2.21006028e-01  1.14660081e-01  9.19999648e-01 -3.03068213e-03  4.02486927e-02
  2.37593957e-01  8.15853851e-01  1.00000000e+00  1.00000000e+00  1.00000000e+00
  1.00000000e+00  1.00000000e+00  1.96665025e-03  1.52306019e-02  7.61269097e-02
  2.60801033e-01  6.16462078e-01  2.21006028e-01  1.14660081e-01  9.19999648e-01
 -3.03068213e-03  4.02486927e-02  2.37593957e-01  8.15853851e-01  1.00000000e+00
  1.00000000e+00  1.00000000e+00  1.00000000e+00  1.00000000e+00  1.96665025e-03
  1.52306019e-02  7.61269097e-02  2.60801033e-01  6.16462078e-01  2.21006028e-01
  1.14660081e-01  9.19999648e-01 -3.03068213e-03  4.02486927e-02  2.37593957e-01
  8.15853851e-01  1.00000000e+00  1.00000000e+00  1.00000000e+00  1.00000000e+00
  1.00000000e+00  1.96665025e-03  1.52306019e-02  7.61269097e-02  2.60801033e-01
  6.16462078e-01  2.21006028e-01  1.14660081e-01  9.19999648e-01 -3.03068213e-03
  4.02486927e-02  2.37593957e-01  8.15853851e-01  1.00000000e+00  1.00000000e+00
  1.00000000e+00  1.00000000e+00  1.00000000e+00  2.54938145e-02  1.90373109e-01
  8.52161486e-01  1.00000000e+00  1.00000000e+00  1.00000000e+00  2.54938145e-02
  1.90373109e-01  8.52161486e-01  1.00000000e+00  1.00000000e+00  1.00000000e+00
  1.89515008e-03  1.43859006e-02  7.07320031e-02  2.40001011e-01  5.94797026e-01
  2.80802012e-01  1.13889012e-01  9.20811101e-01 -3.27447036e-03  3.65113974e-02
  2.37152983e-01  8.19701941e-01  1.00000000e+00  1.00000000e+00  1.00000000e+00
  1.00000000e+00  1.00000000e+00  2.54938145e-02  1.90373109e-01  8.52161486e-01
  1.00000000e+00  1.00000000e+00  1.00000000e+00  2.54938145e-02  1.90373109e-01
  8.52161486e-01  1.00000000e+00  1.00000000e+00  1.00000000e+00  2.54938145e-02
  1.90373109e-01  8.52161486e-01  1.00000000e+00  1.00000000e+00  1.00000000e+00
  2.54938145e-02  1.90373109e-01  8.52161486e-01  1.00000000e+00  1.00000000e+00
  1.00000000e+00  2.54938145e-02  1.90373109e-01  8.52161486e-01  1.00000000e+00
  1.00000000e+00  1.00000000e+00  2.54938145e-02  1.90373109e-01  8.52161486e-01
  1.00000000e+00  1.00000000e+00  1.00000000e+00  2.54938145e-02  1.90373109e-01
  8.52161486e-01  1.00000000e+00  1.00000000e+00  1.00000000e+00
Coordinates of each shell                  R   N=         348
  4.35270635e+00  4.27546563e-01  9.22353678e-01  4.35270635e+00  4.27546563e-01
  9.22353678e-01  4.35270635e+00  4.27546563e-01  9.22353678e-01  4.35270635e+00
  4.27546563e-01  9.22353678e-01  4.35270635e+00  4.27546563e-01  9.22353678e-01
  4.35270635e+00  4.27546563e-01  9.22353678e-01  4.35270635e+00  4.27546563e-01
  9.22353678e-01  4.35270635e+00  4.27546563e-01  9.22353678e-01  2.08439613e+00
 -6.02348504e-01  1.66825494e+00  2.08439613e+00 -6.02348504e-01  1.66825494e+00
  2.08439613e+00 -6.02348504e-01  1.66825494e+00  2.08439613e+00 -6.02348504e-01
  1.66825494e+00  2.08439613e+00 -6.02348504e-01  1.66825494e+00  2.08439613e+00
 -6.02348504e-01  1.66825494e+00  2.08439613e+00 -6.02348504e-01  1.66825494e+00
  2.08439613e+00 -6.02348504e-01  1.66825494e+00 -1.82630195e-01 -2.28118529e-01
  2.78267585e-01 -1.82630195e-01 -2.28118529e-01  2.78267585e-01 -1.82630195e-01
 -2.28118529e-01  2.78267585e-01 -1.82630195e-01 -2.28118529e-01  2.78267585e-01
 -1.82630195e-01 -2.28118529e-01  2.78267585e-01 -1.82630195e-01 -2.28118529e-01
  2.78267585e-01 -1.82630195e-01 -2.28118529e-01  2.78267585e-01 -1.82630195e-01
 -2.28118529e-01  2.78267585e-01 -1.53662927e-01 -1.59498575e-01 -2.36953852e+00
 -1.53662927e-01 -1.59498575e-01 -2.36953852e+00 -1.53662927e-01 -1.59498575e-01
 -2.36953852e+00 -1.53662927e-01 -1.59498575e-01 -2.36953852e+00 -1.53662927e-01
 -1.59498575e-01 -2.36953852e+00 -1.53662927e-01 -1.59498575e-01 -2.36953852e+00
 -1.53662927e-01 -1.59498575e-01 -2.36953852e+00 -1.53662927e-01 -1.59498575e-01
 -2.36953852e+00  1.94828170e+00 -1.87386762e+00  4.10612954e+00  1.94828170e+00
 -1.87386762e+00  4.10612954e+00  1.94828170e+00 -1.87386762e+00  4.10612954e+00
  1.94828170e+00 -1.87386762e+00  4.10612954e+00  1.94828170e+00 -1.87386762e+00
  4.10612954e+00  1.94828170e+00 -1.87386762e+00  4.10612954e+00  1.94828170e+00
 -1.87386762e+00  4.10612954e+00  1.94828170e+00 -1.87386762e+00  4.10612954e+00
 -2.48507845e+00 -2.08344400e-02  1.56651104e+00 -2.48507845e+00 -2.08344400e-02
  1.56651104e+00 -2.48507845e+00 -2.08344400e-02  1.56651104e+00 -2.48507845e+00
 -2.08344400e-02  1.56651104e+00 -2.48507845e+00 -2.08344400e-02  1.56651104e+00
 -2.48507845e+00 -2.08344400e-02  1.56651104e+00 -2.48507845e+00 -2.08344400e-02
  1.56651104e+00 -2.48507845e+00 -2.08344400e-02  1.56651104e+00 -4.72985265e+00
  2.76216186e-01  2.21773879e-01 -4.72985265e+00  2.76216186e-01  2.21773879e-01
 -4.72985265e+00  2.76216186e-01  2.21773879e-01 -4.72985265e+00  2.76216186e-01
  2.21773879e-01 -4.72985265e+00  2.76216186e-01  2.21773879e-01 -4.72985265e+00
  2.76216186e-01  2.21773879e-01 -4.72985265e+00  2.76216186e-01  2.21773879e-01
 -4.72985265e+00  2.76216186e-01  2.21773879e-01 -4.70599851e+00  3.68154938e-01
 -2.40922035e+00 -4.70599851e+00  3.68154938e-01 -2.40922035e+00 -4.70599851e+00
  3.68154938e-01 -2.40922035e+00 -4.70599851e+00  3.68154938e-01 -2.40922035e+00
 -4.70599851e+00  3.68154938e-01 -2.40922035e+00 -4.70599851e+00  3.68154938e-01
 -2.40922035e+00 -4.70599851e+00  3.68154938e-01 -2.40922035e+00 -4.70599851e+00
  3.68154938e-01 -2.40922035e+00 -2.40943175e+00  1.59455342e-01 -3.68596798e+00
 -2.40943175e+00  1.59455342e-01 -3.68596798e+00 -2.40943175e+00  1.59455342e-01
 -3.68596798e+00 -2.40943175e+00  1.59455342e-01 -3.68596798e+00 -2.40943175e+00
  1.59455342e-01 -3.68596798e+00 -2.40943175e+00  1.59455342e-01 -3.68596798e+00
 -2.40943175e+00  1.59455342e-01 -3.68596798e+00 -2.40943175e+00  1.59455342e-01
 -3.68596798e+00 -2.54056306e+00 -5.25674944e-02  3.61624329e+00 -2.54056306e+00
 -5.25674944e-02  3.61624329e+00 -2.54056306e+00 -5.25674944e-02  3.61624329e+00
 -2.54056306e+00 -5.25674944e-02  3.61624329e+00  1.61901952e+00 -3.18059965e-01
 -3.37569734e+00  1.61901952e+00 -3.18059965e-01 -3.37569734e+00  1.61901952e+00
 -3.18059965e-01 -3.37569734e+00  1.61901952e+00 -3.18059965e-01 -3.37569734e+00
  4.73970181e+00  1.68059050e+00 -9.85388980e-01  4.73970181e+00  1.68059050e+00
 -9.85388980e-01  4.73970181e+00  1.68059050e+00 -9.85388980e-01  4.73970181e+00
  1.68059050e+00 -9.85388980e-01  4.73970181e+00  1.68059050e+00 -9.85388980e-01
  4.73970181e+00  1.68059050e+00 -9.85388980e-01  4.73970181e+00  1.68059050e+00
 -9.85388980e-01  4.73970181e+00  1.68059050e+00 -9.85388980e-01  3.85417201e+00
 -2.40628845e+00  4.68577258e+00  3.85417201e+00 -2.40628845e+00  4.68577258e+00
  3.85417201e+00 -2.40628845e+00  4.68577258e+00  3.85417201e+00 -2.40628845e+00
  4.68577258e+00  8.06872975e-01 -3.58386712e+00  3.93102520e+00  8.06872975e-01
 -3.58386712e+00  3.93102520e+00  8.06872975e-01 -3.58386712e+00  3.93102520e+00
  8.06872975e-01 -3.58386712e+00  3.93102520e+00  1.13620292e+00 -6.68050602e-01
  5.57754764e+00  1.13620292e+00 -6.68050602e-01  5.57754764e+00  1.13620292e+00
 -6.68050602e-01  5.57754764e+00  1.13620292e+00 -6.68050602e-01  5.57754764e+00
 -6.50257104e+00  4.38336821e-01  1.24685838e+00 -6.50257104e+00  4.38336821e-01
  1.24685838e+00 -6.50257104e+00  4.38336821e-01  1.24685838e+00 -6.50257104e+00
  4.38336821e-01  1.24685838e+00 -2.36570933e+00  2.16028335e-01 -5.73879783e+00
 -2.36570933e+00  2.16028335e-01 -5.73879783e+00 -2.36570933e+00  2.16028335e-01
 -5.73879783e+00 -2.36570933e+00  2.16028335e-01 -5.73879783e+00 -6.45725824e+00
  6.06824592e-01 -3.45436562e+00 -6.45725824e+00  6.06824592e-01 -3.45436562e+00
 -6.45725824e+00  6.06824592e-01 -3.45436562e+00 -6.45725824e+00  6.06824592e-01
 -3.45436562e+00  5.87455402e+00 -2.18701340e-02  2.27961098e+00  5.87455402e+00
 -2.18701340e-02  2.27961098e+00  5.87455402e+00 -2.18701340e-02  2.27961098e+00
  5.87455402e+00 -2.18701340e-02  2.27961098e+00
Total Energy                               R     -4.390769673473803e+02
Alpha Orbital Energies                     R   N=         234
 -2.05253059e+01 -1.56064507e+01 -1.13584516e+01 -1.12853968e+01 -1.12827613e+01
 -1.12397125e+01 -1.12380936e+01 -1.12362088e+01 -1.12321272e+01 -1.12303863e+01
 -1.38261197e+00 -1.27158455e+00 -1.14621502e+00 -1.02230713e+00 -1.01894399e+00
 -9.64364242e-01 -8.75087524e-01 -8.30874065e-01 -7.81584240e-01 -7.01313659e-01
 -6.99253911e-01 -6.66550858e-01 -6.53154096e-01 -6.26807984e-01 -6.12194626e-01
 -5.89655260e-01 -5.87432109e-01 -5.69379536e-01 -5.45764555e-01 -5.16093758e-01
 -5.05871156e-01 -4.98451421e-01 -4.31300389e-01 -4.16292855e-01 -3.38172638e-01
 -3.12874299e-01  1.23463702e-01  1.30347096e-01  1.43413519e-01  1.62688565e-01
  1.74838798e-01  1.88294443e-01  1.93240656e-01  2.12005698e-01  2.16765533e-01
  2.35211716e-01  2.52422109e-01  2.66595943e-01  3.05701471e-01  3.50097423e-01
  3.85924390e-01  3.97932110e-01  4.19898775e-01  4.31574213e-01  4.44522022e-01
  4.49955116e-01  4.64447441e-01  5.00414044e-01  5.05962475e-01  5.45958472e-01
  5.62260691e-01  5.70347061e-01  5.84156441e-01  5.86888899e-01  6.04810795e-01
  6.17125794e-01  6.32222268e-01  6.35652755e-01  6.39143828e-01  6.64356867e-01
  6.77555921e-01  6.88614168e-01  7.07738152e-01  7.25093152e-01  7.46024287e-01
  7.58941271e-01  7.68514236e-01  7.73495982e-01  7.94030100e-01  8.08337646e-01
  8.13674080e-01  8.24424901e-01  8.27844778e-01  8.35255231e-01  8.54340112e-01
  8.62537504e-01  8.89955399e-01  9.06372654e-01  9.30168117e-01  9.35353849e-01
  9.46905833e-01  9.79518380e-01  1.00349370e+00  1.05142827e+00  1.05408402e+00
  1.06611579e+00  1.06955250e+00  1.08899929e+00  1.11271854e+00  1.12898060e+00
  1.17611147e+00  1.19447205e+00  1.20629287e+00  1.24265852e+00  1.26030508e+00
  1.29140996e+00  1.30372259e+00  1.31699242e+00  1.35395582e+00  1.39045862e+00
  1.41756373e+00  1.43054910e+00  1.46692724e+00  1.49824937e+00  1.53049488e+00
  1.58337426e+00  1.61256784e+00  1.65780390e+00  1.67736209e+00  1.69847895e+00
  1.71259424e+00  1.73033522e+00  1.73853844e+00  1.76977586e+00  1.77328268e+00
  1.78346793e+00  1.79519542e+00  1.82111770e+00  1.83351931e+00  1.84947353e+00
  1.86710920e+00  1.89266184e+00  1.90041226e+00  1.91799298e+00  1.93584419e+00
  1.96584542e+00  1.98582107e+00  2.00413261e+00  2.01843721e+00  2.05581960e+00
  2.06499931e+00  2.07759882e+00  2.10602690e+00  2.13893961e+00  2.20121417e+00
  2.20519364e+00  2.21140185e+00  2.22702294e+00  2.22827215e+00  2.24150018e+00
  2.24844562e+00  2.27266012e+00  2.29544105e+00  2.34189507e+00  2.36348834e+00
  2.37768804e+00  2.43764797e+00  2.49033894e+00  2.49765258e+00  2.57311491e+00
  2.60791858e+00  2.61548981e+00  2.65042009e+00  2.65676581e+00  2.67433215e+00
  2.68638455e+00  2.73145261e+00  2.75530653e+00  2.77236291e+00  2.79615047e+00
  2.81630903e+00  2.86585052e+00  2.89139316e+00  2.91547504e+00  2.92610149e+00
  2.93614555e+00  2.94659128e+00  2.95774902e+00  2.96147835e+00  2.97160093e+00
  3.00462734e+00  3.01797000e+00  3.02030839e+00  3.07322084e+00  3.12346398e+00
  3.13117581e+00  3.13766132e+00  3.18045973e+00  3.22895407e+00  3.25668252e+00
  3.27266227e+00  3.28435491e+00  3.30455165e+00  3.32036683e+00  3.39848596e+00
  3.41702679e+00  3.45862353e+00  3.58610661e+00  3.73222947e+00  3.75762769e+00
  3.76317647e+00  3.77460559e+00  3.83817956e+00  3.88971751e+00  3.89606145e+00
  3.93255672e+00  4.00009605e+00  4.04310977e+00  4.05488867e+00  4.13255215e+00
  4.19950944e+00  4.27654196e+00  4.31395388e+00  4.37449993e+00  4.40298851e+00
  4.45714823e+00  4.53452515e+00  4.54046354e+00  5.27357692e+00  5.38770420e+00
  5.46104209e+00  5.48791962e+00  5.64320404e+00  6.19437776e+00  2.46584603e+01
  2.49690316e+01  2.50430706e+01  2.50784686e+01  2.51000414e+01  2.52263962e+01
  2.52610521e+01  2.53510666e+01  3.69717799e+01  5.16751813e+01
Alpha MO coefficients                      R   N=       54756
  4.14718894e-06 -7.09460435e-05  9.25886251e-06  3.69860605e-05 -5.78579782e-05
  2.77046145e-04  5.15077585e-05  2.24178021e-04 -3.51118587e-04  4.12525698e-04
 -2.88631447e-05  3.52078275e-04 -5.88738894e-04  1.06314440e-04 -6.23499577e-05
 -1.30324985e-04 -7.98342781e-05  1.61532920e-05  3.86393731e-07 -1.27452074e-06
 -4.32715805e-06 -6.33239807e-06  1.02162541e-05  1.12981625e-05  4.63981817e-07
  2.02700432e-05 -3.86499360e-05  6.67283775e-05  1.78259400e-04 -8.72138951e-05
  2.17123077e-04 -3.20602443e-06 -1.61578996e-05 -4.01543193e-06 -1.23262348e-06
  1.15883133e-05  9.09139311e-07 -3.90371399e-06 -9.57015960e-06  2.59299457e-07
 -7.29494675e-06  3.50808190e-05  6.00984238e-05 -3.51776348e-06  3.81618202e-05
  2.84707583e-04 -2.36759332e-04 -2.89460456e-05 -2.41066009e-06 -5.58790928e-06
  1.26956554e-05  5.39710185e-06  2.05434416e-06 -7.57249887e-06  4.92575142e-07
 -2.23886313e-07  5.57202464e-06  6.52390652e-06 -5.42542949e-07  1.23195949e-05
 -2.74465511e-05 -2.30613210e-05  8.65333213e-06 -2.41399843e-04  2.58812872e-04
  2.70694723e-05  1.33386220e-05  1.14767671e-05 -1.59292774e-06  4.52920887e-06
 -6.61248364e-06 -4.38992164e-06 -8.92015713e-07  3.48716130e-06  3.64572980e-06
  3.57892902e-06 -6.36147538e-06 -4.15740772e-05 -1.92647322e-05 -1.84599988e-05
  3.80170976e-05 -2.92184280e-05  5.25945050e-05  5.49453270e-05 -1.64634346e-05
  1.39970940e-06  2.99915814e-06 -2.30585003e-06  3.68808258e-06 -1.58217889e-06
  3.18962916e-07 -1.52415459e-06 -1.02965588e-06 -2.59171562e-07  2.86606962e-07
  1.32356367e-05  5.97786902e-06 -1.95189164e-07 -6.48637742e-07 -3.24355311e-04
 -1.25450017e-05  1.44718378e-05  1.69749099e-04  8.25839208e-07 -6.75836918e-06
  9.26137307e-07  2.93822207e-07  9.04717913e-07 -5.85000036e-08  2.95128007e-07
 -1.79227847e-06  4.82077229e-08 -4.69357345e-07 -8.65336799e-06  1.06003408e-05
 -4.41532366e-08  2.77806646e-06  2.37719251e-04  1.07641362e-04 -2.11563291e-05
 -6.01143142e-05  8.17781145e-07  3.65396241e-06 -9.03523225e-07  2.04783909e-06
 -5.36581038e-07  1.07082964e-07 -4.62545974e-07  1.00469876e-06  5.13177057e-07
  2.39263853e-07  8.07304826e-06 -5.60141954e-06 -1.74548084e-06 -6.19226044e-07
 -2.03962953e-04 -9.12700385e-05  2.98352616e-05 -6.31864581e-05 -4.35784063e-07
  1.32550164e-06 -9.55438000e-07 -1.12940885e-06  1.02778923e-06 -1.86739537e-07
  4.97845448e-07 -1.54549894e-06 -1.83450109e-06 -1.70193222e-06 -1.07219156e-05
  7.17610009e-06  5.16466845e-06  1.00582623e-05  3.28504267e-04  3.80153676e-05
 -4.44106989e-05  1.36904149e-04 -1.34602896e-06 -5.99565239e-07 -1.33948471e-06
  2.52455543e-06 -1.75950377e-06  2.26020629e-06 -2.37378842e-05 -2.53098623e-05
 -1.55496203e-07 -2.67800573e-06  5.03961575e-07  2.97126383e-06 -5.89142773e-05
 -1.30567358e-05 -9.21123264e-06  6.76685980e-06 -2.53059606e-06  5.51478867e-01
  4.71693027e-01 -3.57905315e-04 -9.60916101e-04  1.42618323e-03  5.45362476e-03
  1.26194782e-04  3.46808303e-04 -5.25596496e-04 -1.10892569e-03  5.20246535e-05
  7.41412946e-05 -8.96393418e-05 -3.10972338e-05  6.53410053e-05 -4.14955985e-05
  1.21885576e-04  3.06016884e-05  4.79695483e-07 -1.73790676e-05  4.82076092e-05
  6.63289304e-06  2.62552891e-06 -9.27945977e-06 -2.27317109e-06  1.70767280e-05
  2.03332800e-05 -2.91665948e-06 -1.81605710e-06  4.40248724e-06  5.14877837e-06
 -2.67739799e-05  7.69166328e-06 -9.66562902e-06 -2.51930392e-06  8.51263104e-06
 -1.39902130e-06  1.69492171e-05  1.84860089e-05  1.18646944e-06  9.14791176e-07
 -1.13124236e-06 -1.96446375e-06  1.67411540e-05  1.68964258e-05 -4.03709923e-07
  2.86429480e-06  2.16706565e-06  1.34958006e-06 -1.40081159e-05 -1.67195430e-05
 -3.84588638e-07 -1.42122668e-06 -1.79904304e-07 -1.25706508e-05  1.84322718e-04
  2.46606343e-05 -4.98057219e-05 -7.02567611e-06 -8.69506071e-06  1.39451005e-05
 -2.00642012e-05 -9.56543219e-05 -4.60391909e-05  3.01984948e-05  1.90268579e-04
 -1.05619264e-04 -1.67274865e-05  1.70681442e-05  2.48801952e-04 -1.43776044e-04
 -8.69101057e-05  4.09159000e-05 -2.78520173e-05 -2.73990598e-05  3.33372903e-05
  1.25765401e-05  1.11418516e-05  5.57598320e-01  4.68185688e-01 -1.16723511e-04
  1.35107174e-04  1.32891000e-04  5.46181298e-03  1.18813594e-04 -5.49913757e-07
 -1.05461379e-04 -1.93388911e-03  2.79806762e-04 -2.43288268e-05  1.22949708e-04
 -5.60999999e-05 -4.12516012e-05  7.79078680e-05 -1.13370355e-05  8.82790516e-06
  1.04404063e-05 -3.03354128e-05  8.28405156e-05 -1.38924502e-05  4.89517471e-05
  2.30348021e-04  1.22146015e-04 -1.63456458e-05  7.72803922e-05 -2.01209423e-04
  1.07224325e-03 -1.74984580e-04  8.65619716e-04 -2.74856235e-05  8.94748859e-05
  1.02092836e-05  3.14492826e-05 -1.96227855e-05  1.25290103e-07  3.41003936e-06
  4.98449052e-06 -2.53799839e-06 -1.17095160e-05 -3.86436776e-05 -3.97696407e-05
  1.46343548e-05  4.22819797e-05  8.33678408e-04 -5.12881131e-04  4.87047274e-05
  2.92353315e-04  1.46483304e-05  1.61291752e-05  4.87232650e-06  4.38017362e-06
 -3.57778832e-06  8.78656819e-06 -2.67076916e-05  8.15146952e-06  3.02353273e-05
 -6.41530680e-05  1.45673544e-04 -1.68347301e-05  1.10125303e-04 -1.78118443e-04
  3.87228667e-04 -5.44172674e-05  6.19672139e-05 -1.19449690e-04  6.44122678e-05