11
 energy: -17.228700920749 gnorm: 0.000923801729 xtb: 6.5.0 (97a52f5)
N           -1.50744225916889       -0.80927031110197        0.11988920759277
C           -0.50573278613371        0.10106300572302       -0.04654288154152
C            0.63876793638158       -0.06395931914933        0.94974517342632
N            1.89189947081841        0.37339452095009        0.35834254916658
O           -0.50246606605505        0.88830079768084       -0.95955709787623
H            0.64789415857799       -1.11578380234226        1.28325444102720
H            0.43033748219756        0.57250875011246        1.81804522448606
H           -2.32262016069092       -0.69413611339911       -0.46315494523628
H           -1.64690155271641       -1.26930131963656        1.00297229155019
H            2.67413602661563       -0.03196919042302        0.86251313579958
H            1.95752776017381        0.03085298158574       -0.59512808839471
