11
 energy: -17.225374806807 gnorm: 0.060372289259 xtb: 6.5.0 (97a52f5)
N           -1.09595393000000       -0.86243615000000       -0.29073034000000
C           -0.67409450000000        0.32781766000000        0.25864977000000
C            0.62533624000000        0.30245877000000        1.05276284000000
N            1.73560688000000       -0.14232333000000        0.17762393000000
O           -1.24828622000000        1.40215261000000        0.05839326000000
H            0.46999699000000       -0.34748944000000        1.93111173000000
H            0.77903442000000        1.31807630000000        1.44999218000000
H           -1.99353555000000       -0.86332413000000       -0.75023369000000
H           -0.78501410000000       -1.74150276000000        0.09418433000000
H            2.49485620000000       -0.49174096000000        0.75879606000000
H            1.44745357000000       -0.91998857000000       -0.41016907000000
11
 energy: -17.228482876837 gnorm: 0.045885866218 xtb: 6.5.0 (97a52f5)
N           -1.08625478169201       -0.84189982863773       -0.28749854529600
C           -0.68831692269912        0.34021981261020        0.26126635695493
C            0.61523908353695        0.28515333782351        1.04557597668437
N            1.72678742941561       -0.14116792754230        0.19323160924915
O           -1.28105362915502        1.37960927277468        0.06356262367348
H            0.47058043677306       -0.37141473536258        1.92180721428469
H            0.81624628907928        1.30178084354930        1.40111439215967
H           -1.98376250441736       -0.85251389101801       -0.74564695908297
H           -0.76059744826627       -1.71587763060140        0.09081759952935
H            2.49009610306410       -0.47939392282583        0.77230720581116
H            1.43643594436079       -0.92279533076983       -0.38615647396784
11
 energy: -17.228023500020 gnorm: 0.181780518634 xtb: 6.5.0 (97a52f5)
N           -1.07215560127745       -0.83414367296159       -0.28576383460383
C           -0.69430175280457        0.34912685566372        0.26550200001076
C            0.61289132952138        0.28323136227983        1.04670366036523
N            1.71587061637273       -0.14362159771761        0.19454415867587
O           -1.29436881015535        1.37305410154480        0.05906475288551
H            0.46015859833207       -0.37321522371853        1.92266167151481
H            0.83346352019349        1.29423386358589        1.39581737463753
H           -1.96995935876107       -0.85468993292787       -0.74419663496133
H           -0.74222824868306       -1.70542297728815        0.09510681634948
H            2.48046521060128       -0.48481177488910        0.76869086767831
H            1.42556449666054       -0.92204100357138       -0.38774983255235
11
 energy: -17.228717049630 gnorm: 0.027897766284 xtb: 6.5.0 (97a52f5)
N           -1.07016704589887       -0.83449465419356       -0.28154602807362
C           -0.69350226832858        0.35343263792962        0.26387869547825
C            0.61274258162301        0.28309250436420        1.04766647404654
N            1.71452865959678       -0.14388068946805        0.19335520377678
O           -1.29811662227446        1.37439743727171        0.05745751419112
H            0.45310318986972       -0.37040777520723        1.92306436043735
H            0.83602634537328        1.29260778747711        1.39994904833776
H           -1.96555275884928       -0.85746065241915       -0.74401904730531
H           -0.73594509272904       -1.70404093574564        0.09752260746616
H            2.47731678210931       -0.49087196780499        0.76629732472030
H            1.42496622950814       -0.92067369220402       -0.39324515307532
11
 energy: -17.228698306216 gnorm: 0.039664508644 xtb: 6.5.0 (97a52f5)
N           -1.07176184400980       -0.83695342580900       -0.28215978936169
C           -0.69241335681887        0.35265339535946        0.26299254659346
C            0.61339736825218        0.28443519969478        1.04726951344524
N            1.71768998193733       -0.14277029068083        0.19380874890405
O           -1.29570319736702        1.37751782469365        0.05618369450565
H            0.45338302151113       -0.36930172411651        1.92216236647967
H            0.83335363002736        1.29460215572315        1.40490726875761
H           -1.96807077901953       -0.85968111344409       -0.74338015251963
H           -0.74072155838827       -1.70742832641190        0.09850890302415
H            2.47891931654831       -0.49347235358940        0.76628743626380
H            1.42732741732717       -0.91790134141930       -0.39619953609231
11
 energy: -17.228757273533 gnorm: 0.006239524251 xtb: 6.5.0 (97a52f5)
N           -1.07067531376802       -0.83669852811618       -0.28164498450391
C           -0.69235496386441        0.35337757042059        0.26309762718002
C            0.61371853313980        0.28530950928310        1.04814474870423
N            1.71565331447751       -0.14336052967088        0.19333677368264
O           -1.29608865570719        1.37713048907479        0.05525536078435
H            0.45317247054362       -0.36977509711692        1.92222921918163
H            0.83461946520684        1.29440788455014        1.40573504557462
H           -1.96632622598409       -0.86024557076999       -0.74393433067851
H           -0.73915338229647       -1.70688880396703        0.09882458051003
H            2.47774835085037       -0.49369225995337        0.76557444827312
H            1.42508640740205       -0.91786466373424       -0.39623748870823
11
 energy: -17.228758249485 gnorm: 0.005432633777 xtb: 6.5.0 (97a52f5)
N           -1.06993438991079       -0.83612723442308       -0.28116294567763
C           -0.69275309571870        0.35416491232794        0.26334791577818
C            0.61357762977793        0.28506240908416        1.04803818559126
N            1.71512217452859       -0.14304748779715        0.19344585508233
O           -1.29686551539304        1.37663463694933        0.05484556325596
H            0.45199992121216       -0.36987490624536        1.92202576856863
H            0.83589415857866        1.29379616787659        1.40548264964098
H           -1.96538199588013       -0.86069526539073       -0.74366411705980
H           -0.73779980330039       -1.70612613701343        0.09903749939148
H            2.47706147720868       -0.49452510202715        0.76528347760775
H            1.42447943889702       -0.91756199334112       -0.39629885217915
11
 energy: -17.228760000273 gnorm: 0.000813029716 xtb: 6.5.0 (97a52f5)
N           -1.06999474159665       -0.83628698783646       -0.28118365101686
C           -0.69259229494248        0.35416475815598        0.26323332318140
C            0.61365571612734        0.28524727946177        1.04806029614430
N            1.71520809002854       -0.14319456120980        0.19349238259911
O           -1.29672072932524        1.37685203058170        0.05478391534690
H            0.45210752647912       -0.36972477418413        1.92211108261987
H            0.83566550248488        1.29397660050731        1.40591992120883
H           -1.96545978576596       -0.86088893965003       -0.74370192298603
H           -0.73821334437353       -1.70643867789103        0.09901409973174
H            2.47721677887214       -0.49459739048764        0.76518331324946
H            1.42452728201185       -0.91740933744767       -0.39653176007873
