Generated by Psi4
        SP                        DF-MP2                      6-311G**
Number of atoms                            I                6
Charge                                     I                0
Multiplicity                               I                1
Number of electrons                        I               16
Number of alpha electrons                  I                8
Number of beta electrons                   I                8
Number of basis functions                  I               60
Number of independent functions            I               60
Atomic numbers                             I   N=           6
           6           6           1           1           1           1
Nuclear charges                            R   N=           6
  6.00000000e+00  6.00000000e+00  1.00000000e+00  1.00000000e+00  1.00000000e+00
  1.00000000e+00
Current cartesian coordinates              R   N=          18
 -1.25524272e+00 -1.92153622e-17  0.00000000e+00  1.25524272e+00  1.92153622e-17
  0.00000000e+00 -2.32818886e+00 -1.75030859e+00  0.00000000e+00 -2.32818886e+00
  1.75030859e+00  0.00000000e+00  2.32818886e+00  1.75030859e+00  0.00000000e+00
  2.32818886e+00 -1.75030859e+00  0.00000000e+00
Integer atomic weights                     I   N=           6
          12          12           1           1           1           1
Real atomic weights                        R   N=           6
  1.20000000e+01  1.20000000e+01  1.00782503e+00  1.00782503e+00  1.00782503e+00
  1.00782503e+00
Number of primitive shells                 I               58
Number of contracted shells                I               32
Pure/Cartesian d shells                    I                0
Pure/Cartesian f shells                    I                0
Highest angular momentum                   I                2
Largest degree of contraction              I                6
Shell types                                I   N=          32
           0           0           1           0           1           0
           1          -2           0           0           1           0
           1           0           1          -2           0           0
           0           1           0           0           0           1
           0           0           0           1           0           0
           0           1
Number of primitives per shell             I   N=          32
           6           3           3           1           1           1
           1           1           6           3           3           1
           1           1           1           1           3           1
           1           1           3           1           1           1
           3           1           1           1           3           1
           1           1
Shell to atom map                          I   N=          32
           1           1           1           1           1           1
           1           1           2           2           2           2
           2           2           2           2           3           3
           3           3           4           4           4           4
           5           5           5           5           6           6
           6           6
Primitive exponents                        R   N=          58
  4.56324000e+03  6.82024000e+02  1.54973000e+02  4.44553000e+01  1.30290000e+01
  1.82773000e+00  2.09642000e+01  4.80331000e+00  1.45933000e+00  2.09642000e+01
  4.80331000e+00  1.45933000e+00  4.83456000e-01  4.83456000e-01  1.45585000e-01
  1.45585000e-01  6.26000000e-01  4.56324000e+03  6.82024000e+02  1.54973000e+02
  4.44553000e+01  1.30290000e+01  1.82773000e+00  2.09642000e+01  4.80331000e+00
  1.45933000e+00  2.09642000e+01  4.80331000e+00  1.45933000e+00  4.83456000e-01
  4.83456000e-01  1.45585000e-01  1.45585000e-01  6.26000000e-01  3.38650000e+01
  5.09479000e+00  1.15879000e+00  3.25840000e-01  1.02741000e-01  7.50000000e-01
  3.38650000e+01  5.09479000e+00  1.15879000e+00  3.25840000e-01  1.02741000e-01
  7.50000000e-01  3.38650000e+01  5.09479000e+00  1.15879000e+00  3.25840000e-01
  1.02741000e-01  7.50000000e-01  3.38650000e+01  5.09479000e+00  1.15879000e+00
  3.25840000e-01  1.02741000e-01  7.50000000e-01
Contraction coefficients                   R   N=          58
  1.96665025e-03  1.52306019e-02  7.61269097e-02  2.60801033e-01  6.16462078e-01
  2.21006028e-01  1.14660081e-01  9.19999648e-01 -3.03068213e-03  4.02486927e-02
  2.37593957e-01  8.15853851e-01  1.00000000e+00  1.00000000e+00  1.00000000e+00
  1.00000000e+00  1.00000000e+00  1.96665025e-03  1.52306019e-02  7.61269097e-02
  2.60801033e-01  6.16462078e-01  2.21006028e-01  1.14660081e-01  9.19999648e-01
 -3.03068213e-03  4.02486927e-02  2.37593957e-01  8.15853851e-01  1.00000000e+00
  1.00000000e+00  1.00000000e+00  1.00000000e+00  1.00000000e+00  2.54938145e-02
  1.90373109e-01  8.52161486e-01  1.00000000e+00  1.00000000e+00  1.00000000e+00
  2.54938145e-02  1.90373109e-01  8.52161486e-01  1.00000000e+00  1.00000000e+00
  1.00000000e+00  2.54938145e-02  1.90373109e-01  8.52161486e-01  1.00000000e+00
  1.00000000e+00  1.00000000e+00  2.54938145e-02  1.90373109e-01  8.52161486e-01
  1.00000000e+00  1.00000000e+00  1.00000000e+00
Coordinates of each shell                  R   N=          96
 -1.25524272e+00 -1.92153622e-17  0.00000000e+00 -1.25524272e+00 -1.92153622e-17
  0.00000000e+00 -1.25524272e+00 -1.92153622e-17  0.00000000e+00 -1.25524272e+00
 -1.92153622e-17  0.00000000e+00 -1.25524272e+00 -1.92153622e-17  0.00000000e+00
 -1.25524272e+00 -1.92153622e-17  0.00000000e+00 -1.25524272e+00 -1.92153622e-17
  0.00000000e+00 -1.25524272e+00 -1.92153622e-17  0.00000000e+00  1.25524272e+00
  1.92153622e-17  0.00000000e+00  1.25524272e+00  1.92153622e-17  0.00000000e+00
  1.25524272e+00  1.92153622e-17  0.00000000e+00  1.25524272e+00  1.92153622e-17
  0.00000000e+00  1.25524272e+00  1.92153622e-17  0.00000000e+00  1.25524272e+00
  1.92153622e-17  0.00000000e+00  1.25524272e+00  1.92153622e-17  0.00000000e+00
  1.25524272e+00  1.92153622e-17  0.00000000e+00 -2.32818886e+00 -1.75030859e+00
  0.00000000e+00 -2.32818886e+00 -1.75030859e+00  0.00000000e+00 -2.32818886e+00
 -1.75030859e+00  0.00000000e+00 -2.32818886e+00 -1.75030859e+00  0.00000000e+00
 -2.32818886e+00  1.75030859e+00  0.00000000e+00 -2.32818886e+00  1.75030859e+00
  0.00000000e+00 -2.32818886e+00  1.75030859e+00  0.00000000e+00 -2.32818886e+00
  1.75030859e+00  0.00000000e+00  2.32818886e+00  1.75030859e+00  0.00000000e+00
  2.32818886e+00  1.75030859e+00  0.00000000e+00  2.32818886e+00  1.75030859e+00
  0.00000000e+00  2.32818886e+00  1.75030859e+00  0.00000000e+00  2.32818886e+00
 -1.75030859e+00  0.00000000e+00  2.32818886e+00 -1.75030859e+00  0.00000000e+00
  2.32818886e+00 -1.75030859e+00  0.00000000e+00  2.32818886e+00 -1.75030859e+00
  0.00000000e+00
Total Energy                               R     -7.834415497880900e+01
Alpha Orbital Energies                     R   N=          60
 -1.12291427e+01 -1.12273947e+01 -1.03284343e+00 -7.88884284e-01 -6.40936049e-01
 -5.85988252e-01 -5.03573541e-01 -3.76364470e-01  1.63363696e-01  1.71188095e-01
  1.96583063e-01  1.99284738e-01  2.62724357e-01  4.50294861e-01  4.53338285e-01
  4.74982271e-01  5.63464752e-01  5.88182122e-01  5.98607694e-01  7.18418840e-01
  7.82555027e-01  8.47554780e-01  8.71593891e-01  8.99882514e-01  9.23029537e-01
  1.04999024e+00  1.23354210e+00  1.34699484e+00  1.36111116e+00  1.60028321e+00
  1.63283296e+00  1.67986261e+00  1.80984603e+00  1.83248552e+00  1.84948820e+00
  1.86457883e+00  2.04213697e+00  2.07517879e+00  2.18799761e+00  2.27824456e+00
  2.38937038e+00  2.40795272e+00  2.46103851e+00  2.48383584e+00  2.60402785e+00
  2.64979158e+00  2.86053205e+00  2.87707524e+00  2.88265356e+00  2.95060029e+00
  3.03725724e+00  3.14594993e+00  3.23975652e+00  3.48352719e+00  3.82047747e+00
  4.03871270e+00  4.21765562e+00  4.51336959e+00  2.48749678e+01  2.54419565e+01
Alpha MO coefficients                      R   N=        3600
  3.98247642e-01  3.29818306e-01 -5.29135925e-05  0.00000000e+00  0.00000000e+00
  3.06700980e-03  3.31991012e-04  0.00000000e+00  0.00000000e+00 -2.51645891e-04
 -1.09939346e-05  0.00000000e+00  0.00000000e+00 -2.27170269e-04  0.00000000e+00
  0.00000000e+00  2.47471647e-04  0.00000000e+00  3.98247642e-01  3.29818306e-01
  5.29135925e-05  0.00000000e+00  0.00000000e+00  3.06700980e-03 -3.31991012e-04
  0.00000000e+00  0.00000000e+00 -2.51645891e-04  1.09939346e-05  0.00000000e+00
  0.00000000e+00 -2.27170269e-04  0.00000000e+00  0.00000000e+00  2.47471647e-04
  0.00000000e+00  2.99177244e-04 -5.40734013e-05  1.50833517e-04  4.64038567e-05
 -7.38519397e-06  0.00000000e+00  2.99177244e-04 -5.40734013e-05  1.50833517e-04
  4.64038567e-05  7.38519397e-06  0.00000000e+00  2.99177244e-04 -5.40734013e-05
  1.50833517e-04 -4.64038567e-05  7.38519397e-06  0.00000000e+00  2.99177244e-04
 -5.40734013e-05  1.50833517e-04 -4.64038567e-05 -7.38519397e-06  0.00000000e+00
  3.98427547e-01  3.30018129e-01 -4.71496905e-04  0.00000000e+00  0.00000000e+00
  2.89324981e-03  7.80421347e-04  0.00000000e+00  0.00000000e+00  4.71492720e-05
 -2.26843233e-05  0.00000000e+00  0.00000000e+00 -4.23623824e-04  0.00000000e+00
  0.00000000e+00  3.10348209e-04  0.00000000e+00 -3.98427547e-01 -3.30018129e-01
 -4.71496905e-04  0.00000000e+00  0.00000000e+00 -2.89324981e-03  7.80421347e-04
  0.00000000e+00  0.00000000e+00 -4.71492720e-05 -2.26843233e-05  0.00000000e+00
  0.00000000e+00  4.23623824e-04  0.00000000e+00  0.00000000e+00 -3.10348209e-04
  0.00000000e+00  2.94379690e-04  4.51216344e-05  5.39474077e-05  2.41826844e-05
  5.20504673e-05  0.00000000e+00  2.94379690e-04  4.51216344e-05  5.39474077e-05
  2.41826844e-05 -5.20504673e-05  0.00000000e+00 -2.94379690e-04 -4.51216344e-05
 -5.39474077e-05  2.41826844e-05  5.20504673e-05  0.00000000e+00 -2.94379690e-04
 -4.51216344e-05 -5.39474077e-05  2.41826844e-05 -5.20504673e-05  0.00000000e+00
  8.37515434e-02  1.37797064e-01 -5.09341166e-02  0.00000000e+00  0.00000000e+00
 -3.47206315e-01 -7.86026946e-02  0.00000000e+00  0.00000000e+00 -1.85303665e-01
 -1.38194345e-02  0.00000000e+00  0.00000000e+00  1.16344436e-02  0.00000000e+00
  0.00000000e+00 -1.38923962e-02  0.00000000e+00  8.37515434e-02  1.37797064e-01
  5.09341166e-02  0.00000000e+00  0.00000000e+00 -3.47206315e-01  7.86026946e-02
  0.00000000e+00  0.00000000e+00 -1.85303665e-01  1.38194345e-02  0.00000000e+00
  0.00000000e+00  1.16344436e-02  0.00000000e+00  0.00000000e+00 -1.38923962e-02
  0.00000000e+00 -5.07610367e-02 -6.57475478e-02  4.02025177e-03 -8.69990999e-03
 -1.06838789e-02  0.00000000e+00 -5.07610367e-02 -6.57475478e-02  4.02025177e-03
 -8.69990999e-03  1.06838789e-02  0.00000000e+00 -5.07610367e-02 -6.57475478e-02
  4.02025177e-03  8.69990999e-03  1.06838789e-02  0.00000000e+00 -5.07610367e-02
 -6.57475478e-02  4.02025177e-03  8.69990999e-03 -1.06838789e-02  0.00000000e+00
  6.37191433e-02  1.06093317e-01  7.08881413e-02  0.00000000e+00  0.00000000e+00
 -2.71647478e-01  1.16658432e-01  0.00000000e+00  0.00000000e+00 -2.07874016e-01
  4.87659783e-02  0.00000000e+00  0.00000000e+00  9.23796663e-03  0.00000000e+00
  0.00000000e+00  1.38430679e-02  0.00000000e+00 -6.37191433e-02 -1.06093317e-01
  7.08881413e-02  0.00000000e+00  0.00000000e+00  2.71647478e-01  1.16658432e-01
  0.00000000e+00  0.00000000e+00  2.07874016e-01  4.87659783e-02  0.00000000e+00
  0.00000000e+00 -9.23796663e-03  0.00000000e+00  0.00000000e+00 -1.38430679e-02
  0.00000000e+00 -8.77720528e-02 -1.25097709e-01 -1.68188948e-02 -5.39468000e-03
 -1.51111777e-02  0.00000000e+00 -8.77720528e-02 -1.25097709e-01 -1.68188948e-02
 -5.39468000e-03  1.51111777e-02  0.00000000e+00  8.77720528e-02  1.25097709e-01
  1.68188948e-02 -5.39468000e-03 -1.51111777e-02  0.00000000e+00  8.77720528e-02
  1.25097709e-01  1.68188948e-02 -5.39468000e-03  1.51111777e-02  0.00000000e+00
  0.00000000e+00  0.00000000e+00  0.00000000e+00  1.40359344e-01  0.00000000e+00
  0.00000000e+00  0.00000000e+00  2.14407021e-01  0.00000000e+00  0.00000000e+00
  0.00000000e+00  1.12831369e-01  0.00000000e+00  0.00000000e+00  0.00000000e+00
  0.00000000e+00  0.00000000e+00 -4.10429476e-03  0.00000000e+00  0.00000000e+00
  0.00000000e+00  1.40359344e-01  0.00000000e+00  0.00000000e+00  0.00000000e+00
  2.14407021e-01  0.00000000e+00  0.00000000e+00  0.00000000e+00  1.12831369e-01
  0.00000000e+00  0.00000000e+00  0.00000000e+00  0.00000000e+00  0.00000000e+00
  4.10429476e-03 -9.39667294e-02 -1.44951717e-01 -3.84806216e-02 -1.02658598e-02
 -1.07463369e-02  0.00000000e+00  9.39667294e-02  1.44951717e-01  3.84806216e-02
  1.02658598e-02 -1.07463369e-02  0.00000000e+00  9.39667294e-02  1.44951717e-01
  3.84806216e-02 -1.02658598e-02 -1.07463369e-02  0.00000000e+00 -9.39667294e-02
 -1.44951717e-01 -3.84806216e-02  1.02658598e-02 -1.07463369e-02  0.00000000e+00
  5.88131402e-03  9.84104479e-03 -1.83083204e-01  0.00000000e+00  0.00000000e+00
 -3.02189466e-02 -2.73925730e-01  0.00000000e+00  0.00000000e+00  2.44910747e-02
 -1.41793450e-01  0.00000000e+00  0.00000000e+00 -2.01527410e-03  0.00000000e+00
  0.00000000e+00 -2.45733635e-02  0.00000000e+00  5.88131402e-03  9.84104479e-03
  1.83083204e-01  0.00000000e+00  0.00000000e+00 -3.02189466e-02  2.73925730e-01
  0.00000000e+00  0.00000000e+00  2.44910747e-02  1.41793450e-01  0.00000000e+00
  0.00000000e+00 -2.01527410e-03  0.00000000e+00  0.00000000e+00 -2.45733635e-02
  0.00000000e+00  7.46578769e-02  1.18461428e-01  4.20102972e-02 -2.41156967e-03
  1.25996069e-02  0.00000000e+00  7.46578769e-02  1.18461428e-01  4.20102972e-02
 -2.41156967e-03 -1.25996069e-02  0.00000000e+00  7.46578769e-02  1.18461428e-01
  4.20102972e-02  2.41156967e-03 -1.25996069e-02  0.00000000e+00  7.46578769e-02
  1.18461428e-01  4.20102972e-02  2.41156967e-03  1.25996069e-02  0.00000000e+00
  0.00000000e+00  0.00000000e+00  0.00000000e+00  1.32755128e-01  0.00000000e+00
  0.00000000e+00  0.00000000e+00  2.05261689e-01  0.00000000e+00  0.00000000e+00
  0.00000000e+00  1.60428407e-01  0.00000000e+00  0.00000000e+00  0.00000000e+00
  0.00000000e+00  0.00000000e+00 -4.04201610e-02  0.00000000e+00  0.00000000e+00
  0.00000000e+00 -1.32755128e-01  0.00000000e+00  0.00000000e+00  0.00000000e+00
 -2.05261689e-01  0.00000000e+00  0.00000000e+00  0.00000000e+00 -1.60428407e-01
  0.00000000e+00  0.00000000e+00  0.00000000e+00  0.00000000e+00  0.00000000e+00
 -4.04201610e-02 -1.11094692e-01 -1.78915208e-01 -8.23361521e-02 -9.08943731e-03
 -6.68895404e-03  0.00000000e+00  1.11094692e-01  1.78915208e-01  8.23361521e-02
  9.08943731e-03 -6.68895404e-03  0.00000000e+00 -1.11094692e-01 -1.78915208e-01
 -8.23361521e-02  9.08943731e-03  6.68895404e-03  0.00000000e+00  1.11094692e-01
  1.78915208e-01  8.23361521e-02 -9.08943731e-03  6.68895404e-03  0.00000000e+00
  0.00000000e+00  0.00000000e+00  0.00000000e+00  0.00000000e+00  1.65538955e-01
  0.00000000e+00  0.00000000e+00  0.00000000e+00  2.69535515e-01  0.00000000e+00
  0.00000000e+00  0.00000000e+00  2.78233528e-01  0.00000000e+00  3.11641558e-02
  0.00000000e+00  0.00000000e+00  0.00000000e+00  0.00000000e+00  0.00000000e+00
  0.00000000e+00  0.00000000e+00  1.65538955e-01  0.00000000e+00  0.00000000e+00
  0.00000000e+00  2.69535515e-01  0.00000000e+00  0.00000000e+00  0.00000000e+00
  2.78233528e-01  0.00000000e+00 -3.11641558e-02  0.00000000e+00  0.00000000e+00
  0.00000000e+00  0.00000000e+00  0.00000000e+00  0.00000000e+00  0.00000000e+00
  0.00000000e+00  1.24639290e-02  0.00000000e+00  0.00000000e+00  0.00000000e+00
  0.00000000e+00  0.00000000e+00  1.24639290e-02  0.00000000e+00  0.00000000e+00
  0.00000000e+00  0.00000000e+00  0.00000000e+00  1.24639290e-02  0.00000000e+00
  0.00000000e+00  0.00000000e+00  0.00000000e+00  0.00000000e+00  1.24639290e-02
  0.00000000e+00  0.00000000e+00  0.00000000e+00  0.00000000e+00  1.62149220e-01
  0.00000000e+00  0.00000000e+00  0.00000000e+00  2.03948565e-01  0.00000000e+00
  0.00000000e+00  0.00000000e+00  7.94511082e-01  0.00000000e+00 -2.77403271e-02
  0.00000000e+00  0.00000000e+00  0.00000000e+00  0.00000000e+00  0.00000000e+00
  0.00000000e+00  0.00000000e+00 -1.62149220e-01  0.00000000e+00  0.00000000e+00
  0.00000000e+00 -2.03948565e-01  0.00000000e+00  0.00000000e+00  0.00000000e+00
 -7.94511082e-01  0.00000000e+00 -2.77403271e-02  0.00000000e+00  0.00000000e+00
  0.00000000e+00  0.00000000e+00  0.00000000e+00  0.00000000e+00  0.00000000e+00
  0.00000000e+00  1.84047787e-02  0.00000000e+00  0.00000000e+00  0.00000000e+00
  0.00000000e+00  0.00000000e+00  1.84047787e-02  0.00000000e+00  0.00000000e+00
  0.00000000e+00  0.00000000e+00  0.00000000e+00 -1.84047787e-02  0.00000000e+00
  0.00000000e+00  0.00000000e+00  0.00000000e+00  0.00000000e+00 -1.84047787e-02
  2.75880359e-02  4.31654470e-02  6.05842181e-02  0.00000000e+00  0.00000000e+00
 -3.86347136e-02  5.94358527e-02  0.00000000e+00  0.00000000e+00 -1.26328245e+00
  4.27857732e-01  0.00000000e+00  0.00000000e+00  2.95374436e-03  0.00000000e+00
  0.00000000e+00 -5.21785555e-03  0.00000000e+00  2.75880359e-02  4.31654470e-02
 -6.05842181e-02  0.00000000e+00  0.00000000e+00 -3.86347136e-02 -5.94358527e-02
  0.00000000e+00  0.00000000e+00 -1.26328245e+00 -4.27857732e-01  0.00000000e+00
  0.00000000e+00  2.95374436e-03  0.00000000e+00  0.00000000e+00 -5.21785555e-03
  0.00000000e+00  9.64926890e-03 -5.30182253e-02  8.87010120e-01 -1.03974100e-03
 -7.16651940e-03  0.00000000e+00  9.64926890e-03 -5.30182253e-02  8.87010120e-01
 -1.03974100e-03  7.16651940e-03  0.00000000e+00  9.64926890e-03 -5.30182253e-02
  8.87010120e-01  1.03974100e-03  7.16651940e-03  0.00000000e+00  9.64926890e-03
 -5.30182253e-02  8.87010120e-01  1.03974100e-03 -7.16651940e-03  0.00000000e+00
  0.00000000e+00  0.00000000e+00  0.00000000e+00  9.92803538e-02  0.00000000e+00
  0.00000000e+00  0.00000000e+00  4.22384510e-02  0.00000000e+00  0.00000000e+00
  0.00000000e+00  6.64764604e-01  0.00000000e+00  0.00000000e+00  0.00000000e+00
  0.00000000e+00  0.00000000e+00  3.61062911e-02  0.00000000e+00  0.00000000e+00
  0.00000000e+00  9.92803538e-02  0.00000000e+00  0.00000000e+00  0.00000000e+00
  4.22384510e-02  0.00000000e+00  0.00000000e+00  0.00000000e+00  6.64764604e-01
  0.00000000e+00  0.00000000e+00  0.00000000e+00  0.00000000e+00  0.00000000e+00
 -3.61062911e-02  1.62420128e-02 -9.27580427e-02  1.19079493e+00 -1.36255397e-02
 -2.25798051e-02  0.00000000e+00 -1.62420128e-02  9.27580427e-02 -1.19079493e+00
  1.36255397e-02 -2.25798051e-02  0.00000000e+00 -1.62420128e-02  9.27580427e-02
 -1.19079493e+00 -1.36255397e-02 -2.25798051e-02  0.00000000e+00  1.62420128e-02
 -9.27580427e-02  1.19079493e+00  1.36255397e-02 -2.25798051e-02  0.00000000e+00
  3.36027136e-02  5.60815621e-02  4.30904335e-02  0.00000000e+00  0.00000000e+00
 -8.41306609e-02 -4.43147361e-02  0.00000000e+00  0.00000000e+00 -1.26228551e+00
  3.65432219e-01  0.00000000e+00  0.00000000e+00  4.31862751e-03  0.00000000e+00
  0.00000000e+00 -2.39234375e-02  0.00000000e+00 -3.36027136e-02 -5.60815621e-02
  4.30904335e-02  0.00000000e+00  0.00000000e+00  8.41306609e-02 -4.43147361e-02
  0.00000000e+00  0.00000000e+00  1.26228551e+00  3.65432219e-01  0.00000000e+00
  0.00000000e+00 -4.31862751e-03  0.00000000e+00  0.00000000e+00  2.39234375e-02
  0.00000000e+00  1.63515728e-02 -9.64673242e-02  1.08835221e+00 -1.31758945e-02
 -1.00551047e-02  0.00000000e+00  1.63515728e-02 -9.64673242e-02  1.08835221e+00
 -1.31758945e-02  1.00551047e-02  0.00000000e+00 -1.63515728e-02  9.64673242e-02
 -1.08835221e+00 -1.31758945e-02 -1.00551047e-02  0.00000000e+00 -1.63515728e-02
  9.64673242e-02 -1.08835221e+00 -1.31758945e-02  1.00551047e-02  0.00000000e+00
  0.00000000e+00  0.00000000e+00  0.00000000e+00  9.30390764e-02  0.00000000e+00
  0.00000000e+00  0.00000000e+00  3.46677625e-02  0.00000000e+00  0.00000000e+00
  0.00000000e+00  1.41576345e+00  0.00000000e+00  0.00000000e+00  0.00000000e+00
  0.00000000e+00  0.00000000e+00 -2.26022246e-03  0.00000000e+00  0.00000000e+00
  0.00000000e+00 -9.30390764e-02  0.00000000e+00  0.00000000e+00  0.00000000e+00
 -3.46677625e-02  0.00000000e+00  0.00000000e+00  0.00000000e+00 -1.41576345e+00
  0.00000000e+00  0.00000000e+00  0.00000000e+00  0.00000000e+00  0.00000000e+00
 -2.26022246e-03 -1.13931887e-02 -4.03161773e-02  1.66340445e+00 -2.67862393e-03
 -1.29028732e-02  0.00000000e+00  1.13931887e-02  4.03161773e-02 -1.66340445e+00
  2.67862393e-03 -1.29028732e-02  0.00000000e+00 -1.13931887e-02 -4.03161773e-02
  1.66340445e+00  2.67862393e-03  1.29028732e-02  0.00000000e+00  1.13931887e-02
  4.03161773e-02 -1.66340445e+00 -2.67862393e-03  1.29028732e-02  0.00000000e+00
  1.42882246e-02  2.21261569e-02 -6.98565495e-02  0.00000000e+00  0.00000000e+00
  2.00822942e-02 -6.09637733e-02  0.00000000e+00  0.00000000e+00 -3.60352795e+00
 -3.35460515e+00  0.00000000e+00  0.00000000e+00  5.99365835e-03  0.00000000e+00
  0.00000000e+00  1.16430709e-02  0.00000000e+00 -1.42882246e-02 -2.21261569e-02
 -6.98565495e-02  0.00000000e+00  0.00000000e+00 -2.00822942e-02 -6.09637733e-02
  0.00000000e+00  0.00000000e+00  3.60352795e+00 -3.35460515e+00  0.00000000e+00
  0.00000000e+00 -5.99365835e-03  0.00000000e+00  0.00000000e+00 -1.16430709e-02
  0.00000000e+00 -2.13765878e-02 -3.27703308e-01 -5.67724207e-01 -3.75838220e-03
  4.27279411e-03  0.00000000e+00 -2.13765878e-02 -3.27703308e-01 -5.67724207e-01
 -3.75838220e-03 -4.27279411e-03  0.00000000e+00  2.13765878e-02  3.27703308e-01
  5.67724207e-01 -3.75838220e-03  4.27279411e-03  0.00000000e+00  2.13765878e-02
  3.27703308e-01  5.67724207e-01 -3.75838220e-03 -4.27279411e-03  0.00000000e+00
  1.05911020e-02  2.35962462e-02 -2.14968371e-02  0.00000000e+00  0.00000000e+00
 -1.02568944e-01 -1.71790184e-01  0.00000000e+00  0.00000000e+00 -1.08561362e+00
  1.16142126e+00  0.00000000e+00  0.00000000e+00 -7.02919172e-03  0.00000000e+00
  0.00000000e+00 -5.39461576e-03  0.00000000e+00  1.05911020e-02  2.35962462e-02
  2.14968371e-02  0.00000000e+00  0.00000000e+00 -1.02568944e-01  1.71790184e-01
  0.00000000e+00  0.00000000e+00 -1.08561362e+00 -1.16142126e+00  0.00000000e+00
  0.00000000e+00 -7.02919172e-03  0.00000000e+00  0.00000000e+00 -5.39461576e-03
  0.00000000e+00  2.32418226e-02  7.22833575e-01  2.06416317e-02  2.86390560e-02
  1.08003543e-02  0.00000000e+00  2.32418226e-02  7.22833575e-01  2.06416317e-02
  2.86390560e-02 -1.08003543e-02  0.00000000e+00  2.32418226e-02  7.22833575e-01
  2.06416317e-02 -2.86390560e-02 -1.08003543e-02  0.00000000e+00  2.32418226e-02
  7.22833575e-01  2.06416317e-02 -2.86390560e-02  1.08003543e-02  0.00000000e+00
  0.00000000e+00  0.00000000e+00  0.00000000e+00  3.17117075e-02  0.00000000e+00
  0.00000000e+00  0.00000000e+00  1.37978273e-01  0.00000000e+00  0.00000000e+00
  0.00000000e+00  6.82308402e-01  0.00000000e+00  0.00000000e+00  0.00000000e+00
  0.00000000e+00  0.00000000e+00  1.38150621e-02  0.00000000e+00  0.00000000e+00
  0.00000000e+00  3.17117075e-02  0.00000000e+00  0.00000000e+00  0.00000000e+00
  1.37978273e-01  0.00000000e+00  0.00000000e+00  0.00000000e+00  6.82308402e-01
  0.00000000e+00  0.00000000e+00  0.00000000e+00  0.00000000e+00  0.00000000e+00
 -1.38150621e-02  6.21758548e-02  8.24269244e-01 -1.76297602e-01 -1.12018880e-02
  3.91327840e-02  0.00000000e+00 -6.21758548e-02 -8.24269244e-01  1.76297602e-01
  1.12018880e-02  3.91327840e-02  0.00000000e+00 -6.21758548e-02 -8.24269244e-01
  1.76297602e-01 -1.12018880e-02  3.91327840e-02  0.00000000e+00  6.21758548e-02
  8.24269244e-01 -1.76297602e-01  1.12018880e-02  3.91327840e-02  0.00000000e+00
  8.01657486e-03  2.19122884e-02 -9.63170670e-02  0.00000000e+00  0.00000000e+00
 -3.69985204e-01 -4.78959097e-01  0.00000000e+00  0.00000000e+00  7.98971097e-01
  4.33817030e-01  0.00000000e+00  0.00000000e+00  2.66907407e-02  0.00000000e+00
  0.00000000e+00 -1.30352046e-02  0.00000000e+00  8.01657486e-03  2.19122884e-02
  9.63170670e-02  0.00000000e+00  0.00000000e+00 -3.69985204e-01  4.78959097e-01
  0.00000000e+00  0.00000000e+00  7.98971097e-01 -4.33817030e-01  0.00000000e+00
  0.00000000e+00  2.66907407e-02  0.00000000e+00  0.00000000e+00 -1.30352046e-02
  0.00000000e+00 -3.08395184e-02 -5.83713204e-01  6.47156809e-02 -8.61056876e-03
 -2.86182379e-02  0.00000000e+00 -3.08395184e-02 -5.83713204e-01  6.47156809e-02
 -8.61056876e-03  2.86182379e-02  0.00000000e+00 -3.08395184e-02 -5.83713204e-01
  6.47156809e-02  8.61056876e-03  2.86182379e-02  0.00000000e+00 -3.08395184e-02
 -5.83713204e-01  6.47156809e-02  8.61056876e-03 -2.86182379e-02  0.00000000e+00
  0.00000000e+00  0.00000000e+00  0.00000000e+00  0.00000000e+00  1.31635112e-01
  0.00000000e+00  0.00000000e+00  0.00000000e+00  6.38172750e-01  0.00000000e+00
  0.00000000e+00  0.00000000e+00 -6.87001280e-01  0.00000000e+00  6.00320830e-02
  0.00000000e+00  0.00000000e+00  0.00000000e+00  0.00000000e+00  0.00000000e+00
  0.00000000e+00  0.00000000e+00  1.31635112e-01  0.00000000e+00  0.00000000e+00
  0.00000000e+00  6.38172750e-01  0.00000000e+00  0.00000000e+00  0.00000000e+00
 -6.87001280e-01  0.00000000e+00 -6.00320830e-02  0.00000000e+00  0.00000000e+00
  0.00000000e+00  0.00000000e+00  0.00000000e+00  0.00000000e+00  0.00000000e+00
  0.00000000e+00  4.78111495e-03  0.00000000e+00  0.00000000e+00  0.00000000e+00
  0.00000000e+00  0.00000000e+00  4.78111495e-03  0.00000000e+00  0.00000000e+00
  0.00000000e+00  0.00000000e+00  0.00000000e+00  4.78111495e-03  0.00000000e+00
  0.00000000e+00  0.00000000e+00  0.00000000e+00  0.00000000e+00  4.78111495e-03
  4.39611225e-02  7.69585969e-02 -3.40601060e-02  0.00000000e+00  0.00000000e+00
 -6.05805247e-02  1.10014813e-01  0.00000000e+00  0.00000000e+00 -3.93026017e+00
 -1.58227050e+00  0.00000000e+00  0.00000000e+00  2.30050072e-03  0.00000000e+00
  0.00000000e+00  5.87031041e-02  0.00000000e+00 -4.39611225e-02 -7.69585969e-02
 -3.40601060e-02  0.00000000e+00  0.00000000e+00  6.05805247e-02  1.10014813e-01
  0.00000000e+00  0.00000000e+00  3.93026017e+00 -1.58227050e+00  0.00000000e+00
  0.00000000e+00 -2.30050072e-03  0.00000000e+00  0.00000000e+00 -5.87031041e-02
  0.00000000e+00  4.92594755e-02  9.82182039e-01 -4.75437781e-01  2.93078136e-02
  2.55488094e-02  0.00000000e+00  4.92594755e-02  9.82182039e-01 -4.75437781e-01
  2.93078136e-02 -2.55488094e-02  0.00000000e+00 -4.92594755e-02 -9.82182039e-01
  4.75437781e-01  2.93078136e-02  2.55488094e-02  0.00000000e+00 -4.92594755e-02
 -9.82182039e-01  4.75437781e-01  2.93078136e-02 -2.55488094e-02  0.00000000e+00
  0.00000000e+00  0.00000000e+00  0.00000000e+00  0.00000000e+00  1.82710533e-01
  0.00000000e+00  0.00000000e+00  0.00000000e+00  7.24760037e-01  0.00000000e+00
  0.00000000e+00  0.00000000e+00 -1.22027647e+00  0.00000000e+00 -3.80716438e-02
  0.00000000e+00  0.00000000e+00  0.00000000e+00  0.00000000e+00  0.00000000e+00
  0.00000000e+00  0.00000000e+00 -1.82710533e-01  0.00000000e+00  0.00000000e+00
  0.00000000e+00 -7.24760037e-01  0.00000000e+00  0.00000000e+00  0.00000000e+00
  1.22027647e+00  0.00000000e+00 -3.80716438e-02  0.00000000e+00  0.00000000e+00
  0.00000000e+00  0.00000000e+00  0.00000000e+00  0.00000000e+00  0.00000000e+00
  0.00000000e+00  2.67542277e-02  0.00000000e+00  0.00000000e+00  0.00000000e+00
  0.00000000e+00  0.00000000e+00  2.67542277e-02  0.00000000e+00  0.00000000e+00
  0.00000000e+00  0.00000000e+00  0.00000000e+00 -2.67542277e-02  0.00000000e+00
  0.00000000e+00  0.00000000e+00  0.00000000e+00  0.00000000e+00 -2.67542277e-02
  0.00000000e+00  0.00000000e+00  0.00000000e+00  1.53765673e-01  0.00000000e+00
  0.00000000e+00  0.00000000e+00  7.33403605e-01  0.00000000e+00  0.00000000e+00
  0.00000000e+00 -1.33737138e+00  0.00000000e+00  0.00000000e+00  0.00000000e+00
  0.00000000e+00  0.00000000e+00  7.39724191e-02  0.00000000e+00  0.00000000e+00
  0.00000000e+00  1.53765673e-01  0.00000000e+00  0.00000000e+00  0.00000000e+00
  7.33403605e-01  0.00000000e+00  0.00000000e+00  0.00000000e+00 -1.33737138e+00
  0.00000000e+00  0.00000000e+00  0.00000000e+00  0.00000000e+00  0.00000000e+00
 -7.39724191e-02  2.15543444e-02  1.20762827e-01 -1.02605278e+00 -7.01488762e-03
 -2.75675194e-02  0.00000000e+00 -2.15543444e-02 -1.20762827e-01  1.02605278e+00
  7.01488762e-03 -2.75675194e-02  0.00000000e+00 -2.15543444e-02 -1.20762827e-01
  1.02605278e+00 -7.01488762e-03 -2.75675194e-02  0.00000000e+00  2.15543444e-02
  1.20762827e-01 -1.02605278e+00  7.01488762e-03 -2.75675194e-02  0.00000000e+00
  0.00000000e+00  0.00000000e+00  0.00000000e+00  2.05457871e-01  0.00000000e+00
  0.00000000e+00  0.00000000e+00  7.42899279e-01  0.00000000e+00  0.00000000e+00
  0.00000000e+00 -2.29891050e+00  0.00000000e+00  0.00000000e+00  0.00000000e+00
  0.00000000e+00  0.00000000e+00  1.11492530e-02  0.00000000e+00  0.00000000e+00
  0.00000000e+00 -2.05457871e-01  0.00000000e+00  0.00000000e+00  0.00000000e+00
 -7.42899279e-01  0.00000000e+00  0.00000000e+00  0.00000000e+00  2.29891050e+00
  0.00000000e+00  0.00000000e+00  0.00000000e+00  0.00000000e+00  0.00000000e+00
  1.11492530e-02  3.27513671e-02  8.54726385e-02 -1.25998546e+00 -6.81999606e-02
 -3.00827549e-02  0.00000000e+00 -3.27513671e-02 -8.54726385e-02  1.25998546e+00
  6.81999606e-02 -3.00827549e-02  0.00000000e+00  3.27513671e-02  8.54726385e-02
 -1.25998546e+00  6.81999606e-02  3.00827549e-02  0.00000000e+00 -3.27513671e-02
 -8.54726385e-02  1.25998546e+00 -6.81999606e-02  3.00827549e-02  0.00000000e+00
  7.56065012e-02  1.61080667e-01  9.81589401e-02  0.00000000e+00  0.00000000e+00
 -1.20412120e+00  2.03460141e-01  0.00000000e+00  0.00000000e+00  2.13066855e+00
 -6.03023313e-01  0.00000000e+00  0.00000000e+00 -3.46251188e-02  0.00000000e+00
  0.00000000e+00 -8.59743712e-02  0.00000000e+00  7.56065012e-02  1.61080667e-01
 -9.81589401e-02  0.00000000e+00  0.00000000e+00 -1.20412120e+00 -2.03460141e-01
  0.00000000e+00  0.00000000e+00  2.13066855e+00  6.03023313e-01  0.00000000e+00
  0.00000000e+00 -3.46251188e-02  0.00000000e+00  0.00000000e+00 -8.59743712e-02