
    -----------------------------------------------------------------------
          Psi4: An Open-Source Ab Initio Electronic Structure Package
                               Psi4 1.3.2 release

                         Git: Rev {HEAD} ecbda83 


    R. M. Parrish, L. A. Burns, D. G. A. Smith, A. C. Simmonett,
    A. E. DePrince III, E. G. Hohenstein, U. Bozkaya, A. Yu. Sokolov,
    R. Di Remigio, R. M. Richard, J. F. Gonthier, A. M. James,
    H. R. McAlexander, A. Kumar, M. Saitow, X. Wang, B. P. Pritchard,
    P. Verma, H. F. Schaefer III, K. Patkowski, R. A. King, E. F. Valeev,
    F. A. Evangelista, J. M. Turney, T. D. Crawford, and C. D. Sherrill,
    J. Chem. Theory Comput. 13(7) pp 3185--3197 (2017).
    (doi: 10.1021/acs.jctc.7b00174)


                         Additional Contributions by
    P. Kraus, H. Kruse, M. H. Lechner, M. C. Schieber, R. A. Shaw,
    A. Alenaizan, R. Galvelis, Z. L. Glick, S. Lehtola, and J. P. Misiewicz

    -----------------------------------------------------------------------


    Psi4 started on: Tuesday, 09 November 2021 09:53AM

    Process ID: 64349
    Host:       node44.bme.utexas.edu
    PSIDATADIR: /home/bdw2292/miniconda3/envs/amoebamdpoltype/share/psi4
    Memory:     500.0 MiB
    Threads:    1
    
  ==> Input File <==

--------------------------------------------------------------------------
molecule { 
0 1
O          8.34630       -0.25270       -1.54960
C          8.61540       -0.66340       -0.41090
C          7.66120       -0.60180        0.67160
C          8.00280       -1.07540        1.90020
C          6.39930       -0.06410        0.46320
C          5.45820        0.01300        1.45740
C          5.83990       -0.47630        2.69740
C          7.09490       -1.01690        2.92680
H          9.00180       -1.50930        2.09970
O          9.88110       -1.19320       -0.20240
H          6.14600        0.33410       -0.49780
H          7.34390       -1.39140        3.92730
H          4.52080        0.41180        1.29250
H          5.16520       -0.43640        3.47730
H         10.12110       -1.51360        0.64480
}
memory 100GB
set_num_threads(12)
psi4_io.set_default_path("/scratch/bdw2292/Psi4-farH_in17")
set maxiter 500
set freeze_core True
set PROPERTIES_ORIGIN ["COM"]
set cubeprop_tasks ['esp']
E, wfn = properties('hf/MINIX',properties=['dipole'],return_wfn=True)
cubeprop(wfn)
fchk(wfn, "farH_in17-esp_frag.fchk")
oeprop(wfn,"WIBERG_LOWDIN_INDICES","MULLIKEN_CHARGES")
clean()
--------------------------------------------------------------------------

  Memory set to  93.132 GiB by Python driver.
  Threads set to 12 by Python driver.

*** tstart() called on node44.bme.utexas.edu
*** at Tue Nov  9 09:53:01 2021

   => Loading Basis Set <=

    Name: MINIX
    Role: ORBITAL
    Keyword: BASIS
    atoms 1, 10    entry O          line   102 file /home/bdw2292/miniconda3/envs/amoebamdpoltype/share/psi4/basis/minix.gbs 
    atoms 2-8      entry C          line    74 file /home/bdw2292/miniconda3/envs/amoebamdpoltype/share/psi4/basis/minix.gbs 
    atoms 9, 11-15 entry H          line    24 file /home/bdw2292/miniconda3/envs/amoebamdpoltype/share/psi4/basis/minix.gbs 


         ---------------------------------------------------------
                                   SCF
               by Justin Turney, Rob Parrish, Andy Simmonett
                          and Daniel G. A. Smith
                              RHF Reference
                       12 Threads,  95367 MiB Core
         ---------------------------------------------------------

  ==> Geometry <==

    Molecular point group: c1
    Full point group: C1

    Geometry (in Angstrom), charge = 0, multiplicity = 1:

       Center              X                  Y                   Z               Mass       
    ------------   -----------------  -----------------  -----------------  -----------------
         O            0.782712198829     0.352713938194    -2.364721028569    15.994914619570
         C            1.051812198829    -0.057986061806    -1.226021028569    12.000000000000
         C            0.097612198829     0.003613938194    -0.143521028569    12.000000000000
         C            0.439212198829    -0.469986061806     1.085078971431    12.000000000000
         C           -1.164287801171     0.541313938194    -0.351921028569    12.000000000000
         C           -2.105387801171     0.618413938194     0.642278971431    12.000000000000
         C           -1.723687801171     0.129113938194     1.882278971431    12.000000000000
         C           -0.468687801171    -0.411486061806     2.111678971431    12.000000000000
         H            1.438212198829    -0.903886061806     1.284578971431     1.007825032230
         O            2.317512198829    -0.587786061806    -1.017521028569    15.994914619570
         H           -1.417587801171     0.939513938194    -1.312921028569     1.007825032230
         H           -0.219687801171    -0.785986061806     3.112178971431     1.007825032230
         H           -3.042787801171     1.017213938194     0.477378971431     1.007825032230
         H           -2.398387801171     0.169013938194     2.662178971431     1.007825032230
         H            2.557512198829    -0.908186061806    -0.170321028569     1.007825032230

  Running in c1 symmetry.

  Rotational constants: A =      0.12802  B =      0.04219  C =      0.03173 [cm^-1]
  Rotational constants: A =   3837.87044  B =   1264.76717  C =    951.28565 [MHz]
  Nuclear repulsion =  408.413457702088806

  Charge       = 0
  Multiplicity = 1
  Electrons    = 64
  Nalpha       = 32
  Nbeta        = 32

  ==> Algorithm <==

  SCF Algorithm Type is DF.
  DIIS enabled.
  MOM disabled.
  Fractional occupation disabled.
  Guess Type is SAD.
  Energy threshold   = 1.00e-06
  Density threshold  = 1.00e-06
  Integral threshold = 0.00e+00

  ==> Primary Basis <==

  Basis Set: MINIX
    Blend: MINIX
    Number of shells: 33
    Number of basis function: 51
    Number of Cartesian functions: 51
    Spherical Harmonics?: true
    Max angular momentum: 1

   => Loading Basis Set <=

    Name: (MINIX AUX)
    Role: JKFIT
    Keyword: DF_BASIS_SCF
    atoms 1, 10    entry O          line   323 file /home/bdw2292/miniconda3/envs/amoebamdpoltype/share/psi4/basis/def2-svp-jkfit.gbs 
    atoms 2-8      entry C          line   203 file /home/bdw2292/miniconda3/envs/amoebamdpoltype/share/psi4/basis/def2-svp-jkfit.gbs 
    atoms 9, 11-15 entry H          line    23 file /home/bdw2292/miniconda3/envs/amoebamdpoltype/share/psi4/basis/def2-svp-jkfit.gbs 

  ==> Pre-Iterations <==

   -------------------------------------------------------
    Irrep   Nso     Nmo     Nalpha   Nbeta   Ndocc  Nsocc
   -------------------------------------------------------
     A         51      51       0       0       0       0
   -------------------------------------------------------
    Total      51      51      32      32      32       0
   -------------------------------------------------------

  ==> Integral Setup <==

  DFHelper Memory: AOs need 0.020 GiB; user supplied 69.849 GiB. Using in-core AOs.

  ==> MemDFJK: Density-Fitted J/K Matrices <==

    J tasked:                   Yes
    K tasked:                   Yes
    wK tasked:                   No
    OpenMP threads:              12
    Memory [MiB]:             71525
    Algorithm:                 Core
    Schwarz Cutoff:           1E-12
    Mask sparsity (%):       3.2295
    Fitting Condition:        1E-10

   => Auxiliary Basis Set <=

  Basis Set: (MINIX AUX)
    Blend: DEF2-SVP-JKFIT
    Number of shells: 261
    Number of basis function: 787
    Number of Cartesian functions: 929
    Spherical Harmonics?: true
    Max angular momentum: 4

  Minimum eigenvalue in the overlap matrix is 1.6274827848E-01.
  Using Symmetric Orthogonalization.

  SCF Guess: Superposition of Atomic Densities via on-the-fly atomic UHF.

  ==> Iterations <==

                           Total Energy        Delta E     RMS |[F,P]|

   @DF-RHF iter SAD:  -411.73096468624101   -4.11731e+02   0.00000e+00 
   @DF-RHF iter   1:  -415.19906573155390   -3.46810e+00   1.02433e-02 DIIS
   @DF-RHF iter   2:  -415.32603940591758   -1.26974e-01   7.08399e-03 DIIS
   @DF-RHF iter   3:  -415.39286586874255   -6.68265e-02   7.53332e-04 DIIS
   @DF-RHF iter   4:  -415.39456406125220   -1.69819e-03   3.36933e-04 DIIS
   @DF-RHF iter   5:  -415.39492960683356   -3.65546e-04   1.06943e-04 DIIS
   @DF-RHF iter   6:  -415.39497619402169   -4.65872e-05   4.54232e-05 DIIS
   @DF-RHF iter   7:  -415.39498382732273   -7.63330e-06   1.51565e-05 DIIS
   @DF-RHF iter   8:  -415.39498472046608   -8.93143e-07   3.17505e-06 DIIS
   @DF-RHF iter   9:  -415.39498475847489   -3.80088e-08   9.31581e-07 DIIS
  Energy and wave function converged.


  ==> Post-Iterations <==

    Orbital Energies [Eh]
    ---------------------

    Doubly Occupied:                                                      

       1A    -20.367428     2A    -20.332671     3A    -11.366446  
       4A    -11.227594     5A    -11.220645     6A    -11.213558  
       7A    -11.212529     8A    -11.207913     9A    -11.206185  
      10A     -1.432107    11A     -1.335009    12A     -1.210292  
      13A     -1.081923    14A     -1.060778    15A     -0.910024  
      16A     -0.865466    17A     -0.811324    18A     -0.775028  
      19A     -0.701507    20A     -0.670080    21A     -0.656486  
      22A     -0.623254    23A     -0.622194    24A     -0.591376  
      25A     -0.551929    26A     -0.546195    27A     -0.527726  
      28A     -0.513001    29A     -0.444980    30A     -0.429877  
      31A     -0.388706    32A     -0.371507  

    Virtual:                                                              

      33A      0.105339    34A      0.163219    35A      0.261933  
      36A      0.430824    37A      0.461518    38A      0.544587  
      39A      0.582692    40A      0.626931    41A      0.653281  
      42A      0.675383    43A      0.690288    44A      0.757026  
      45A      0.800030    46A      0.855559    47A      0.883601  
      48A      0.917026    49A      0.935056    50A      1.067450  
      51A      1.127436  

    Final Occupation by Irrep:
              A 
    DOCC [    32 ]

  @DF-RHF Final Energy:  -415.39498475847489

   => Energetics <=

    Nuclear Repulsion Energy =            408.4134577020888059
    One-Electron Energy =               -1374.6654338951523187
    Two-Electron Energy =                 550.8569914345885081
    Total Energy =                       -415.3949847584749477

Computation Completed


Properties will be evaluated at  -0.000000,   0.000000,   0.000000 [a0]

Properties computed using the HF density matrix

  Nuclear Dipole Moment: [e a0]
     X:    -2.8751      Y:    -0.4439      Z:     5.6583

  Electronic Dipole Moment: [e a0]
     X:     2.3979      Y:     0.1211      Z:    -3.7914

  Dipole Moment: [e a0]
     X:    -0.4772      Y:    -0.3228      Z:     1.8669     Total:     1.9538

  Dipole Moment: [D]
     X:    -1.2129      Y:    -0.8206      Z:     4.7452     Total:     4.9660


*** tstop() called on node44.bme.utexas.edu at Tue Nov  9 09:53:04 2021
Module time:
	user time   =      16.70 seconds =       0.28 minutes
	system time =       1.04 seconds =       0.02 minutes
	total time  =          3 seconds =       0.05 minutes
Total time:
	user time   =      16.70 seconds =       0.28 minutes
	system time =       1.04 seconds =       0.02 minutes
	total time  =          3 seconds =       0.05 minutes
  ==> One Electron Grid Properties (v2.0) <==

  ==> CubicScalarGrid <==

    Filepath     = .
    Total Points =           524520
    XYZ Blocking =               10
    X Points     =               94
    Y Points     =               60
    Z Points     =               93
    X Spacing    =        2.000E-01
    Y Spacing    =        2.000E-01
    Z Spacing    =        2.000E-01
    X Minimum    =       -9.759E+00
    Y Minimum    =       -5.797E+00
    Z Minimum    =       -8.494E+00
    X Maximum    =        8.841E+00
    Y Maximum    =        6.003E+00
    Z Maximum    =        9.906E+00

  Basis Set: MINIX
    Blend: MINIX
    Number of shells: 33
    Number of basis function: 51
    Number of Cartesian functions: 51
    Spherical Harmonics?: true
    Max angular momentum: 1



Properties will be evaluated at  -0.000000,   0.000000,   0.000000 [a0]
OEProp: No title given, name of density matrix used for the following properties is 'SCF density'
  Mulliken Charges: (a.u.)
   Center  Symbol    Alpha    Beta     Spin     Total
       1     O     4.18831  4.18831  0.00000 -0.37662
       2     C     2.76161  2.76161  0.00000  0.47679
       3     C     3.03495  3.03495  0.00000 -0.06990
       4     C     3.05778  3.05778  0.00000 -0.11556
       5     C     3.04905  3.04905  0.00000 -0.09810
       6     C     3.07398  3.07398  0.00000 -0.14796
       7     C     3.06094  3.06094  0.00000 -0.12189
       8     C     3.06807  3.06807  0.00000 -0.13614
       9     H     0.43377  0.43377  0.00000  0.13246
      10     O     4.25147  4.25147  0.00000 -0.50294
      11     H     0.41488  0.41488  0.00000  0.17024
      12     H     0.42475  0.42475  0.00000  0.15050
      13     H     0.42260  0.42260  0.00000  0.15481
      14     H     0.42579  0.42579  0.00000  0.14843
      15     H     0.33206  0.33206  0.00000  0.33588

   Total alpha = 32.00000, Total beta = 32.00000, Total charge =  0.00000



  Wiberg Bond Indices using Orthogonal Lowdin Orbitals:

  Irrep: 1 Size: 15 x 15

                 1                   2                   3                   4                   5

    1     0.00000000000000     1.84086976078853     0.03150050107299     0.03348711558399     0.02523180746208
    2     1.84086976078853     0.00000000000000     1.02501458650888     0.00535604318451     0.00630769029021
    3     0.03150050107299     1.02501458650888     0.00000000000000     1.41184952975937     1.36642759172259
    4     0.03348711558399     0.00535604318451     1.41184952975937     0.00000000000000     0.00591979920162
    5     0.02523180746208     0.00630769029021     1.36642759172259     0.00591979920162     0.00000000000000
    6     0.00010780881699     0.00720935439295     0.00338899535935     0.10656693595637     1.46704365054801
    7     0.01579220782665     0.00227155176496     0.10628922226353     0.00471449007839     0.00578528422295
    8     0.00132785695525     0.00811019693961     0.00543143746610     1.43138041327129     0.11265904568686
    9     0.00047586061859     0.00338767736704     0.00057386328652     0.96029803132049     0.00821510048346
   10     0.13661426164494     1.03496073534785     0.01983582508605     0.00685488558124     0.00856177264537
   11     0.00097656500912     0.00306221736938     0.00078634969364     0.00692897993624     0.96174609004351
   12     0.00032570965009     0.00041301887471     0.00707597443870     0.00079451624847     0.00029354633854
   13     0.00003086427179     0.00024820899734     0.00678370731031     0.00015169800749     0.00163032545164
   14     0.00000632274804     0.00009804461769     0.00033946732282     0.00678647621440     0.00698256302626
   15     0.01064203348262     0.00147454570407     0.00025505913111     0.00197529336666     0.00002960178464

                 6                   7                   8                   9                  10

    1     0.00010780881699     0.01579220782665     0.00132785695525     0.00047586061859     0.13661426164494
    2     0.00720935439295     0.00227155176496     0.00811019693961     0.00338767736704     1.03496073534785
    3     0.00338899535935     0.10628922226353     0.00543143746610     0.00057386328652     0.01983582508605
    4     0.10656693595637     0.00471449007839     1.43138041327129     0.96029803132049     0.00685488558124
    5     1.46704365054801     0.00578528422295     0.11265904568686     0.00821510048346     0.00856177264537
    6     0.00000000000000     1.41418517723144     0.00341806989175     0.00024018681596     0.00101983344345
    7     1.41418517723144     0.00000000000000     1.44519820872989     0.00776165526869     0.00135027344489
    8     0.00341806989175     1.44519820872989     0.00000000000000     0.00108054893603     0.00041388668369
    9     0.00024018681596     0.00776165526869     0.00108054893603     0.00000000000000     0.00119744125606
   10     0.00101983344345     0.00135027344489     0.00041388668369     0.00119744125606     0.00000000000000
   11     0.00146102200464     0.00775651101418     0.00038378873038     0.00055031567173     0.00052045272969
   12     0.00726637697785     0.00085874697680     0.96549100955817     0.00399293046693     0.00005314744389
   13     0.96694613280071     0.00132139126020     0.00662967418547     0.00016483497594     0.00026445825222
   14     0.00144850263963     0.96743917899536     0.00143191404084     0.00035671704602     0.00003205824639
   15     0.00000125213755     0.00004753777370     0.00012553539010     0.00435497806245     0.92175302462540

                11                  12                  13                  14                  15

    1     0.00097656500912     0.00032570965009     0.00003086427179     0.00000632274804     0.01064203348262
    2     0.00306221736938     0.00041301887471     0.00024820899734     0.00009804461769     0.00147454570407
    3     0.00078634969364     0.00707597443870     0.00678370731031     0.00033946732282     0.00025505913111
    4     0.00692897993624     0.00079451624847     0.00015169800749     0.00678647621440     0.00197529336666
    5     0.96174609004351     0.00029354633854     0.00163032545164     0.00698256302626     0.00002960178464
    6     0.00146102200464     0.00726637697785     0.96694613280071     0.00144850263963     0.00000125213755
    7     0.00775651101418     0.00085874697680     0.00132139126020     0.96743917899536     0.00004753777370
    8     0.00038378873038     0.96549100955817     0.00662967418547     0.00143191404084     0.00012553539010
    9     0.00055031567173     0.00399293046693     0.00016483497594     0.00035671704602     0.00435497806245
   10     0.00052045272969     0.00005314744389     0.00026445825222     0.00003205824639     0.92175302462540
   11     0.00000000000000     0.00009282159888     0.00344791855410     0.00045259183516     0.00000004561363
   12     0.00009282159888     0.00000000000000     0.00032967329134     0.00360554764242     0.00000107592748
   13     0.00344791855410     0.00032967329134     0.00000000000000     0.00301404956251     0.00000160844239
   14     0.00045259183516     0.00360554764242     0.00301404956251     0.00000000000000     0.00000747506900
   15     0.00000004561363     0.00000107592748     0.00000160844239     0.00000747506900     0.00000000000000



  Atomic Valences: 

 #  #
 Irrep: 1
      1:  2.0973887
      2:  3.9387836
      3:  3.9855521
      4:  3.9830642
      5:  3.9768339
      6:  3.9803033
      7:  3.9807714
      8:  3.9830816
      9:  0.9926501
     10:  2.1334321
     11:  0.9881657
     12:  0.9905941
     13:  0.9909645
     14:  0.9920009
     15:  0.9406691


    Psi4 stopped on: Tuesday, 09 November 2021 09:53AM
    Psi4 wall time for execution: 0:00:14.01

*** Psi4 exiting successfully. Buy a developer a beer!
