
    -----------------------------------------------------------------------
          Psi4: An Open-Source Ab Initio Electronic Structure Package
                               Psi4 1.6 release

                         Git: Rev {HEAD} 77475b5 


    D. G. A. Smith, L. A. Burns, A. C. Simmonett, R. M. Parrish,
    M. C. Schieber, R. Galvelis, P. Kraus, H. Kruse, R. Di Remigio,
    A. Alenaizan, A. M. James, S. Lehtola, J. P. Misiewicz, M. Scheurer,
    R. A. Shaw, J. B. Schriber, Y. Xie, Z. L. Glick, D. A. Sirianni,
    J. S. O'Brien, J. M. Waldrop, A. Kumar, E. G. Hohenstein,
    B. P. Pritchard, B. R. Brooks, H. F. Schaefer III, A. Yu. Sokolov,
    K. Patkowski, A. E. DePrince III, U. Bozkaya, R. A. King,
    F. A. Evangelista, J. M. Turney, T. D. Crawford, C. D. Sherrill,
    J. Chem. Phys. 152(18) 184108 (2020). https://doi.org/10.1063/5.0006002

                            Additional Code Authors
    E. T. Seidl, C. L. Janssen, E. F. Valeev, M. L. Leininger,
    J. F. Gonthier, R. M. Richard, H. R. McAlexander, M. Saitow, X. Wang,
    P. Verma, M. H. Lechner, and A. Jiang

             Previous Authors, Complete List of Code Contributors,
                       and Citations for Specific Modules
    https://github.com/psi4/psi4/blob/master/codemeta.json
    https://github.com/psi4/psi4/graphs/contributors
    http://psicode.org/psi4manual/master/introduction.html#citing-psifour

    -----------------------------------------------------------------------


    Psi4 started on: Saturday, 18 November 2023 08:31AM

    Process ID: 1127866
    Host:       node165.bme.utexas.edu
    PSIDATADIR: /home/liuchw/anaconda3/envs/poltype2022/share/psi4
    Memory:     500.0 MiB
    Threads:    1
    
  ==> Input File <==

--------------------------------------------------------------------------
molecule { 
0 1
 C   -0.816028   -0.228762   -0.039515
 N    0.386359   -0.461809    0.678634
 C    1.517388    0.208315    0.317397
 C    2.748953    0.008149    1.201464
 C    0.282659   -1.217250    1.907951
 O    1.575681    0.933027   -0.656317
 C   -1.986266    0.096665    0.637458
 C   -3.172575    0.197372   -1.446871
 C   -3.157661    0.306847   -0.067168
 C   -2.008088   -0.129157   -2.120923
 C   -0.834506   -0.350192   -1.423929
 H    1.186145   -1.804272    2.065813
 H   -0.554303   -1.909258    1.818811
 H    0.128547   -0.573772    2.779503
 N    3.874440    0.829663    0.796597
 H    3.071865   -1.039117    1.170468
 H    2.519393    0.237655    2.246928
 H   -1.982274    0.198783    1.712190
 H   -4.061025    0.563434    0.466513
 H   -2.013477   -0.220245   -3.196741
 H    0.071946   -0.604599   -1.948613
 H    4.024278    0.691051   -0.202000
 H   -4.087869    0.366584   -1.993807
 H    3.596410    1.807888    0.853351
}
memory 20GB
set_num_threads(5)
psi4_io.set_default_path("/scratch/liuchw/Psi4-3_25_Index_0_GrowFragment_3-farH_in17")
set freeze_core True
E, wfn = energy('wb97x-d/6-311+G*',return_wfn=True)
oeprop(wfn,"WIBERG_LOWDIN_INDICES")
clean()
--------------------------------------------------------------------------

  Memory set to  18.626 GiB by Python driver.
  Threads set to 5 by Python driver.

Scratch directory: /scratch/liuchw/Psi4-3_25_Index_0_GrowFragment_3-farH_in17/

*** tstart() called on node165.bme.utexas.edu
*** at Sat Nov 18 08:31:28 2023

   => Loading Basis Set <=

    Name: 6-311+G*
    Role: ORBITAL
    Keyword: BASIS
    atoms 1, 3-5, 7-11 entry C          line   130 file /home/liuchw/anaconda3/envs/poltype2022/share/psi4/basis/6-311pgs.gbs 
    atoms 2, 15        entry N          line   151 file /home/liuchw/anaconda3/envs/poltype2022/share/psi4/basis/6-311pgs.gbs 
    atoms 6            entry O          line   172 file /home/liuchw/anaconda3/envs/poltype2022/share/psi4/basis/6-311pgs.gbs 
    atoms 12-14, 16-24 entry H          line    47 file /home/liuchw/anaconda3/envs/poltype2022/share/psi4/basis/6-311pgs.gbs 

   => WB97X-D: Empirical Dispersion <=

    Chai and Head-Gordon Dispersion Correction
    Chai, J.-D.; Head-Gordon, M. (2010), J. Chem. Phys., 132: 6615-6620

        s6 =       1.000000


         ---------------------------------------------------------
                                   SCF
               by Justin Turney, Rob Parrish, Andy Simmonett
                          and Daniel G. A. Smith
                              RKS Reference
                        5 Threads,  19073 MiB Core
         ---------------------------------------------------------

  ==> Geometry <==

    Molecular point group: c1
    Full point group: C1

    Geometry (in Angstrom), charge = 0, multiplicity = 1:

       Center              X                  Y                   Z               Mass       
    ------------   -----------------  -----------------  -----------------  -----------------
         C           -0.801817810567    -0.256031959507    -0.061258432973    12.000000000000
         N            0.400569189433    -0.489078959507     0.656890567027    14.003074004430
         C            1.531598189433     0.181045040493     0.295653567027    12.000000000000
         C            2.763163189433    -0.019120959507     1.179720567027    12.000000000000
         C            0.296869189433    -1.244519959507     1.886207567027    12.000000000000
         O            1.589891189433     0.905757040493    -0.678060432973    15.994914619570
         C           -1.972055810567     0.069395040493     0.615714567027    12.000000000000
         C           -3.158364810567     0.170102040493    -1.468614432973    12.000000000000
         C           -3.143450810567     0.279577040493    -0.088911432973    12.000000000000
         C           -1.993877810567    -0.156426959507    -2.142666432973    12.000000000000
         C           -0.820295810567    -0.377461959507    -1.445672432973    12.000000000000
         H            1.200355189433    -1.831541959507     2.044069567027     1.007825032230
         H           -0.540092810567    -1.936527959507     1.797067567027     1.007825032230
         H            0.142757189433    -0.601041959507     2.757759567027     1.007825032230
         N            3.888650189433     0.802393040493     0.774853567027    14.003074004430
         H            3.086075189433    -1.066386959507     1.148724567027     1.007825032230
         H            2.533603189433     0.210385040493     2.225184567027     1.007825032230
         H           -1.968063810567     0.171513040493     1.690446567027     1.007825032230
         H           -4.046814810567     0.536164040493     0.444769567027     1.007825032230
         H           -1.999266810567    -0.247514959507    -3.218484432973     1.007825032230
         H            0.086156189433    -0.631868959507    -1.970356432973     1.007825032230
         H            4.038488189433     0.663781040493    -0.223743432973     1.007825032230
         H           -4.073658810567     0.339314040493    -2.015550432973     1.007825032230
         H            3.610620189433     1.780618040493     0.831607567027     1.007825032230

  Running in c1 symmetry.

  Rotational constants: A =      0.07457  B =      0.01820  C =      0.01577 [cm^-1]
  Rotational constants: A =   2235.65618  B =    545.55342  C =    472.63386 [MHz]
  Nuclear repulsion =  687.089185606898127

  Charge       = 0
  Multiplicity = 1
  Electrons    = 88
  Nalpha       = 44
  Nbeta        = 44

  ==> Algorithm <==

  SCF Algorithm Type is DF.
  DIIS enabled.
  MOM disabled.
  Fractional occupation disabled.
  Guess Type is SAD.
  Energy threshold   = 1.00e-06
  Density threshold  = 1.00e-06
  Integral threshold = 1.00e-12

  ==> Primary Basis <==

  Basis Set: 6-311+G*
    Blend: 6-311+G*
    Number of shells: 156
    Number of basis functions: 300
    Number of Cartesian functions: 312
    Spherical Harmonics?: true
    Max angular momentum: 2

  ==> DFT Potential <==

   => LibXC <=

    Version 5.1.5
    S. Lehtola, C. Steigemann, M. J. Oliveira, and M. A. Marques, SoftwareX 7, 1 (2018) (10.1016/j.softx.2017.11.002)

   => Composite Functional: WB97X-D <= 

    wB97X-D Hyb-GGA Exchange-Correlation Functional

    J.-D. Chai and M. Head-Gordon, Phys. Chem. Chem. Phys. 10, 6615 (2008) (10.1039/B810189B)

    Deriv               =              1
    GGA                 =           TRUE
    Meta                =          FALSE

    Exchange Hybrid     =           TRUE
    MP2 Hybrid          =          FALSE

   => Exchange-Correlation Functionals <=

    1.0000   wB97X-D range-separated functional

   => Exact (HF) Exchange <=

    0.7780            HF,LR [omega = 0.2000]
    0.2220               HF 

   => LibXC Density Thresholds  <==

    XC_HYB_GGA_XC_WB97X_D:  1.00E-14 

   => Molecular Quadrature <=

    Radial Scheme          =       TREUTLER
    Pruning Scheme         =           NONE
    Nuclear Scheme         =       TREUTLER

    Blocking Scheme        =         OCTREE
    BS radius alpha        =              1
    Pruning alpha          =              1
    Radial Points          =             75
    Spherical Points       =            302
    Total Points           =         503584
    Total Blocks           =           3660
    Max Points             =            256
    Max Functions          =            274
    Weights Tolerance      =       1.00E-15

   => Loading Basis Set <=

    Name: (6-311+G* AUX)
    Role: JKFIT
    Keyword: DF_BASIS_SCF
    atoms 1, 3-5, 7-11 entry C          line   200 file /home/liuchw/anaconda3/envs/poltype2022/share/psi4/basis/heavy-aug-cc-pvtz-jkfit.gbs 
    atoms 2, 15        entry N          line   262 file /home/liuchw/anaconda3/envs/poltype2022/share/psi4/basis/heavy-aug-cc-pvtz-jkfit.gbs 
    atoms 6            entry O          line   324 file /home/liuchw/anaconda3/envs/poltype2022/share/psi4/basis/heavy-aug-cc-pvtz-jkfit.gbs 
    atoms 12-14, 16-24 entry H          line   116 file /home/liuchw/anaconda3/envs/poltype2022/share/psi4/basis/heavy-aug-cc-pvtz-jkfit.gbs 

  ==> Integral Setup <==

  DFHelper Memory: AOs need 2.939 GiB; user supplied 11.156 GiB. Using in-core AOs.

  ==> MemDFJK: Density-Fitted J/K Matrices <==

    J tasked:                   Yes
    K tasked:                   Yes
    wK tasked:                  Yes
    Omega:                2.000E-01
    OpenMP threads:               5
    Memory [MiB]:             11423
    Algorithm:                 Core
    Schwarz Cutoff:           1E-12
    Mask sparsity (%):      10.3956
    Fitting Condition:        1E-10

   => Auxiliary Basis Set <=

  Basis Set: (6-311+G* AUX)
    Blend: HEAVY-AUG-CC-PVTZ-JKFIT
    Number of shells: 480
    Number of basis functions: 1608
    Number of Cartesian functions: 1992
    Spherical Harmonics?: true
    Max angular momentum: 4

  Cached 100.0% of DFT collocation blocks in 2.814 [GiB].

  Minimum eigenvalue in the overlap matrix is 1.8945214098E-06.
  Reciprocal condition number of the overlap matrix is 1.3287367901E-07.
    Using symmetric orthogonalization.

  ==> Pre-Iterations <==

  SCF Guess: Superposition of Atomic Densities via on-the-fly atomic UHF (no occupation information).

   -------------------------
    Irrep   Nso     Nmo    
   -------------------------
     A        300     300 
   -------------------------
    Total     300     300
   -------------------------

  ==> Iterations <==

                           Total Energy        Delta E     RMS |[F,P]|

   @DF-RKS iter SAD:  -534.34291427754692   -5.34343e+02   0.00000e+00 
   @DF-RKS iter   1:  -534.25085472145315    9.20596e-02   3.77502e-03 ADIIS/DIIS
   @DF-RKS iter   2:  -534.44535878161923   -1.94504e-01   3.35700e-03 ADIIS/DIIS
   @DF-RKS iter   3:  -534.84405573599543   -3.98697e-01   6.64712e-04 ADIIS/DIIS
   @DF-RKS iter   4:  -534.85732355834421   -1.32678e-02   2.26261e-04 ADIIS/DIIS
   @DF-RKS iter   5:  -534.85903779848024   -1.71424e-03   6.50110e-05 DIIS
   @DF-RKS iter   6:  -534.85919217980518   -1.54381e-04   1.68885e-05 DIIS
   @DF-RKS iter   7:  -534.85920458259636   -1.24028e-05   3.31063e-06 DIIS
   @DF-RKS iter   8:  -534.85920529096893   -7.08373e-07   2.01313e-06 DIIS
   @DF-RKS iter   9:  -534.85920552037942   -2.29410e-07   4.87087e-07 DIIS
  Energy and wave function converged.


  ==> Post-Iterations <==

   Electrons on quadrature grid:
      Ntotal   =   88.0000342864 ; deviation = 3.429e-05 

    Orbital Energies [Eh]
    ---------------------

    Doubly Occupied:                                                      

       1A    -19.217786     2A    -14.478087     3A    -14.411751  
       4A    -10.390550     5A    -10.333271     6A    -10.332211  
       7A    -10.322147     8A    -10.294313     9A    -10.292599  
      10A    -10.290002    11A    -10.288373    12A    -10.288214  
      13A     -1.157568    14A     -1.064469    15A     -0.991155  
      16A     -0.965106    17A     -0.864869    18A     -0.859264  
      19A     -0.825961    20A     -0.794430    21A     -0.721572  
      22A     -0.710203    23A     -0.658274    24A     -0.616266  
      25A     -0.603221    26A     -0.599179    27A     -0.578310  
      28A     -0.569416    29A     -0.544334    30A     -0.537739  
      31A     -0.519107    32A     -0.516015    33A     -0.502204  
      34A     -0.494486    35A     -0.489865    36A     -0.468591  
      37A     -0.451786    38A     -0.447430    39A     -0.437708  
      40A     -0.370731    41A     -0.355518    42A     -0.336966  
      43A     -0.330739    44A     -0.309447  

    Virtual:                                                              

      45A      0.045104    46A      0.051024    47A      0.055544  
      48A      0.067701    49A      0.071030    50A      0.076999  
      51A      0.085344    52A      0.089699    53A      0.096103  
      54A      0.101897    55A      0.106859    56A      0.114155  
      57A      0.117104    58A      0.119773    59A      0.134598  
      60A      0.142130    61A      0.145014    62A      0.150803  
      63A      0.156138    64A      0.159211    65A      0.176699  
      66A      0.180873    67A      0.184888    68A      0.192097  
      69A      0.193533    70A      0.199413    71A      0.207824  
      72A      0.212839    73A      0.218804    74A      0.221401  
      75A      0.224599    76A      0.226229    77A      0.232396  
      78A      0.238027    79A      0.242359    80A      0.248372  
      81A      0.254205    82A      0.260892    83A      0.263869  
      84A      0.267131    85A      0.269505    86A      0.275340  
      87A      0.278791    88A      0.284264    89A      0.289356  
      90A      0.289652    91A      0.293788    92A      0.298322  
      93A      0.303983    94A      0.310581    95A      0.311785  
      96A      0.323005    97A      0.326269    98A      0.326775  
      99A      0.334823   100A      0.343164   101A      0.345410  
     102A      0.348734   103A      0.370534   104A      0.378158  
     105A      0.387996   106A      0.393003   107A      0.400453  
     108A      0.406668   109A      0.414783   110A      0.422217  
     111A      0.429708   112A      0.435674   113A      0.439892  
     114A      0.453017   115A      0.459757   116A      0.481065  
     117A      0.494779   118A      0.524238   119A      0.545085  
     120A      0.551285   121A      0.568768   122A      0.584608  
     123A      0.596411   124A      0.603200   125A      0.615005  
     126A      0.618182   127A      0.626851   128A      0.632371  
     129A      0.637578   130A      0.640178   131A      0.666333  
     132A      0.676599   133A      0.684162   134A      0.695237  
     135A      0.699916   136A      0.723002   137A      0.732265  
     138A      0.739102   139A      0.749501   140A      0.755075  
     141A      0.764154   142A      0.767396   143A      0.781215  
     144A      0.788347   145A      0.794140   146A      0.798757  
     147A      0.805559   148A      0.812596   149A      0.824229  
     150A      0.830776   151A      0.838254   152A      0.854485  
     153A      0.874000   154A      0.888602   155A      0.914069  
     156A      0.925145   157A      0.929933   158A      0.942101  
     159A      0.945490   160A      0.956358   161A      0.966274  
     162A      0.970144   163A      0.974632   164A      1.000303  
     165A      1.020850   166A      1.030034   167A      1.061309  
     168A      1.076467   169A      1.099602   170A      1.118005  
     171A      1.127791   172A      1.163400   173A      1.205991  
     174A      1.216150   175A      1.241726   176A      1.274590  
     177A      1.275805   178A      1.284786   179A      1.294055  
     180A      1.320534   181A      1.333763   182A      1.349799  
     183A      1.360740   184A      1.375034   185A      1.418645  
     186A      1.462529   187A      1.503179   188A      1.510837  
     189A      1.558757   190A      1.592302   191A      1.608925  
     192A      1.618190   193A      1.628176   194A      1.659554  
     195A      1.670987   196A      1.695566   197A      1.707839  
     198A      1.732126   199A      1.745093   200A      1.783656  
     201A      1.818871   202A      1.824708   203A      1.862415  
     204A      1.879841   205A      1.883250   206A      1.887911  
     207A      1.913129   208A      1.930331   209A      1.936751  
     210A      1.978847   211A      2.018458   212A      2.036420  
     213A      2.047054   214A      2.070644   215A      2.089929  
     216A      2.116861   217A      2.139222   218A      2.156153  
     219A      2.178646   220A      2.226870   221A      2.279240  
     222A      2.282810   223A      2.324813   224A      2.379421  
     225A      2.397084   226A      2.415286   227A      2.435791  
     228A      2.449553   229A      2.488539   230A      2.496730  
     231A      2.513165   232A      2.525044   233A      2.575357  
     234A      2.610263   235A      2.667692   236A      2.675274  
     237A      2.687572   238A      2.704296   239A      2.718470  
     240A      2.780171   241A      2.789314   242A      2.851166  
     243A      2.877312   244A      2.886190   245A      2.894688  
     246A      2.914040   247A      2.942766   248A      2.973597  
     249A      3.013044   250A      3.029575   251A      3.034270  
     252A      3.046099   253A      3.081670   254A      3.107361  
     255A      3.169650   256A      3.203792   257A      3.264235  
     258A      3.295946   259A      3.315651   260A      3.364325  
     261A      3.419178   262A      3.421188   263A      3.432922  
     264A      3.440335   265A      3.465311   266A      3.479903  
     267A      3.485841   268A      3.512469   269A      3.619356  
     270A      3.644722   271A      3.714127   272A      3.746376  
     273A      3.773233   274A      3.887905   275A      3.945199  
     276A      4.085849   277A      4.097404   278A      4.134448  
     279A      4.161178   280A      4.168083   281A      4.180978  
     282A      4.691721   283A      4.902269   284A      4.925921  
     285A      5.128137   286A      5.212217   287A      5.374624  
     288A      5.900049   289A     23.487873   290A     23.699374  
     291A     23.783660   292A     23.994390   293A     24.012326  
     294A     24.033651   295A     24.192963   296A     24.212032  
     297A     24.317504   298A     35.570940   299A     35.711719  
     300A     50.169838  

    Final Occupation by Irrep:
              A 
    DOCC [    44 ]

  @DF-RKS Final Energy:  -534.85920552037942

   => Energetics <=

    Nuclear Repulsion Energy =            687.0891856068981269
    One-Electron Energy =               -2087.1837143604611811
    Two-Electron Energy =                 917.4665672875235032
    DFT Exchange-Correlation Energy =     -52.2167113373072453
    Empirical Dispersion Energy =          -0.0145327170325636
    VV10 Nonlocal Energy =                  0.0000000000000000
    Total Energy =                       -534.8592055203794189

Computation Completed


Properties will be evaluated at   0.000000,   0.000000,   0.000000 [a0]

Properties computed using the SCF density matrix


 Multipole Moments:

 ------------------------------------------------------------------------------------
     Multipole            Electronic (a.u.)      Nuclear  (a.u.)        Total (a.u.)
 ------------------------------------------------------------------------------------

 L = 1.  Multiply by 2.5417464519 to convert [e a0] to [Debye]
 Dipole X            :         -2.7781329            1.9358915           -0.8422414
 Dipole Y            :          1.7010441           -2.4462664           -0.7452223
 Dipole Z            :         -4.4283114            5.1594416            0.7311301
 Magnitude           :                                                    1.3413717

 ------------------------------------------------------------------------------------

*** tstop() called on node165.bme.utexas.edu at Sat Nov 18 08:31:49 2023
Module time:
	user time   =      92.80 seconds =       1.55 minutes
	system time =       5.01 seconds =       0.08 minutes
	total time  =         21 seconds =       0.35 minutes
Total time:
	user time   =      92.80 seconds =       1.55 minutes
	system time =       5.01 seconds =       0.08 minutes
	total time  =         21 seconds =       0.35 minutes


Properties will be evaluated at   0.000000,   0.000000,   0.000000 [a0]
OEProp: No title given, name of density matrix used for the following properties is 'SCF density'


  Wiberg Bond Indices using Orthogonal Lowdin Orbitals:

  Irrep: 1 Size: 24 x 24

                 1                   2                   3                   4                   5

    1     0.00000000000000     1.11120927018466     0.10747928022401     0.01854149673846     0.10889757924202
    2     1.11120927018466     0.00000000000000     1.34347051311860     0.11162470312033     1.16627629818064
    3     0.10747928022401     1.34347051311860     0.00000000000000     1.01833236231796     0.10906668726603
    4     0.01854149673846     0.11162470312033     1.01833236231796     0.00000000000000     0.06571986230314
    5     0.10889757924202     1.16627629818064     0.10906668726603     0.06571986230314     0.00000000000000
    6     0.05848934404690     0.23599943505361     2.20003798354956     0.15151584502314     0.02668682997977
    7     1.41380973775919     0.11928146691187     0.02876479174386     0.00369138178241     0.05612527018987
    8     0.13709611610917     0.01172448006415     0.00651730669856     0.00066538894789     0.00389954030558
    9     0.13751371761851     0.01568028544254     0.00384414843325     0.00068731415802     0.00665587068756
   10     0.13822708987164     0.01606129681754     0.00525204380954     0.00090123758265     0.00338270635712
   11     1.39837793979996     0.11910839485325     0.04540971779772     0.00603128662730     0.02213670830980
   12     0.00914699422777     0.04776009868760     0.01548404363528     0.01900937741803     0.87645233445380
   13     0.01990781640153     0.04693535398267     0.00931375969017     0.00229021425685     0.87398229212963
   14     0.00820613272024     0.05077567678716     0.01624282018316     0.00669564429454     0.87969354083550
   15     0.00364281614526     0.01559496813480     0.12236627066743     1.33967362709119     0.00636645951008
   16     0.00081928561780     0.01239202790129     0.04590693475027     0.83883770034187     0.01069262304187
   17     0.00095999701582     0.01298781367412     0.04457071943822     0.83958493469552     0.01390529246496
   18     0.05597720052135     0.01604854700720     0.00221576958180     0.00028084868405     0.01498587188209
   19     0.01083712725148     0.00090005090118     0.00039340398057     0.00007772374793     0.00025121332087
   20     0.01092950299421     0.00084688790064     0.00022783970777     0.00003072431861     0.00038248425736
   21     0.05446387227611     0.01550811880216     0.00952287934322     0.00089866671094     0.00152740133600
   22     0.00027279248997     0.00068085460975     0.01155929775289     0.03897936629184     0.00091844735071
   23     0.00297541745138     0.00022994973381     0.00006290056273     0.00002598392641     0.00010187614586
   24     0.00016527217980     0.00067521217982     0.01004533208029     0.03893037164254     0.00060235663323

                 6                   7                   8                   9                  10

    1     0.05848934404690     1.41380973775919     0.13709611610917     0.13751371761851     0.13822708987164
    2     0.23599943505361     0.11928146691187     0.01172448006415     0.01568028544254     0.01606129681754
    3     2.20003798354956     0.02876479174386     0.00651730669856     0.00384414843325     0.00525204380954
    4     0.15151584502314     0.00369138178241     0.00066538894789     0.00068731415802     0.00090123758265
    5     0.02668682997977     0.05612527018987     0.00389954030558     0.00665587068756     0.00338270635712
    6     0.00000000000000     0.01186130673533     0.00403622670899     0.00320110705756     0.00958745428816
    7     0.01186130673533     0.00000000000000     0.14017490483226     1.51781060658458     0.14262586260444
    8     0.00403622670899     0.14017490483226     0.00000000000000     1.52356255627779     1.51450123711399
    9     0.00320110705756     1.51781060658458     1.52356255627779     0.00000000000000     0.13990919010304
   10     0.00958745428816     0.14262586260444     1.51450123711399     0.13990919010304     0.00000000000000
   11     0.06274444969825     0.12902336187316     0.14026540490205     0.14403259853010     1.52352944175228
   12     0.00174756901044     0.00242483235478     0.00052610340479     0.00037458397294     0.00023221961657
   13     0.00196728371964     0.01302775009656     0.00052486791638     0.00130785650529     0.00052001174885
   14     0.00434044961231     0.00705043066149     0.00034427091771     0.00045817390747     0.00022793864427
   15     0.07970067953689     0.00077703649839     0.00019357161737     0.00018263232524     0.00015682117768
   16     0.01329634990681     0.00042002130181     0.00011907477730     0.00008933801070     0.00005790393557
   17     0.01166987425033     0.00039242005932     0.00013605255593     0.00004704123732     0.00007537057205
   18     0.00016016775789     0.80875586069508     0.01065304953649     0.05620249972582     0.00240778497906
   19     0.00009157501838     0.06135860410024     0.05957587271373     0.83167273004093     0.01145291178899
   20     0.00022489770288     0.00252415524499     0.05971959475431     0.01145101244330     0.83144676095023
   21     0.01377703267192     0.00909787552742     0.01052437279855     0.00238043140999     0.05584257500962
   22     0.01265420898447     0.00006703676584     0.00001431803998     0.00002224187087     0.00001986684904
   23     0.00005990289820     0.01133574051174     0.83354612875141     0.06013356687645     0.05983581504517
   24     0.00815268700620     0.00007055304123     0.00002673485177     0.00001999008117     0.00002980164990

                11                  12                  13                  14                  15

    1     1.39837793979996     0.00914699422777     0.01990781640153     0.00820613272024     0.00364281614526
    2     0.11910839485325     0.04776009868760     0.04693535398267     0.05077567678716     0.01559496813480
    3     0.04540971779772     0.01548404363528     0.00931375969017     0.01624282018316     0.12236627066743
    4     0.00603128662730     0.01900937741803     0.00229021425685     0.00669564429454     1.33967362709119
    5     0.02213670830980     0.87645233445380     0.87398229212963     0.87969354083550     0.00636645951008
    6     0.06274444969825     0.00174756901044     0.00196728371964     0.00434044961231     0.07970067953689
    7     0.12902336187316     0.00242483235478     0.01302775009656     0.00705043066149     0.00077703649839
    8     0.14026540490205     0.00052610340479     0.00052486791638     0.00034427091771     0.00019357161737
    9     0.14403259853010     0.00037458397294     0.00130785650529     0.00045817390747     0.00018263232524
   10     1.52352944175228     0.00023221961657     0.00052001174885     0.00022793864427     0.00015682117768
   11     0.00000000000000     0.00101712315530     0.00250244673107     0.00090546676296     0.00096841808546
   12     0.00101712315530     0.00000000000000     0.01026495016837     0.00771442486492     0.00124463326954
   13     0.00250244673107     0.01026495016837     0.00000000000000     0.00772541615088     0.00031410508318
   14     0.00090546676296     0.00771442486492     0.00772541615088     0.00000000000000     0.00025394604430
   15     0.00096841808546     0.00124463326954     0.00031410508318     0.00025394604430     0.00000000000000
   16     0.00041459864156     0.00280814154538     0.00019635069984     0.00055526345156     0.04333546558750
   17     0.00044779624994     0.00236640444327     0.00042597706138     0.00077056462788     0.04144972625159
   18     0.00945846459047     0.00032173488570     0.00136421732907     0.00120301452136     0.00006165197576
   19     0.00253372462280     0.00001643144259     0.00001599914132     0.00004553442586     0.00002256663020
   20     0.06110536215836     0.00000635388306     0.00005108843215     0.00000949297622     0.00000861735126
   21     0.80238758619865     0.00000832342298     0.00003237572094     0.00008626776876     0.00011227761212
   22     0.00011293731644     0.00006080152777     0.00009811532383     0.00008937230573     0.87959193779326
   23     0.01127482996642     0.00000454498517     0.00001763235065     0.00003751152242     0.00000386861310
   24     0.00015247820132     0.00026771352059     0.00002370734130     0.00001227092314     0.88346991131663

                16                  17                  18                  19                  20

    1     0.00081928561780     0.00095999701582     0.05597720052135     0.01083712725148     0.01092950299421
    2     0.01239202790129     0.01298781367412     0.01604854700720     0.00090005090118     0.00084688790064
    3     0.04590693475027     0.04457071943822     0.00221576958180     0.00039340398057     0.00022783970777
    4     0.83883770034187     0.83958493469552     0.00028084868405     0.00007772374793     0.00003072431861
    5     0.01069262304187     0.01390529246496     0.01498587188209     0.00025121332087     0.00038248425736
    6     0.01329634990681     0.01166987425033     0.00016016775789     0.00009157501838     0.00022489770288
    7     0.00042002130181     0.00039242005932     0.80875586069508     0.06135860410024     0.00252415524499
    8     0.00011907477730     0.00013605255593     0.01065304953649     0.05957587271373     0.05971959475431
    9     0.00008933801070     0.00004704123732     0.05620249972582     0.83167273004093     0.01145101244330
   10     0.00005790393557     0.00007537057205     0.00240778497906     0.01145291178899     0.83144676095023
   11     0.00041459864156     0.00044779624994     0.00945846459047     0.00253372462280     0.06110536215836
   12     0.00280814154538     0.00236640444327     0.00032173488570     0.00001643144259     0.00000635388306
   13     0.00019635069984     0.00042597706138     0.00136421732907     0.00001599914132     0.00005108843215
   14     0.00055526345156     0.00077056462788     0.00120301452136     0.00004553442586     0.00000949297622
   15     0.04333546558750     0.04144972625159     0.00006165197576     0.00002256663020     0.00000861735126
   16     0.00000000000000     0.00628966644176     0.00009736503418     0.00000296220036     0.00000536976049
   17     0.00628966644176     0.00000000000000     0.00000212556552     0.00000636277945     0.00000221273989
   18     0.00009736503418     0.00000212556552     0.00000000000000     0.00553750741335     0.00023797162962
   19     0.00000296220036     0.00000636277945     0.00553750741335     0.00000000000000     0.00026321706177
   20     0.00000536976049     0.00000221273989     0.00023797162962     0.00026321706177     0.00000000000000
   21     0.00002954598654     0.00010416649585     0.00038564046235     0.00021944946137     0.00541308356333
   22     0.00344954072888     0.00988990955907     0.00000267061700     0.00000116982492     0.00000090508412
   23     0.00000108770496     0.00000433137599     0.00020975407793     0.00538268475221     0.00536555071757
   24     0.00974458911321     0.00456540240262     0.00001980954952     0.00000109881968     0.00000070145973

                21                  22                  23                  24

    1     0.05446387227611     0.00027279248997     0.00297541745138     0.00016527217980
    2     0.01550811880216     0.00068085460975     0.00022994973381     0.00067521217982
    3     0.00952287934322     0.01155929775289     0.00006290056273     0.01004533208029
    4     0.00089866671094     0.03897936629184     0.00002598392641     0.03893037164254
    5     0.00152740133600     0.00091844735071     0.00010187614586     0.00060235663323
    6     0.01377703267192     0.01265420898447     0.00005990289820     0.00815268700620
    7     0.00909787552742     0.00006703676584     0.01133574051174     0.00007055304123
    8     0.01052437279855     0.00001431803998     0.83354612875141     0.00002673485177
    9     0.00238043140999     0.00002224187087     0.06013356687645     0.00001999008117
   10     0.05584257500962     0.00001986684904     0.05983581504517     0.00002980164990
   11     0.80238758619865     0.00011293731644     0.01127482996642     0.00015247820132
   12     0.00000832342298     0.00006080152777     0.00000454498517     0.00026771352059
   13     0.00003237572094     0.00009811532383     0.00001763235065     0.00002370734130
   14     0.00008626776876     0.00008937230573     0.00003751152242     0.00001227092314
   15     0.00011227761212     0.87959193779326     0.00000386861310     0.88346991131663
   16     0.00002954598654     0.00344954072888     0.00000108770496     0.00974458911321
   17     0.00010416649585     0.00988990955907     0.00000433137599     0.00456540240262
   18     0.00038564046235     0.00000267061700     0.00020975407793     0.00001980954952
   19     0.00021944946137     0.00000116982492     0.00538268475221     0.00000109881968
   20     0.00541308356333     0.00000090508412     0.00536555071757     0.00000070145973
   21     0.00000000000000     0.00001026599959     0.00022763045137     0.00007312394471
   22     0.00001026599959     0.00000000000000     0.00000085575545     0.00757355854665
   23     0.00022763045137     0.00000085575545     0.00000000000000     0.00000024343533
   24     0.00007312394471     0.00757355854665     0.00000024343533     0.00000000000000



  Atomic Valences: 

 #  #
 Irrep: 1
      1:    4.807945798887255
      2:    4.471771704049403
      3:    5.156086806332876
      4:    4.503026062021600
      5:    4.248709546183499
      6:    2.912002660217619
      7:    4.480471007875854
      8:    4.458347174596136
      9:    4.457239493300452
     10:    4.456283342267398
     11:    4.483940536824629
     12:    0.999259737896635
     13:    0.992809587981573
     14:    0.993443624909825
     15:    3.419492008318253
     16:    0.989561206481523
     17:    0.990654161957806
     18:    0.986589528022653
     19:    0.990659921440191
     20:    0.990253787091860
     21:    0.982632962974508
     22:    0.966070471388100
     23:    0.990837807611747
     24:    0.964622919920388


    Psi4 stopped on: Saturday, 18 November 2023 08:31AM
    Psi4 wall time for execution: 0:00:21.04

*** Psi4 exiting successfully. Buy a developer a beer!
