
    -----------------------------------------------------------------------
          Psi4: An Open-Source Ab Initio Electronic Structure Package
                               Psi4 1.5 release

                         Git: Rev {HEAD} e9f4d6d 


    D. G. A. Smith, L. A. Burns, A. C. Simmonett, R. M. Parrish,
    M. C. Schieber, R. Galvelis, P. Kraus, H. Kruse, R. Di Remigio,
    A. Alenaizan, A. M. James, S. Lehtola, J. P. Misiewicz, M. Scheurer,
    R. A. Shaw, J. B. Schriber, Y. Xie, Z. L. Glick, D. A. Sirianni,
    J. S. O'Brien, J. M. Waldrop, A. Kumar, E. G. Hohenstein,
    B. P. Pritchard, B. R. Brooks, H. F. Schaefer III, A. Yu. Sokolov,
    K. Patkowski, A. E. DePrince III, U. Bozkaya, R. A. King,
    F. A. Evangelista, J. M. Turney, T. D. Crawford, C. D. Sherrill,
    J. Chem. Phys. 152(18) 184108 (2020). https://doi.org/10.1063/5.0006002

                            Additional Code Authors
    E. T. Seidl, C. L. Janssen, E. F. Valeev, M. L. Leininger,
    J. F. Gonthier, R. M. Richard, H. R. McAlexander, M. Saitow, X. Wang,
    P. Verma, M. H. Lechner, and A. Jiang

             Previous Authors, Complete List of Code Contributors,
                       and Citations for Specific Modules
    https://github.com/psi4/psi4/blob/master/codemeta.json
    https://github.com/psi4/psi4/graphs/contributors
    http://psicode.org/psi4manual/master/introduction.html#citing-psifour

    -----------------------------------------------------------------------


    Psi4 started on: Thursday, 09 June 2022 05:47AM

    Process ID: 1291164
    Host:       node74.bme.utexas.edu
    PSIDATADIR: /home/bdw2292/miniconda3/envs/newamoebamdpoltype/share/psi4
    Memory:     500.0 MiB
    Threads:    1
    
  ==> Input File <==

--------------------------------------------------------------------------
molecule { 
0 1
 C    1.710195    0.081961    0.038343
 N    0.696453    0.709041    0.815304
 C   -0.621465    0.624902    0.565854
 C   -1.235776   -0.581602    0.869064
 H    0.858092    0.804453    1.836474
 C   -1.321038    1.735617   -0.157777
 C   -2.018550   -1.497727    0.082076
 N   -1.849706   -2.281040    2.195206
 C   -1.134273   -1.106326    2.228322
 C   -2.371786   -2.514430    0.915112
 C   -2.531257    2.239683    0.384197
 C   -0.783497    2.361806   -1.314203
 C   -3.205830    3.299860   -0.235192
 C   -1.462944    3.422031   -1.930168
 C   -2.679044    3.895174   -1.398489
 C    2.911493   -0.312747    0.678861
 C    1.474881   -0.341282   -1.295495
 C    3.896482   -1.012165   -0.033459
 C    2.470329   -1.033885   -2.000349
 C    3.707479   -1.369036   -1.393384
 H   -1.953243   -2.866229    3.011394
 O   -0.525191   -0.622241    3.209858
 H   -2.940627    1.791062    1.291863
 H    0.166086    2.026927   -1.729371
 H   -4.143322    3.665561    0.187270
 H   -1.044361    3.884323   -2.826037
 H   -3.206519    4.720239   -1.880862
 H    3.054645   -0.061832    1.732735
 H    0.511642   -0.137583   -1.763764
 H    4.818983   -1.285098    0.484016
 H    2.270485   -1.325536   -3.033874
 N    4.710831   -2.068178   -2.118061
 H   -2.283967   -1.402128   -0.960411
 H   -2.959692   -3.400798    0.721314
 H    5.630358   -1.816940   -1.746273
 H    4.748040   -1.697337   -3.071221
}
set optking { 
  frozen_dihedral = ("
    1 2 3 4
    16 1 2 3
    2 3 6 11
    18 20 32 35
  ")
}
set {
  geom_maxiter 400
  g_convergence GAU_LOOSE
  dynamic_level 1
}
memory 8.166666666666666GB
set_num_threads(2)
psi4_io.set_default_path("/scratch/bdw2292/Psi4-1_7_Index_0_GrowFragment_0-farH_in17")
for _ in range(1):
  try:
    set opt_coordinates both
    optimize('wb97x-d/6-311G')
    break
  except OptimizationConvergenceError:
    break
  else:
    try:
      set opt_coordinates cartesian
      optimize('wb97x-d/6-311G')
      break
    except OptimizationConvergenceError:
      pass
clean()
--------------------------------------------------------------------------

  Memory set to   7.606 GiB by Python driver.
  Threads set to 2 by Python driver.

Scratch directory: /scratch/bdw2292/Psi4-1_7_Index_0_GrowFragment_0-farH_in17/

Scratch directory: /scratch/bdw2292/Psi4-1_7_Index_0_GrowFragment_0-farH_in17/
gradient() will perform analytic gradient computation.

*** tstart() called on node74.bme.utexas.edu
*** at Thu Jun  9 05:47:23 2022

   => Loading Basis Set <=

    Name: 6-311G
    Role: ORBITAL
    Keyword: BASIS
    atoms 1, 3-4, 6-7, 9-20   entry C          line    92 file /home/bdw2292/miniconda3/envs/newamoebamdpoltype/share/psi4/basis/6-311g.gbs 
    atoms 2, 8, 32            entry N          line   109 file /home/bdw2292/miniconda3/envs/newamoebamdpoltype/share/psi4/basis/6-311g.gbs 
    atoms 5, 21, 23-31, 33-36 entry H          line    21 file /home/bdw2292/miniconda3/envs/newamoebamdpoltype/share/psi4/basis/6-311g.gbs 
    atoms 22                  entry O          line   126 file /home/bdw2292/miniconda3/envs/newamoebamdpoltype/share/psi4/basis/6-311g.gbs 

   => WB97X-D: Empirical Dispersion <=

    Chai and Head-Gordon Dispersion Correction
    Chai, J.-D.; Head-Gordon, M. (2010), J. Chem. Phys., 132: 6615-6620

        s6 =       1.000000


         ---------------------------------------------------------
                                   SCF
               by Justin Turney, Rob Parrish, Andy Simmonett
                          and Daniel G. A. Smith
                              RKS Reference
                        2 Threads,   7788 MiB Core
         ---------------------------------------------------------

  ==> Geometry <==

    Molecular point group: c1
    Full point group: C1

    Geometry (in Angstrom), charge = 0, multiplicity = 1:

       Center              X                  Y                   Z               Mass       
    ------------   -----------------  -----------------  -----------------  -----------------
         C            1.686250173362    -0.050462562348     0.009219225247    12.000000000000
         N            0.672508173362     0.576617437652     0.786180225247    14.003074004430
         C           -0.645409826638     0.492478437652     0.536730225247    12.000000000000
         C           -1.259720826638    -0.714025562348     0.839940225247    12.000000000000
         H            0.834147173362     0.672029437652     1.807350225247     1.007825032230
         C           -1.344982826638     1.603193437652    -0.186900774753    12.000000000000
         C           -2.042494826638    -1.630150562348     0.052952225247    12.000000000000
         N           -1.873650826638    -2.413463562348     2.166082225247    14.003074004430
         C           -1.158217826638    -1.238749562348     2.199198225247    12.000000000000
         C           -2.395730826638    -2.646853562348     0.885988225247    12.000000000000
         C           -2.555201826638     2.107259437652     0.355073225247    12.000000000000
         C           -0.807441826638     2.229382437652    -1.343326774753    12.000000000000
         C           -3.229774826638     3.167436437652    -0.264315774753    12.000000000000
         C           -1.486888826638     3.289607437652    -1.959291774753    12.000000000000
         C           -2.702988826638     3.762750437652    -1.427612774753    12.000000000000
         C            2.887548173362    -0.445170562348     0.649737225247    12.000000000000
         C            1.450936173362    -0.473705562348    -1.324618774753    12.000000000000
         C            3.872537173362    -1.144588562348    -0.062582774753    12.000000000000
         C            2.446384173362    -1.166308562348    -2.029472774753    12.000000000000
         C            3.683534173362    -1.501459562348    -1.422507774753    12.000000000000
         H           -1.977187826638    -2.998652562348     2.982270225247     1.007825032230
         O           -0.549135826638    -0.754664562348     3.180734225247    15.994914619570
         H           -2.964571826638     1.658638437652     1.262739225247     1.007825032230
         H            0.142141173362     1.894503437652    -1.758494774753     1.007825032230
         H           -4.167266826638     3.533137437652     0.158146225247     1.007825032230
         H           -1.068305826638     3.751899437652    -2.855160774753     1.007825032230
         H           -3.230463826638     4.587815437652    -1.909985774753     1.007825032230
         H            3.030700173362    -0.194255562348     1.703611225247     1.007825032230
         H            0.487697173362    -0.270006562348    -1.792887774753     1.007825032230
         H            4.795038173362    -1.417521562348     0.454892225247     1.007825032230
         H            2.246540173362    -1.457959562348    -3.062997774753     1.007825032230
         N            4.686886173362    -2.200601562348    -2.147184774753    14.003074004430
         H           -2.307911826638    -1.534551562348    -0.989534774753     1.007825032230
         H           -2.983636826638    -3.533221562348     0.692190225247     1.007825032230
         H            5.606413173362    -1.949363562348    -1.775396774753     1.007825032230
         H            4.724095173362    -1.829760562348    -3.100344774753     1.007825032230

  Running in c1 symmetry.

  Rotational constants: A =      0.01313  B =      0.00757  C =      0.00562 [cm^-1]
  Rotational constants: A =    393.72168  B =    226.94557  C =    168.34367 [MHz]
  Nuclear repulsion = 1536.863504002409627

  Charge       = 0
  Multiplicity = 1
  Electrons    = 146
  Nalpha       = 73
  Nbeta        = 73

  ==> Algorithm <==

  SCF Algorithm Type is DF.
  DIIS enabled.
  MOM disabled.
  Fractional occupation disabled.
  Guess Type is SAD.
  Energy threshold   = 1.00e-08
  Density threshold  = 1.00e-08
  Integral threshold = 1.00e-12

  ==> Primary Basis <==

  Basis Set: 6-311G
    Blend: 6-311G
    Number of shells: 192
    Number of basis functions: 318
    Number of Cartesian functions: 318
    Spherical Harmonics?: true
    Max angular momentum: 1

  ==> DFT Potential <==

   => LibXC <=

    Version 5.1.5
    S. Lehtola, C. Steigemann, M. J. Oliveira, and M. A. Marques, SoftwareX 7, 1 (2018) (10.1016/j.softx.2017.11.002)

   => Composite Functional: WB97X-D <= 

    wB97X-D Hyb-GGA Exchange-Correlation Functional

    J.-D. Chai and M. Head-Gordon, Phys. Chem. Chem. Phys. 10, 6615 (2008) (10.1039/B810189B)

    Deriv               =              1
    GGA                 =           TRUE
    Meta                =          FALSE

    Exchange Hybrid     =           TRUE
    MP2 Hybrid          =          FALSE

   => Exchange-Correlation Functionals <=

    1.0000   wB97X-D range-separated functional

   => Exact (HF) Exchange <=

    0.7780            HF,LR [omega = 0.2000]
    0.2220               HF 

   => LibXC Density Thresholds  <==

    XC_HYB_GGA_XC_WB97X_D:  1.00E-14 

   => Molecular Quadrature <=

    Radial Scheme          =       TREUTLER
    Pruning Scheme         =           NONE
    Nuclear Scheme         =       TREUTLER

    BS radius alpha        =              1
    Pruning alpha          =              1
    Radial Points          =             75
    Spherical Points       =            302
    Total Points           =         741531
    Total Blocks           =           5243
    Max Points             =            256
    Max Functions          =            223
    Weights Tolerance      =       1.00E-15

   => Loading Basis Set <=

    Name: (6-311G AUX)
    Role: JKFIT
    Keyword: DF_BASIS_SCF
    atoms 1, 3-4, 6-7, 9-20   entry C          line   125 file /home/bdw2292/miniconda3/envs/newamoebamdpoltype/share/psi4/basis/cc-pvtz-jkfit.gbs 
    atoms 2, 8, 32            entry N          line   177 file /home/bdw2292/miniconda3/envs/newamoebamdpoltype/share/psi4/basis/cc-pvtz-jkfit.gbs 
    atoms 5, 21, 23-31, 33-36 entry H          line    51 file /home/bdw2292/miniconda3/envs/newamoebamdpoltype/share/psi4/basis/cc-pvtz-jkfit.gbs 
    atoms 22                  entry O          line   229 file /home/bdw2292/miniconda3/envs/newamoebamdpoltype/share/psi4/basis/cc-pvtz-jkfit.gbs 

  ==> Integral Setup <==

  DFHelper Memory: AOs need 3.566 GiB; user supplied 3.566 GiB. Using in-core AOs.

  ==> MemDFJK: Density-Fitted J/K Matrices <==

    J tasked:                   Yes
    K tasked:                   Yes
    wK tasked:                  Yes
    Omega:                2.000E-01
    OpenMP threads:               2
    Memory [MiB]:              3652
    Algorithm:                 Core
    Schwarz Cutoff:           1E-12
    Mask sparsity (%):      26.3380
    Fitting Condition:        1E-10

   => Auxiliary Basis Set <=

  Basis Set: (6-311G AUX)
    Blend: CC-PVTZ-JKFIT
    Number of shells: 675
    Number of basis functions: 2109
    Number of Cartesian functions: 2541
    Spherical Harmonics?: true
    Max angular momentum: 4

  Cached 50.0% of DFT collocation blocks in 1.578 [GiB].

  Minimum eigenvalue in the overlap matrix is 2.5738507710E-04.
  Reciprocal condition number of the overlap matrix is 3.9237875786E-05.
    Using symmetric orthogonalization.

  ==> Pre-Iterations <==

  SCF Guess: Superposition of Atomic Densities via on-the-fly atomic UHF (no occupation information).

   -------------------------
    Irrep   Nso     Nmo    
   -------------------------
     A        318     318 
   -------------------------
    Total     318     318
   -------------------------

  ==> Iterations <==

                           Total Energy        Delta E     RMS |[F,P]|

   @DF-RKS iter SAD:  -895.24766253707571   -8.95248e+02   0.00000e+00 
   @DF-RKS iter   1:  -895.24586503378475    1.79750e-03   3.66067e-03 DIIS
   @DF-RKS iter   2:  -895.47246094700040   -2.26596e-01   3.24288e-03 DIIS
   @DF-RKS iter   3:  -895.86378342004321   -3.91322e-01   8.80044e-04 DIIS
   @DF-RKS iter   4:  -895.89357833726956   -2.97949e-02   2.04068e-04 DIIS
   @DF-RKS iter   5:  -895.89525896598036   -1.68063e-03   7.04223e-05 DIIS
   @DF-RKS iter   6:  -895.89551455942967   -2.55593e-04   1.39623e-05 DIIS
   @DF-RKS iter   7:  -895.89553973266140   -2.51732e-05   6.46493e-06 DIIS
   @DF-RKS iter   8:  -895.89554658344514   -6.85078e-06   2.81177e-06 DIIS
   @DF-RKS iter   9:  -895.89554896161462   -2.37817e-06   1.31873e-06 DIIS
   @DF-RKS iter  10:  -895.89554923383423   -2.72220e-07   4.82591e-07 DIIS
   @DF-RKS iter  11:  -895.89554927563745   -4.18032e-08   3.01877e-07 DIIS
   @DF-RKS iter  12:  -895.89554928928817   -1.36507e-08   1.08703e-07 DIIS
   @DF-RKS iter  13:  -895.89554929297628   -3.68811e-09   5.29079e-08 DIIS
   @DF-RKS iter  14:  -895.89554929354847   -5.72186e-10   2.63708e-08 DIIS
   @DF-RKS iter  15:  -895.89554929377414   -2.25668e-10   1.03492e-08 DIIS
   @DF-RKS iter  16:  -895.89554929381586   -4.17231e-11   6.61083e-09 DIIS
  Energy and wave function converged.


  ==> Post-Iterations <==

   Electrons on quadrature grid:
      Ntotal   =  145.9998297896 ; deviation = -1.702e-04 

    Orbital Energies [Eh]
    ---------------------

    Doubly Occupied:                                                      

       1A    -19.215961     2A    -14.477834     3A    -14.437794  
       4A    -14.434323     5A    -10.397025     6A    -10.359323  
       7A    -10.339987     8A    -10.336528     9A    -10.328162  
      10A    -10.317836    11A    -10.308720    12A    -10.308007  
      13A    -10.307365    14A    -10.305402    15A    -10.305063  
      16A    -10.304441    17A    -10.293449    18A    -10.291156  
      19A    -10.290699    20A    -10.290339    21A    -10.290104  
      22A     -1.148727    23A     -1.070830    24A     -1.062966  
      25A     -1.023215    26A     -0.970886    27A     -0.940549  
      28A     -0.907382    29A     -0.872689    30A     -0.859463  
      31A     -0.847072    32A     -0.838066    33A     -0.815842  
      34A     -0.766689    35A     -0.720530    36A     -0.712191  
      37A     -0.706795    38A     -0.701021    39A     -0.690602  
      40A     -0.652655    41A     -0.629603    42A     -0.619359  
      43A     -0.611529    44A     -0.591187    45A     -0.586952  
      46A     -0.569000    47A     -0.558766    48A     -0.547826  
      49A     -0.539571    50A     -0.529359    51A     -0.525548  
      52A     -0.521970    53A     -0.519491    54A     -0.513824  
      55A     -0.508775    56A     -0.499434    57A     -0.493334  
      58A     -0.476662    59A     -0.467905    60A     -0.464760  
      61A     -0.450815    62A     -0.436428    63A     -0.425287  
      64A     -0.415803    65A     -0.411181    66A     -0.365218  
      67A     -0.345014    68A     -0.340659    69A     -0.337146  
      70A     -0.335244    71A     -0.327222    72A     -0.266947  
      73A     -0.250784  

    Virtual:                                                              

      74A     -0.039528    75A      0.052690    76A      0.060765  
      77A      0.062303    78A      0.086963    79A      0.114587  
      80A      0.122102    81A      0.123313    82A      0.128799  
      83A      0.141415    84A      0.146003    85A      0.155990  
      86A      0.160458    87A      0.162624    88A      0.172311  
      89A      0.174458    90A      0.177367    91A      0.198048  
      92A      0.203562    93A      0.214741    94A      0.217673  
      95A      0.224909    96A      0.232219    97A      0.251479  
      98A      0.276675    99A      0.289197   100A      0.302298  
     101A      0.305040   102A      0.310598   103A      0.333998  
     104A      0.336518   105A      0.343904   106A      0.350907  
     107A      0.353108   108A      0.357306   109A      0.374443  
     110A      0.375537   111A      0.384665   112A      0.398737  
     113A      0.400432   114A      0.414902   115A      0.421749  
     116A      0.429647   117A      0.440320   118A      0.444805  
     119A      0.459120   120A      0.462465   121A      0.468661  
     122A      0.472131   123A      0.478582   124A      0.479592  
     125A      0.485537   126A      0.489071   127A      0.494162  
     128A      0.495650   129A      0.504383   130A      0.506733  
     131A      0.511353   132A      0.518252   133A      0.520288  
     134A      0.527654   135A      0.530985   136A      0.536038  
     137A      0.542466   138A      0.552373   139A      0.556923  
     140A      0.563762   141A      0.565472   142A      0.576121  
     143A      0.583297   144A      0.594121   145A      0.601049  
     146A      0.609833   147A      0.616419   148A      0.620830  
     149A      0.626977   150A      0.637720   151A      0.646168  
     152A      0.647345   153A      0.657474   154A      0.668251  
     155A      0.677215   156A      0.682309   157A      0.690260  
     158A      0.698501   159A      0.706546   160A      0.711943  
     161A      0.714766   162A      0.718083   163A      0.722151  
     164A      0.725009   165A      0.728447   166A      0.741376  
     167A      0.743949   168A      0.747471   169A      0.754032  
     170A      0.757531   171A      0.766161   172A      0.773168  
     173A      0.777577   174A      0.786719   175A      0.798471  
     176A      0.812864   177A      0.820044   178A      0.841886  
     179A      0.847031   180A      0.850161   181A      0.855060  
     182A      0.863082   183A      0.872310   184A      0.882417  
     185A      0.892772   186A      0.900427   187A      0.906056  
     188A      0.913681   189A      0.930665   190A      0.937241  
     191A      0.947072   192A      0.955654   193A      0.967408  
     194A      0.978209   195A      0.982452   196A      0.990507  
     197A      1.000675   198A      1.028816   199A      1.033864  
     200A      1.043901   201A      1.063310   202A      1.070030  
     203A      1.088033   204A      1.109875   205A      1.121489  
     206A      1.126584   207A      1.145429   208A      1.158716  
     209A      1.179910   210A      1.193436   211A      1.218454  
     212A      1.275459   213A      1.333666   214A      1.353566  
     215A      1.367755   216A      1.428340   217A      1.496604  
     218A      1.621058   219A      1.832364   220A      2.288564  
     221A      2.297504   222A      2.313120   223A      2.342383  
     224A      2.357015   225A      2.365226   226A      2.370920  
     227A      2.380561   228A      2.394791   229A      2.412619  
     230A      2.447352   231A      2.463343   232A      2.476745  
     233A      2.554033   234A      2.612876   235A      2.621760  
     236A      2.626137   237A      2.645422   238A      2.661461  
     239A      2.663206   240A      2.686982   241A      2.688861  
     242A      2.711413   243A      2.756265   244A      2.770546  
     245A      2.779306   246A      2.798067   247A      2.801742  
     248A      2.817616   249A      2.824093   250A      2.831836  
     251A      2.847104   252A      2.853860   253A      2.876121  
     254A      2.891678   255A      2.916209   256A      2.930043  
     257A      2.951091   258A      2.957030   259A      2.984694  
     260A      3.009699   261A      3.023313   262A      3.041148  
     263A      3.083797   264A      3.102120   265A      3.135723  
     266A      3.154770   267A      3.172536   268A      3.192436  
     269A      3.208739   270A      3.215903   271A      3.230693  
     272A      3.252861   273A      3.268366   274A      3.279472  
     275A      3.298639   276A      3.314716   277A      3.323871  
     278A      3.336667   279A      3.343696   280A      3.357361  
     281A      3.372606   282A      3.387749   283A      3.436453  
     284A      3.512042   285A      3.540319   286A      3.812241  
     287A      3.868444   288A      3.987657   289A      4.062562  
     290A      4.074560   291A      4.117412   292A      4.215805  
     293A      4.248860   294A      4.291087   295A      4.991148  
     296A      5.098711   297A      5.106258   298A     23.236174  
     299A     23.251712   300A     23.347903   301A     23.466304  
     302A     23.478139   303A     23.486071   304A     23.503352  
     305A     23.519658   306A     23.608945   307A     23.709034  
     308A     23.717093   309A     23.745662   310A     23.762843  
     311A     23.805340   312A     23.867519   313A     23.981552  
     314A     23.983031   315A     35.513514   316A     35.554107  
     317A     35.634653   318A     50.073477  

    Final Occupation by Irrep:
              A 
    DOCC [    73 ]

  @DF-RKS Final Energy:  -895.89554929381586

   => Energetics <=

    Nuclear Repulsion Energy =           1536.8635040024096270
    One-Electron Energy =               -4266.5056014944884737
    Two-Electron Energy =                1921.3938751217929166
    DFT Exchange-Correlation Energy =     -87.6215128692107328
    Empirical Dispersion Energy =          -0.0258140543192474
    VV10 Nonlocal Energy =                  0.0000000000000000
    Total Energy =                       -895.8955492938158613

Computation Completed


Properties will be evaluated at   0.000000,   0.000000,   0.000000 [a0]

Properties computed using the SCF density matrix

  Nuclear Dipole Moment: [e a0]
     X:     2.9566      Y:     0.8638      Z:    -7.6589

  Electronic Dipole Moment: [e a0]
     X:    -3.5128      Y:    -0.8171      Z:     6.6227

  Dipole Moment: [e a0]
     X:    -0.5562      Y:     0.0466      Z:    -1.0363     Total:     1.1770

  Dipole Moment: [D]
     X:    -1.4136      Y:     0.1185      Z:    -2.6339     Total:     2.9916


*** tstop() called on node74.bme.utexas.edu at Thu Jun  9 05:50:09 2022
Module time:
	user time   =     319.55 seconds =       5.33 minutes
	system time =       7.91 seconds =       0.13 minutes
	total time  =        166 seconds =       2.77 minutes
Total time:
	user time   =     319.55 seconds =       5.33 minutes
	system time =       7.91 seconds =       0.13 minutes
	total time  =        166 seconds =       2.77 minutes

*** tstart() called on node74.bme.utexas.edu
*** at Thu Jun  9 05:50:09 2022


         ------------------------------------------------------------
                                   SCF GRAD                          
                          Rob Parrish, Justin Turney,                
                       Andy Simmonett, and Alex Sokolov              
         ------------------------------------------------------------

  ==> Geometry <==

    Molecular point group: c1
    Full point group: C1

    Geometry (in Angstrom), charge = 0, multiplicity = 1:

       Center              X                  Y                   Z               Mass       
    ------------   -----------------  -----------------  -----------------  -----------------
         C            1.686250173362    -0.050462562348     0.009219225247    12.000000000000
         N            0.672508173362     0.576617437652     0.786180225247    14.003074004430
         C           -0.645409826638     0.492478437652     0.536730225247    12.000000000000
         C           -1.259720826638    -0.714025562348     0.839940225247    12.000000000000
         H            0.834147173362     0.672029437652     1.807350225247     1.007825032230
         C           -1.344982826638     1.603193437652    -0.186900774753    12.000000000000
         C           -2.042494826638    -1.630150562348     0.052952225247    12.000000000000
         N           -1.873650826638    -2.413463562348     2.166082225247    14.003074004430
         C           -1.158217826638    -1.238749562348     2.199198225247    12.000000000000
         C           -2.395730826638    -2.646853562348     0.885988225247    12.000000000000
         C           -2.555201826638     2.107259437652     0.355073225247    12.000000000000
         C           -0.807441826638     2.229382437652    -1.343326774753    12.000000000000
         C           -3.229774826638     3.167436437652    -0.264315774753    12.000000000000
         C           -1.486888826638     3.289607437652    -1.959291774753    12.000000000000
         C           -2.702988826638     3.762750437652    -1.427612774753    12.000000000000
         C            2.887548173362    -0.445170562348     0.649737225247    12.000000000000
         C            1.450936173362    -0.473705562348    -1.324618774753    12.000000000000
         C            3.872537173362    -1.144588562348    -0.062582774753    12.000000000000
         C            2.446384173362    -1.166308562348    -2.029472774753    12.000000000000
         C            3.683534173362    -1.501459562348    -1.422507774753    12.000000000000
         H           -1.977187826638    -2.998652562348     2.982270225247     1.007825032230
         O           -0.549135826638    -0.754664562348     3.180734225247    15.994914619570
         H           -2.964571826638     1.658638437652     1.262739225247     1.007825032230
         H            0.142141173362     1.894503437652    -1.758494774753     1.007825032230
         H           -4.167266826638     3.533137437652     0.158146225247     1.007825032230
         H           -1.068305826638     3.751899437652    -2.855160774753     1.007825032230
         H           -3.230463826638     4.587815437652    -1.909985774753     1.007825032230
         H            3.030700173362    -0.194255562348     1.703611225247     1.007825032230
         H            0.487697173362    -0.270006562348    -1.792887774753     1.007825032230
         H            4.795038173362    -1.417521562348     0.454892225247     1.007825032230
         H            2.246540173362    -1.457959562348    -3.062997774753     1.007825032230
         N            4.686886173362    -2.200601562348    -2.147184774753    14.003074004430
         H           -2.307911826638    -1.534551562348    -0.989534774753     1.007825032230
         H           -2.983636826638    -3.533221562348     0.692190225247     1.007825032230
         H            5.606413173362    -1.949363562348    -1.775396774753     1.007825032230
         H            4.724095173362    -1.829760562348    -3.100344774753     1.007825032230

  Nuclear repulsion = 1536.863504002409627

  ==> Basis Set <==

  Basis Set: 6-311G
    Blend: 6-311G
    Number of shells: 192
    Number of basis functions: 318
    Number of Cartesian functions: 318
    Spherical Harmonics?: true
    Max angular momentum: 1

  ==> DFJKGrad: Density-Fitted SCF Gradients <==

    Gradient:                    1
    J tasked:                  Yes
    K tasked:                  Yes
    wK tasked:                 Yes
    Omega:               2.000E-01
    OpenMP threads:              2
    Integrals threads:           2
    Memory [MiB]:             5841
    Schwarz Cutoff:          1E-12
    Fitting Condition:       1E-10

   => Auxiliary Basis Set <=

  Basis Set: (6-311G AUX)
    Blend: CC-PVTZ-JKFIT
    Number of shells: 675
    Number of basis functions: 2109
    Number of Cartesian functions: 2541
    Spherical Harmonics?: true
    Max angular momentum: 4

  ==> DFT Potential <==

   => LibXC <=

    Version 5.1.5
    S. Lehtola, C. Steigemann, M. J. Oliveira, and M. A. Marques, SoftwareX 7, 1 (2018) (10.1016/j.softx.2017.11.002)

   => Composite Functional: WB97X-D <= 

    wB97X-D Hyb-GGA Exchange-Correlation Functional

    J.-D. Chai and M. Head-Gordon, Phys. Chem. Chem. Phys. 10, 6615 (2008) (10.1039/B810189B)

    Deriv               =              1
    GGA                 =           TRUE
    Meta                =          FALSE

    Exchange Hybrid     =           TRUE
    MP2 Hybrid          =          FALSE

   => Exchange-Correlation Functionals <=

    1.0000   wB97X-D range-separated functional

   => Exact (HF) Exchange <=

    0.7780            HF,LR [omega = 0.2000]
    0.2220               HF 

   => LibXC Density Thresholds  <==

    XC_HYB_GGA_XC_WB97X_D:  1.00E-14 

   => Molecular Quadrature <=

    Radial Scheme          =       TREUTLER
    Pruning Scheme         =           NONE
    Nuclear Scheme         =       TREUTLER

    BS radius alpha        =              1
    Pruning alpha          =              1
    Radial Points          =             75
    Spherical Points       =            302
    Total Points           =         741531
    Total Blocks           =           5243
    Max Points             =            256
    Max Functions          =            223
    Weights Tolerance      =       1.00E-15


  -Total Gradient:
     Atom            X                  Y                   Z
    ------   -----------------  -----------------  -----------------
       1        0.009160402669     0.023199488013    -0.009109808258
       2       -0.069886162503    -0.027628610321    -0.050242993279
       3        0.066064210298     0.013590905122     0.051825734444
       4        0.000338100244    -0.023427617013     0.010668183322
       5       -0.010687588960    -0.001014557172     0.020799907793
       6       -0.000890515464     0.000471319856     0.003629122967
       7        0.026916511656    -0.004239864537    -0.008444735967
       8        0.010237430535     0.007430516237    -0.013874356590
       9       -0.030722740744     0.014860958564     0.000551949696
      10        0.001350380557     0.002210999708     0.002425984890
      11       -0.000360861103     0.005591927857     0.007034334491
      12        0.003814565138    -0.003292901388    -0.005885874521
      13       -0.003602272875    -0.002696599765     0.005296727963
      14        0.003098019694     0.001156213156    -0.003916987743
      15       -0.002756864788     0.006856527937    -0.004903913477
      16        0.002263654114    -0.003365726716     0.012194040585
      17       -0.008197298769    -0.004427375279    -0.010092436336
      18        0.005649549200    -0.002311396809     0.004142738678
      19       -0.004840093947     0.000689611589    -0.006590669186
      20        0.019280851344    -0.009171108383    -0.012459877746
      21        0.000359332657    -0.002246592050     0.007243979737
      22        0.006932928506     0.002151841000    -0.001358428208
      23       -0.003607081419    -0.001831899595     0.005945590424
      24        0.004766111443    -0.001318839546    -0.003650909602
      25       -0.006078933989     0.001861215870     0.002209412979
      26        0.002566773428     0.002944221799    -0.005572735209
      27       -0.003477217317     0.005289157987    -0.003084814433
      28       -0.000544007989     0.002290359609     0.007160119501
      29       -0.006364998338     0.001724389084    -0.001316588180
      30        0.004627460167    -0.000304826944     0.004366068905
      31       -0.002680725441    -0.000236892386    -0.005960553728
      32       -0.015868996840    -0.029667211625     0.008572537868
      33       -0.002160909071    -0.000967582007    -0.003655088219
      34       -0.005592212200    -0.001356233327     0.000847358001
      35        0.003730941551     0.013312074975    -0.004902201787
      36        0.006675805739     0.013606261951     0.000539260910


*** tstop() called on node74.bme.utexas.edu at Thu Jun  9 05:51:16 2022
Module time:
	user time   =     127.72 seconds =       2.13 minutes
	system time =       1.84 seconds =       0.03 minutes
	total time  =         67 seconds =       1.12 minutes
Total time:
	user time   =     447.27 seconds =       7.45 minutes
	system time =       9.75 seconds =       0.16 minutes
	total time  =        233 seconds =       3.88 minutes

			-----------------------------------------
			 OPTKING 2.0: for geometry optimizations 
			  - R.A. King,  Bethel University        
			-----------------------------------------
	At level 1: Red. Int., RFO, no backsteps, dynamic trust

	Internal coordinates to be generated automatically.
	Detected frag 1 with atoms:  1 2 3 4 5 6 7 8 9 10 11 12 13 14 15 16 17 18 19 20
	 21 22 23 24 25 26 27 28 29 30 31 32 33 34 35 36
	---Fragment 1 Bond Connectivity---
	 1 : 2 16 17
	 2 : 1 3 5
	 3 : 2 4 6
	 4 : 3 7 9
	 5 : 2
	 6 : 3 11 12
	 7 : 4 10 33
	 8 : 9 10 21
	 9 : 4 8 22
	 10 : 7 8 34
	 11 : 6 13 23
	 12 : 6 14 24
	 13 : 11 15 25
	 14 : 12 15 26
	 15 : 13 14 27
	 16 : 1 18 28
	 17 : 1 19 29
	 18 : 16 20 30
	 19 : 17 20 31
	 20 : 18 19 32
	 21 : 8
	 22 : 9
	 23 : 11
	 24 : 12
	 25 : 13
	 26 : 14
	 27 : 15
	 28 : 16
	 29 : 17
	 30 : 18
	 31 : 19
	 32 : 20 35 36
	 33 : 7
	 34 : 10
	 35 : 32
	 36 : 32

	Assuming in current code that numbering for constraints corresponds to unified fragment.
	Frozen dihedral atom list: 
	     1     2     3     4
	    16     1     2     3
	     2     3     6    11
	    18    20    32    35
	---Fragment 1 Geometry and Gradient---
	 C           3.1865510067       -0.0953604224        0.0174218108
	 N           1.2708562648        1.0896490363        1.4856653110
	 C          -1.2196478110        0.9306493699        1.0142731290
	 C          -2.3805273569       -1.3493127594        1.5872569875
	 H           1.5763097060        1.2699515854        3.4153969385
	 C          -2.5416491858        3.0295965233       -0.3531912769
	 C          -3.8597558350       -3.0805381061        0.1000652034
	 N          -3.5406869171       -4.5607851466        4.0933021709
	 C          -2.1887144860       -2.3408974109        4.1558823413
	 C          -4.5272751327       -5.0018283270        1.6742750961
	 C          -4.8286316476        3.9821432124        0.6709911502
	 C          -1.5258439146        4.2129222361       -2.5385197013
	 C          -6.1033898692        5.9855873870       -0.4994844249
	 C          -2.8098126613        6.2164571174       -3.7025248541
	 C          -5.1079086025        7.1105678056       -2.6977971575
	 C           5.4566752217       -0.8412504420        1.2278254092
	 C           2.7418719932       -0.8951737769       -2.5031667049
	 C           7.3180346683       -2.1629589092       -0.1182643045
	 C           4.6229960853       -2.2040037606       -3.8351477234
	 C           6.9608707614       -2.8373473613       -2.6881501056
	 H          -3.7363434909       -5.6666320882        5.6356739578
	 O          -1.0377163180       -1.4261093394        6.0107165636
	 H          -5.6022288316        3.1343723883        2.3862313036
	 H           0.2686078888        3.5800926409       -3.3230735173
	 H          -7.8749929941        6.6766621208        0.2988530535
	 H          -2.0188054306        7.0900623874       -5.3954719084
	 H          -6.1046918905        8.6697146913       -3.6093500178
	 H           5.7271932960       -0.3670898112        3.2193586400
	 H           0.9216140898       -0.5102384549       -3.3880668680
	 H           9.0613089088       -2.6787275298        0.8596217223
	 H           4.2453456575       -2.7551442748       -5.7882269172
	 N           8.8569312488       -4.1585342641       -4.0575911650
	 H          -4.3613212741       -2.8998821782       -1.8699497159
	 H          -5.6382564602       -6.6768210934        1.3080499524
	 H          10.5945854438       -3.6837632518       -3.3550136683
	 H           8.9272460683       -3.4577463380       -5.8588025188
	             0.0091604027        0.0231994880       -0.0091098083
	            -0.0698861625       -0.0276286103       -0.0502429933
	             0.0660642103        0.0135909051        0.0518257344
	             0.0003381002       -0.0234276170        0.0106681833
	            -0.0106875890       -0.0010145572        0.0207999078
	            -0.0008905155        0.0004713199        0.0036291230
	             0.0269165117       -0.0042398645       -0.0084447360
	             0.0102374305        0.0074305162       -0.0138743566
	            -0.0307227407        0.0148609586        0.0005519497
	             0.0013503806        0.0022109997        0.0024259849
	            -0.0003608611        0.0055919279        0.0070343345
	             0.0038145651       -0.0032929014       -0.0058858745
	            -0.0036022729       -0.0026965998        0.0052967280
	             0.0030980197        0.0011562132       -0.0039169877
	            -0.0027568648        0.0068565279       -0.0049039135
	             0.0022636541       -0.0033657267        0.0121940406
	            -0.0081972988       -0.0044273753       -0.0100924363
	             0.0056495492       -0.0023113968        0.0041427387
	            -0.0048400939        0.0006896116       -0.0065906692
	             0.0192808513       -0.0091711084       -0.0124598777
	             0.0003593327       -0.0022465921        0.0072439797
	             0.0069329285        0.0021518410       -0.0013584282
	            -0.0036070814       -0.0018318996        0.0059455904
	             0.0047661114       -0.0013188395       -0.0036509096
	            -0.0060789340        0.0018612159        0.0022094130
	             0.0025667734        0.0029442218       -0.0055727352
	            -0.0034772173        0.0052891580       -0.0030848144
	            -0.0005440080        0.0022903596        0.0071601195
	            -0.0063649983        0.0017243891       -0.0013165882
	             0.0046274602       -0.0003048269        0.0043660689
	            -0.0026807254       -0.0002368924       -0.0059605537
	            -0.0158689968       -0.0296672116        0.0085725379
	            -0.0021609091       -0.0009675820       -0.0036550882
	            -0.0055922122       -0.0013562333        0.0008473580
	             0.0037309416        0.0133120750       -0.0049022018
	             0.0066758057        0.0136062620        0.0005392609

	Previous optimization step data not found.  Starting new optimization.

	---Fragment 1 Intrafragment Coordinates---
	 - Coordinate -           - BOHR/RAD -       - ANG/DEG -
	 R(1,2)           =         2.688842	       1.422874
	 R(1,16)          =         2.678599	       1.417454
	 R(1,17)          =         2.681568	       1.419025
	 R(2,3)           =         2.539705	       1.343954
	 R(2,5)           =         1.962059	       1.038277
	 R(3,4)           =         2.621866	       1.387432
	 R(3,6)           =         2.832530	       1.498910
	 R(4,7)           =         2.719742	       1.439226
	 R(4,9)           =         2.760049	       1.460555
	 R(6,11)          =         2.680780	       1.418608
	 R(6,12)          =         2.684731	       1.420698
	 R(7,10)          =         2.571979	       1.361033
	 R(7,33)          =         2.040873	       1.079984
	 R(8,9)           =         2.599932	       1.375825
	 R(8,10)          =         2.649447	       1.402027
	 R(8,21)          =         1.907902	       1.009618
	 R(9,22)          =         2.366864	       1.252490
	 R(10,34)         =         2.043037	       1.081129
	 R(11,13)         =         2.647416	       1.400952
	 R(11,23)         =         2.063787	       1.092109
	 R(12,14)         =         2.649082	       1.401834
	 R(12,24)         =         2.058168	       1.089136
	 R(13,15)         =         2.662544	       1.408958
	 R(13,25)         =         2.062403	       1.091376
	 R(14,15)         =         2.662735	       1.409059
	 R(14,26)         =         2.062753	       1.091562
	 R(15,27)         =         2.062873	       1.091625
	 R(16,18)         =         2.650194	       1.402422
	 R(16,28)         =         2.064997	       1.092749
	 R(17,19)         =         2.650630	       1.402653
	 R(17,29)         =         2.060234	       1.090229
	 R(18,20)         =         2.680798	       1.418617
	 R(18,30)         =         2.064288	       1.092374
	 R(19,20)         =         2.679997	       1.418194
	 R(19,31)         =         2.064193	       1.092324
	 R(20,32)         =         2.686252	       1.421503
	 R(32,35)         =         1.933511	       1.023170
	 R(32,36)         =         1.934014	       1.023436
	 B(1,2,3)         =         2.176956	     124.730388
	 B(1,2,5)         =         2.056281	     117.816208
	 B(1,16,18)       =         2.099714	     120.304766
	 B(1,16,28)       =         2.074746	     118.874180
	 B(1,17,19)       =         2.096635	     120.128324
	 B(1,17,29)       =         2.088073	     119.637747
	 B(2,1,16)        =         2.071208	     118.671492
	 B(2,1,17)        =         2.125360	     121.774182
	 B(2,3,4)         =         2.035401	     116.619879
	 B(2,3,6)         =         2.095428	     120.059195
	 B(3,2,5)         =         1.918743	     109.935868
	 B(3,4,7)         =         2.311554	     132.442265
	 B(3,4,9)         =         2.077190	     119.014225
	 B(3,6,11)        =         2.068058	     118.491013
	 B(3,6,12)        =         2.144788	     122.887321
	 B(4,3,6)         =         2.145086	     122.904399
	 B(4,7,10)        =         1.856648	     106.378107
	 B(4,7,33)        =         2.220748	     127.239489
	 B(4,9,8)         =         1.821628	     104.371581
	 B(4,9,22)        =         2.244977	     128.627702
	 B(6,11,13)       =         2.106866	     120.714541
	 B(6,11,23)       =         2.084427	     119.428846
	 B(6,12,14)       =         2.103229	     120.506133
	 B(6,12,24)       =         2.099767	     120.307762
	 B(7,4,9)         =         1.894417	     108.542111
	 B(7,10,8)        =         1.915412	     109.745041
	 B(7,10,34)       =         2.270323	     130.079907
	 B(8,9,22)        =         2.216475	     126.994640
	 B(8,10,34)       =         2.097443	     120.174627
	 B(9,8,10)        =         1.936649	     110.961822
	 B(9,8,21)        =         2.127932	     121.921536
	 B(10,7,33)       =         2.205765	     126.381019
	 B(10,8,21)       =         2.218595	     127.116115
	 B(11,6,12)       =         2.068205	     118.499421
	 B(11,13,15)      =         2.099888	     120.314719
	 B(11,13,25)      =         2.089842	     119.739125
	 B(12,14,15)      =         2.101885	     120.429148
	 B(12,14,26)      =         2.088713	     119.674465
	 B(13,11,23)      =         2.091884	     119.856102
	 B(13,15,14)      =         2.085579	     119.494889
	 B(13,15,27)      =         2.098471	     120.233518
	 B(14,12,24)      =         2.080171	     119.185024
	 B(14,15,27)      =         2.099121	     120.270764
	 B(15,13,25)      =         2.093455	     119.946139
	 B(15,14,26)      =         2.092584	     119.896223
	 B(16,1,17)       =         2.074003	     118.831600
	 B(16,18,20)      =         2.116234	     121.251285
	 B(16,18,30)      =         2.068176	     118.497745
	 B(17,19,20)      =         2.118484	     121.380221
	 B(17,19,31)      =         2.068563	     118.519952
	 B(18,16,28)      =         2.108725	     120.821029
	 B(18,20,19)      =         2.056748	     117.842994
	 B(18,20,32)      =         2.115766	     121.224453
	 B(19,17,29)      =         2.098379	     120.228240
	 B(19,20,32)      =         2.110380	     120.915881
	 B(20,18,30)      =         2.098760	     120.250089
	 B(20,19,31)      =         2.096066	     120.095708
	 B(20,32,35)      =         1.905328	     109.167274
	 B(20,32,36)      =         1.898888	     108.798272
	 B(35,32,36)      =         1.789300	     102.519329
	*D(1,2,3,4)       =         1.289834	      73.902032
	 D(1,2,3,6)       =        -1.726221	     -98.905202
	 D(1,16,18,20)    =        -0.026155	      -1.498592
	 D(1,16,18,30)    =         3.121385	     178.842169
	 D(1,17,19,20)    =         0.039066	       2.238338
	 D(1,17,19,31)    =        -3.115405	    -178.499533
	 D(2,1,16,18)     =         3.067930	     175.779430
	 D(2,1,16,28)     =        -0.074665	      -4.277984
	 D(2,1,17,19)     =        -3.068803	    -175.829464
	 D(2,1,17,29)     =         0.057682	       3.304940
	 D(2,3,4,7)       =        -2.170432	    -124.356617
	 D(2,3,4,9)       =         0.979632	      56.128799
	*D(2,3,6,11)      =        -2.295872	    -131.543791
	 D(2,3,6,12)      =         0.774444	      44.372380
	*D(3,2,1,16)      =        -2.617209	    -149.955023
	 D(3,2,1,17)      =         0.352340	      20.187583
	 D(3,4,7,10)      =        -3.131928	    -179.446280
	 D(3,4,7,33)      =         0.002525	       0.144686
	 D(3,4,9,8)       =         3.129877	     179.328746
	 D(3,4,9,22)      =        -0.026677	      -1.528469
	 D(3,6,11,13)     =         3.113106	     178.367825
	 D(3,6,11,23)     =        -0.033032	      -1.892574
	 D(3,6,12,14)     =        -3.110245	    -178.203940
	 D(3,6,12,24)     =         0.024691	       1.414691
	 D(4,3,2,5)       =        -1.307324	     -74.904158
	 D(4,3,6,11)      =         0.979442	      56.117915
	 D(4,3,6,12)      =        -2.233427	    -127.965914
	 D(4,7,10,8)      =         0.002183	       0.125098
	 D(4,7,10,34)     =         3.139555	     179.883259
	 D(4,9,8,10)      =         0.006540	       0.374724
	 D(4,9,8,21)      =        -3.139353	    -179.871649
	 D(5,2,1,16)      =        -0.058590	      -3.356974
	 D(5,2,1,17)      =         2.910958	     166.785632
	 D(5,2,3,6)       =         1.959806	     112.288608
	 D(6,3,4,7)       =         0.841724	      48.227240
	 D(6,3,4,9)       =        -2.291396	    -131.287343
	 D(6,11,13,15)    =        -0.016379	      -0.938474
	 D(6,11,13,25)    =         3.126058	     179.109941
	 D(6,12,14,15)    =         0.017116	       0.980672
	 D(6,12,14,26)    =        -3.127052	    -179.166905
	 D(7,4,9,8)       =        -0.005121	      -0.293426
	 D(7,4,9,22)      =         3.121510	     178.849359
	 D(7,10,8,9)      =        -0.005761	      -0.330089
	 D(7,10,8,21)     =         3.140408	     179.932152
	 D(8,10,7,33)     =        -3.132350	    -179.470429
	 D(9,4,7,10)      =         0.001850	       0.105983
	 D(9,4,7,33)      =         3.136303	     179.696948
	 D(9,8,10,34)     =         3.139567	     179.883957
	 D(10,8,9,22)     =        -3.120419	    -178.786816
	 D(11,6,12,14)    =        -0.039935	      -2.288096
	 D(11,6,12,24)    =         3.095002	     177.330536
	 D(11,13,15,14)   =        -0.007315	      -0.419093
	 D(11,13,15,27)   =         3.140042	     179.911176
	 D(12,6,11,13)    =         0.039615	       2.269756
	 D(12,6,11,23)    =        -3.106523	    -177.990644
	 D(12,14,15,13)   =         0.006917	       0.396313
	 D(12,14,15,27)   =        -3.140442	    -179.934080
	 D(13,15,14,26)   =        -3.132094	    -179.455783
	 D(14,15,13,25)   =         3.133431	     179.532391
	 D(15,13,11,23)   =         3.129777	     179.323032
	 D(15,14,12,24)   =        -3.117895	    -178.642207
	 D(16,1,17,19)    =        -0.099521	      -5.702134
	 D(16,1,17,29)    =         3.026964	     173.432269
	 D(16,18,20,19)   =        -0.034974	      -2.003846
	 D(16,18,20,32)   =         3.132315	     179.468407
	 D(17,1,16,18)    =         0.093244	       5.342490
	 D(17,1,16,28)    =        -3.049351	    -174.714925
	 D(17,19,20,18)   =         0.028465	       1.630949
	 D(17,19,20,32)   =        -3.138740	    -179.836534
	 D(18,20,19,31)   =        -3.100049	    -177.619699
	*D(18,20,32,35)   =        -0.522305	     -29.925893
	 D(18,20,32,36)   =        -2.462165	    -141.071656
	 D(19,20,18,30)   =         3.100568	     177.649476
	 D(19,20,32,35)   =         2.645771	     151.591517
	 D(19,20,32,36)   =         0.705912	      40.445754
	 D(20,18,16,28)   =         3.116459	     178.559953
	 D(20,19,17,29)   =        -3.087329	    -176.890913
	 D(21,8,9,22)     =         0.016874	       0.966811
	 D(21,8,10,34)    =         0.002552	       0.146198
	 D(23,11,13,25)   =        -0.010970	      -0.628552
	 D(24,12,14,26)   =         0.021122	       1.210217
	 D(25,13,15,27)   =        -0.002397	      -0.137340
	 D(26,14,15,27)   =         0.003732	       0.213824
	 D(28,16,18,30)   =        -0.019186	      -1.099286
	 D(29,17,19,31)   =         0.041386	       2.371216
	 D(30,18,20,32)   =        -0.015329	      -0.878271
	 D(31,19,20,32)   =         0.015932	       0.912818
	 D(33,7,10,34)    =         0.005022	       0.287732
	 R(1,9)           =         7.145822	       3.781406
	 R(1,12)          =         6.877558	       3.639447
	 R(2,22)          =         5.668742	       2.999769
	 R(4,17)          =         6.570904	       3.477173
	 R(6,17)          =         6.924003	       3.664024
	 R(7,11)          =         7.151653	       3.784492
	 R(12,17)         =         6.656372	       3.522401

	Current energy   :      -895.8955492938

	Generating empirical Hessian (Schlegel '84) for each fragment.
	Taking RFO optimization step.
	Going to follow RFO solution 1.
	Using RFO vector 1.

	Determining step-restricting scale parameter for RS-RFO.
	Maximum step size allowed    0.50000

	 Iter      |step|        alpha        rfo_root  
	------------------------------------------------
	    0     0.64060       1.00000           1
	    1     0.53572       1.50957           1
	    2     0.50345       1.74002           1
	    3     0.50004       1.76726           1
	    4     0.50000       1.76756           1
	------------------------------------------------
	Norm of target step-size    0.50000
	Projected energy change by RFO approximation:        -0.0380309274

	Back-transformation to cartesian coordinates...
	Could not converge backtransformation.
	Using first guess instead.

	Back-transformation to cartesian coordinates to adjust frozen coordinates...
	Successfully converged to displaced geometry.

	--- Internal Coordinate Step in ANG or DEG, aJ/ANG or AJ/DEG ---
	 ---------------------------------------------------------------------------
	   Coordinate                Previous        Force       Change         New 
	   ----------                --------       ------       ------       ------
	    1 R(1,2)          =      1.422874    -0.131009    -0.009335     1.413539
	    2 R(1,16)         =      1.417454    -0.123013    -0.014440     1.403014
	    3 R(1,17)         =      1.419025    -0.144169    -0.015465     1.403559
	    4 R(2,3)          =      1.343954     0.602076     0.068654     1.412608
	    5 R(2,5)          =      1.038277    -0.153992    -0.015447     1.022830
	    6 R(3,4)          =      1.387432     0.016158     0.016313     1.403744
	    7 R(3,6)          =      1.498910    -0.077049    -0.003748     1.495162
	    8 R(4,7)          =      1.439226     0.077262     0.027194     1.466420
	    9 R(4,9)          =      1.460555     0.099294     0.041338     1.501893
	   10 R(6,11)         =      1.418608    -0.084579    -0.006049     1.412558
	   11 R(6,12)         =      1.420698    -0.124993    -0.009590     1.411109
	   12 R(7,10)         =      1.361033    -0.013376     0.003604     1.364637
	   13 R(7,33)         =      1.079984    -0.032806     0.007197     1.087181
	   14 R(8,9)          =      1.375825     0.070467     0.012906     1.388731
	   15 R(8,10)         =      1.402027    -0.005111     0.012054     1.414080
	   16 R(8,21)         =      1.009618    -0.058555    -0.000475     1.009144
	   17 R(9,22)         =      1.252490    -0.031139     0.010066     1.262556
	   18 R(10,34)        =      1.081129    -0.032878    -0.001712     1.079417
	   19 R(11,13)        =      1.400952    -0.077864    -0.007491     1.393461
	   20 R(11,23)        =      1.092109    -0.057930    -0.005090     1.087020
	   21 R(12,14)        =      1.401834    -0.095383    -0.009817     1.392017
	   22 R(12,24)        =      1.089136    -0.049135    -0.005857     1.083279
	   23 R(13,15)        =      1.408958    -0.125704    -0.011085     1.397873
	   24 R(13,25)        =      1.091376    -0.055114    -0.007213     1.084163
	   25 R(14,15)        =      1.409059    -0.106253    -0.012068     1.396990
	   26 R(14,26)        =      1.091562    -0.056184    -0.004638     1.086923
	   27 R(15,27)        =      1.091625    -0.058038    -0.007314     1.084312
	   28 R(16,18)        =      1.402422    -0.112606    -0.012589     1.389833
	   29 R(16,28)        =      1.092749    -0.060573    -0.006086     1.086663
	   30 R(17,19)        =      1.402653    -0.093515    -0.010224     1.392429
	   31 R(17,29)        =      1.090229    -0.053601    -0.006902     1.083326
	   32 R(18,20)        =      1.418617    -0.151871    -0.015129     1.403489
	   33 R(18,30)        =      1.092374    -0.049892    -0.006531     1.085843
	   34 R(19,20)        =      1.418194    -0.165846    -0.018943     1.399251
	   35 R(19,31)        =      1.092324    -0.051078    -0.004164     1.088160
	   36 R(20,32)        =      1.421503     0.038038     0.006385     1.427889
	   37 R(32,35)        =      1.023170    -0.039987    -0.002032     1.021138
	   38 R(32,36)        =      1.023436    -0.038631     0.008630     1.032066
	   39 B(1,2,3)        =    124.730388    -0.000974    -1.961116   122.769272
	   40 B(1,2,5)        =    117.816208    -0.000526    -2.264869   115.551339
	   41 B(1,16,18)      =    120.304766     0.000156     0.091946   120.396712
	   42 B(1,16,28)      =    118.874180     0.000049     0.398868   119.273047
	   43 B(1,17,19)      =    120.128324     0.000130     0.212125   120.340448
	   44 B(1,17,29)      =    119.637747     0.000063     0.429255   120.067002
	   45 B(2,1,16)       =    118.671492     0.000182     0.849658   119.521150
	   46 B(2,1,17)       =    121.774182     0.000096    -0.540563   121.233620
	   47 B(2,3,4)        =    116.619879     0.000256     2.419947   119.039826
	   48 B(2,3,6)        =    120.059195    -0.000446    -2.612537   117.446658
	   49 B(3,2,5)        =    109.935868     0.001378     4.080276   114.016144
	   50 B(3,4,7)        =    132.442265     0.000673     0.510846   132.953110
	   51 B(3,4,9)        =    119.014225     0.000084     1.297188   120.311413
	   52 B(3,6,11)       =    118.491013     0.000407     1.338383   119.829396
	   53 B(3,6,12)       =    122.887321    -0.000315    -0.913910   121.973411
	   54 B(4,3,6)        =    122.904399     0.000273     0.523184   123.427583
	   55 B(4,7,10)       =    106.378107     0.000486     0.919110   107.297217
	   56 B(4,7,33)       =    127.239489    -0.000376    -0.739773   126.499716
	   57 B(4,9,8)        =    104.371581     0.000280     0.418056   104.789637
	   58 B(4,9,22)       =    128.627702     0.000060     0.873431   129.501133
	   59 B(6,11,13)      =    120.714541     0.000043     0.122973   120.837513
	   60 B(6,11,23)      =    119.428846    -0.000132    -0.389008   119.039838
	   61 B(6,12,14)      =    120.506133     0.000066     0.403411   120.909545
	   62 B(6,12,24)      =    120.307762    -0.000142    -0.378712   119.929049
	   63 B(7,4,9)        =    108.542111    -0.000755    -1.810961   106.731149
	   64 B(7,10,8)       =    109.745041     0.000144     0.485326   110.230367
	   65 B(7,10,34)      =    130.079907    -0.000114    -0.598831   129.481076
	   66 B(8,9,22)       =    126.994640    -0.000336    -1.303313   125.691327
	   67 B(8,10,34)      =    120.174627    -0.000031     0.113643   120.288270
	   68 B(9,8,10)       =    110.961822    -0.000157    -0.063168   110.898654
	   69 B(9,8,21)       =    121.921536     0.000267     0.172603   122.094139
	   70 B(10,7,33)      =    126.381019    -0.000108    -0.183576   126.197443
	   71 B(10,8,21)      =    127.116115    -0.000111    -0.137962   126.978153
	   72 B(11,6,12)      =    118.499421    -0.000094    -0.449227   118.050194
	   73 B(11,13,15)     =    120.314719    -0.000089    -0.122612   120.192107
	   74 B(11,13,25)     =    119.739125     0.000041    -0.104708   119.634417
	   75 B(12,14,15)     =    120.429148     0.000001    -0.187856   120.241292
	   76 B(12,14,26)     =    119.674465    -0.000006     0.049992   119.724457
	   77 B(13,11,23)     =    119.856102     0.000090     0.266543   120.122645
	   78 B(13,15,14)     =    119.494889     0.000074     0.230753   119.725642
	   79 B(13,15,27)     =    120.233518    -0.000032     0.030420   120.263938
	   80 B(14,12,24)     =    119.185024     0.000076    -0.025730   119.159294
	   81 B(14,15,27)     =    120.270764    -0.000042    -0.262165   120.008599
	   82 B(15,13,25)     =    119.946139     0.000048     0.227275   120.173414
	   83 B(15,14,26)     =    119.896223     0.000005     0.137274   120.033496
	   84 B(16,1,17)      =    118.831600    -0.000269    -0.196221   118.635379
	   85 B(16,18,20)     =    121.251285    -0.000048    -0.138014   121.113270
	   86 B(16,18,30)     =    118.497745     0.000175     0.429511   118.927256
	   87 B(17,19,20)     =    121.380221    -0.000025    -0.244460   121.135761
	   88 B(17,19,31)     =    118.519952     0.000168     0.562121   119.082073
	   89 B(18,16,28)     =    120.821029    -0.000205    -0.490914   120.330115
	   90 B(18,20,19)     =    117.842994     0.000054     0.269525   118.112519
	   91 B(18,20,32)     =    121.224453     0.000016     0.079261   121.303713
	   92 B(19,17,29)     =    120.228240    -0.000193    -0.644300   119.583940
	   93 B(19,20,32)     =    120.915881    -0.000077    -0.422354   120.493527
	   94 B(20,18,30)     =    120.250089    -0.000127    -0.294549   119.955540
	   95 B(20,19,31)     =    120.095708    -0.000142    -0.317824   119.777884
	   96 B(20,32,35)     =    109.167274     0.000593     2.578978   111.746252
	   97 B(20,32,36)     =    108.798272     0.000711     3.123282   111.921554
	   98 B(35,32,36)     =    102.519329     0.000295     2.349468   104.868797
	   99 *D(1,2,3,4)     =     73.902032    -0.000000     0.000000    73.902032
	  100 D(1,2,3,6)      =    -98.905202    -0.000170    -3.938572  -102.843774
	  101 D(1,16,18,20)   =     -1.498592     0.000001     0.025768    -1.472824
	  102 D(1,16,18,30)   =    178.842169     0.000012     0.406990   179.249158
	  103 D(1,17,19,20)   =      2.238338    -0.000019    -0.692206     1.546132
	  104 D(1,17,19,31)   =   -178.499533    -0.000020    -0.708878  -179.208411
	  105 D(2,1,16,18)    =    175.779430     0.000019     0.738220   176.517651
	  106 D(2,1,16,28)    =     -4.277984     0.000016     0.667186    -3.610799
	  107 D(2,1,17,19)    =   -175.829464    -0.000011    -0.567014  -176.396477
	  108 D(2,1,17,29)    =      3.304940    -0.000018    -0.773168     2.531772
	  109 D(2,3,4,7)      =   -124.356617    -0.000419   -10.303412  -134.660029
	  110 D(2,3,4,9)      =     56.128799    -0.000487   -11.655743    44.473056
	  111 *D(2,3,6,11)    =   -131.543791    -0.000000    -0.000000  -131.543791
	  112 D(2,3,6,12)     =     44.372380    -0.000005    -0.410363    43.962017
	  113 *D(3,2,1,16)    =   -149.955023    -0.000000     0.000000  -149.955023
	  114 D(3,2,1,17)     =     20.187583     0.000007     0.781805    20.969388
	  115 D(3,4,7,10)     =   -179.446280    -0.000056    -1.533453  -180.979733
	  116 D(3,4,7,33)     =      0.144686    -0.000024    -0.301229    -0.156543
	  117 D(3,4,9,8)      =    179.328746     0.000013     0.128675   179.457421
	  118 D(3,4,9,22)     =     -1.528469     0.000072     2.480254     0.951785
	  119 D(3,6,11,13)    =    178.367825    -0.000014    -0.505028   177.862797
	  120 D(3,6,11,23)    =     -1.892574    -0.000006    -0.265724    -2.158299
	  121 D(3,6,12,14)    =   -178.203940     0.000001     0.188602  -178.015338
	  122 D(3,6,12,24)    =      1.414691    -0.000003     0.036806     1.451497
	  123 D(4,3,2,5)      =    -74.904158     0.000066     0.770646   -74.133512
	  124 D(4,3,6,11)     =     56.117915    -0.000179    -4.252537    51.865378
	  125 D(4,3,6,12)     =   -127.965914    -0.000185    -4.662900  -132.628814
	  126 D(4,7,10,8)     =      0.125098     0.000030     1.417908     1.543006
	  127 D(4,7,10,34)    =    179.883259     0.000037     1.461817   181.345076
	  128 D(4,9,8,10)     =      0.374724     0.000060     1.798878     2.173602
	  129 D(4,9,8,21)     =   -179.871649     0.000012     0.212151  -179.659498
	  130 D(5,2,1,16)     =     -3.356974     0.000045     0.991311    -2.365662
	  131 D(5,2,1,17)     =    166.785632     0.000053     1.773116   168.558748
	  132 D(5,2,3,6)      =    112.288608    -0.000103    -3.167926   109.120682
	  133 D(6,3,4,7)      =     48.227240    -0.000257    -6.347808    41.879433
	  134 D(6,3,4,9)      =   -131.287343    -0.000325    -7.700139  -138.987482
	  135 D(6,11,13,15)   =     -0.938474     0.000009     0.256701    -0.681773
	  136 D(6,11,13,25)   =    179.109941     0.000010     0.298583   179.408524
	  137 D(6,12,14,15)   =      0.980672     0.000004     0.201272     1.181944
	  138 D(6,12,14,26)   =   -179.166905    -0.000000     0.032836  -179.134068
	  139 D(7,4,9,8)      =     -0.293426    -0.000041    -0.911696    -1.205122
	  140 D(7,4,9,22)     =    178.849359     0.000018     1.439883   180.289242
	  141 D(7,10,8,9)     =     -0.330089    -0.000059    -2.115399    -2.445488
	  142 D(7,10,8,21)    =    179.932152    -0.000008    -0.433642   179.498510
	  143 D(8,10,7,33)    =   -179.470429    -0.000002     0.193436  -179.276994
	  144 D(9,4,7,10)     =      0.105983     0.000007    -0.304234    -0.198251
	  145 D(9,4,7,33)     =    179.696948     0.000039     0.927990   180.624938
	  146 D(9,8,10,34)    =    179.883957    -0.000065    -2.152526   177.731431
	  147 D(10,8,9,22)    =   -178.786816     0.000001    -0.459302  -179.246118
	  148 D(11,6,12,14)   =     -2.288096     0.000000    -0.144765    -2.432861
	  149 D(11,6,12,24)   =    177.330536    -0.000004    -0.296562   177.033974
	  150 D(11,13,15,14)  =     -0.419093    -0.000005    -0.213716    -0.632809
	  151 D(11,13,15,27)  =    179.911176    -0.000001    -0.053129   179.858046
	  152 D(12,6,11,13)   =      2.269756    -0.000006    -0.087477     2.182279
	  153 D(12,6,11,23)   =   -177.990644     0.000001     0.151827  -177.838817
	  154 D(12,14,15,13)  =      0.396313    -0.000001    -0.010768     0.385546
	  155 D(12,14,15,27)  =   -179.934080    -0.000004    -0.169961  -180.104041
	  156 D(13,15,14,26)  =   -179.455783     0.000004     0.158321  -179.297461
	  157 D(14,15,13,25)  =    179.532391    -0.000006    -0.255987   179.276404
	  158 D(15,13,11,23)  =    179.323032     0.000001     0.016518   179.339550
	  159 D(15,14,12,24)  =   -178.642207     0.000009     0.353271  -178.288936
	  160 D(16,1,17,19)   =     -5.702134     0.000006     0.308406    -5.393728
	  161 D(16,1,17,29)   =    173.432269    -0.000001     0.102252   173.534521
	  162 D(16,18,20,19)  =     -2.003846    -0.000019    -0.409524    -2.413370
	  163 D(16,18,20,32)  =    179.468407     0.000053     1.556493   181.024901
	  164 D(17,1,16,18)   =      5.342490     0.000004     0.014878     5.357368
	  165 D(17,1,16,28)   =   -174.714925     0.000000    -0.056156  -174.771081
	  166 D(17,19,20,18)  =      1.630949     0.000029     0.743087     2.374036
	  167 D(17,19,20,32)  =   -179.836534    -0.000042    -1.198693  -181.035226
	  168 D(18,20,19,31)  =   -177.619699     0.000029     0.753466  -176.866234
	  169 *D(18,20,32,35) =    -29.925893    -0.000000     0.000000   -29.925893
	  170 D(18,20,32,36)  =   -141.071656    -0.000230    -6.133252  -147.204908
	  171 D(19,20,18,30)  =    177.649476    -0.000030    -0.792179   176.857297
	  172 D(19,20,32,35)  =    151.591517     0.000073     2.002111   153.593628
	  173 D(19,20,32,36)  =     40.445754    -0.000156    -4.131141    36.314613
	  174 D(20,18,16,28)  =    178.559953     0.000004     0.097037   178.656990
	  175 D(20,19,17,29)  =   -176.890913    -0.000013    -0.496372  -177.387285
	  176 D(21,8,9,22)    =      0.966811    -0.000047    -2.046029    -1.079218
	  177 D(21,8,10,34)   =      0.146198    -0.000015    -0.470769    -0.324571
	  178 D(23,11,13,25)  =     -0.628552     0.000002     0.058400    -0.570152
	  179 D(24,12,14,26)  =      1.210217     0.000005     0.184835     1.395052
	  180 D(25,13,15,27)  =     -0.137340    -0.000002    -0.095400    -0.232741
	  181 D(26,14,15,27)  =      0.213824    -0.000000    -0.000872     0.212952
	  182 D(28,16,18,30)  =     -1.099286     0.000015     0.478258    -0.621028
	  183 D(29,17,19,31)  =      2.371216    -0.000014    -0.513044     1.858172
	  184 D(30,18,20,32)  =     -0.878271     0.000042     1.173839     0.295567
	  185 D(31,19,20,32)  =      0.912818    -0.000042    -1.188314    -0.275496
	  186 D(33,7,10,34)   =      0.287732     0.000006     0.237344     0.525076
	  187 R(1,9)          =      3.781406     0.020669    -0.027812     3.753594
	  188 R(1,12)         =      3.639447     0.010223    -0.016874     3.622573
	  189 R(2,22)         =      2.999769     0.020631     0.025904     3.025673
	  190 R(4,17)         =      3.477173     0.004573     0.015506     3.492679
	  191 R(6,17)         =      3.664024     0.000900    -0.000253     3.663772
	  192 R(7,11)         =      3.784492    -0.064032    -0.066282     3.718210
	  193 R(12,17)        =      3.522401    -0.015738     0.008493     3.530894
	 ---------------------------------------------------------------------------
	Successfully symmetrized geometry.

  ==> Convergence Check <==

  Measures of convergence in internal coordinates in au.
  Criteria marked as inactive (o), active & met (*), and active & unmet ( ).
  --------------------------------------------------------------------------------------------- ~
   Step     Total Energy     Delta E     MAX Force     RMS Force      MAX Disp      RMS Disp    ~
  --------------------------------------------------------------------------------------------- ~
    Convergence Criteria             o    2.50e-03 *    1.70e-03 *    1.00e-02 *    6.70e-03 *  ~
  --------------------------------------------------------------------------------------------- ~
      1    -895.89554929   -8.96e+02 o    7.31e-02      8.34e-03      2.03e-01      3.54e-02    ~
  ---------------------------------------------------------------------------------------------

	Writing optimization data to binary file.
	Structure for next step:
	Cartesian Geometry (in Angstrom)
	    C     1.7188495830  -0.0007769656  -0.0557194191
	    N     0.7487010956   0.6813151382   0.7134713606
	    C    -0.6399004819   0.5172094232   0.5126827442
	    C    -1.2548239629  -0.6696018637   0.9414548411
	    H     1.0093339705   0.8717859913   1.6840241691
	    C    -1.3631906497   1.6015282403  -0.2198570516
	    C    -2.2213630608  -1.5770672010   0.3148008704
	    N    -1.7162596685  -2.3883878410   2.3843546867
	    C    -0.9333598366  -1.2451854598   2.2909168395
	    C    -2.4523573042  -2.5942861401   1.1946532547
	    C    -2.5644570329   2.1252719124   0.3073744102
	    C    -0.8369188633   2.1941863659  -1.3873422169
	    C    -3.2323539726   3.1661604365  -0.3346527904
	    C    -1.5095656042   3.2304320391  -2.0287884419
	    C    -2.7108775947   3.7179048620  -1.5084028712
	    C     2.9580105222  -0.3198746604   0.5196975397
	    C     1.4060849921  -0.5318286147  -1.3167273202
	    C     3.8975241689  -1.0530263102  -0.1954518320
	    C     2.3539828494  -1.2647833664  -2.0260408194
	    C     3.6221838029  -1.5167642671  -1.4911814382
	    H    -1.7057789739  -2.9800803300   3.2017658228
	    O    -0.1573535028  -0.8086546321   3.1860718438
	    H    -2.9653575062   1.7042615975   1.2258735123
	    H     0.1072937752   1.8485430424  -1.7904375408
	    H    -4.1580524633   3.5468239713   0.0819855132
	    H    -1.0937051767   3.6634754552  -2.9348435113
	    H    -3.2308238330   4.5263503304  -2.0102031904
	    H     3.1763578311   0.0143215458   1.5303776532
	    H     0.4177865229  -0.3877772705  -1.7363833721
	    H     4.8536062492  -1.2760307055   0.2684777245
	    H     2.0939175502  -1.6560675629  -3.0075476958
	    N     4.5761362864  -2.2887062622  -2.2212128095
	    H    -2.6625994115  -1.4699562709  -0.6730246887
	    H    -3.0849107674  -3.4625608616   1.0892193027
	    H     5.5344319061  -2.0484717961  -1.9629896426
	    H     4.5221807924  -2.1084302209  -3.2359782936
			--------------------------
			 OPTKING Finished Execution 
			--------------------------

    Structure for next step:
    Molecular point group: c1
    Full point group: C1

    Geometry (in Angstrom), charge = 0, multiplicity = 1:

    C            1.698282318877    -0.005319267905    -0.059727870210
    N            0.728133827637     0.676772838575     0.709462912579
    C           -0.660467755371     0.512667123014     0.508674295341
    C           -1.275391238728    -0.674144168563     0.937446393924
    H            0.988766703531     0.867243692464     1.680015724862
    C           -1.383757925936     1.596985944365    -0.223865503364
    C           -2.241930340401    -1.581609509510     0.310792420803
    N           -1.736826946192    -2.392930152676     2.380346245213
    C           -0.953927111186    -1.249727766993     2.286908397618
    C           -2.472924584728    -2.598828452578     1.190644808559
    C           -2.585024313854     2.120729618479     0.303365960572
    C           -0.857486137542     2.189644072259    -1.391350673229
    C           -3.252921256221     3.161618146645    -0.338661242620
    C           -1.530132881007     3.225889749533    -2.032796900778
    C           -2.731444876312     3.713362574331    -1.512411327947
    C            2.937443262918    -0.324416963941     0.515689090872
    C            1.385517726675    -0.536370919100    -1.320735776199
    C            3.876956913348    -1.057568616612    -0.199460283583
    C            2.333415587729    -1.269325673596    -2.030049278275
    C            3.601616546177    -1.521306575320    -1.495189894940
    H           -1.726346251502    -2.984622643985     3.197757384533
    O           -0.177920774314    -0.813196937519     3.182063405489
    H           -2.985924788819     1.699719301947     1.221865066211
    H            0.086726504720     1.844000747397    -1.794445998700
    H           -4.178619750551     3.542281682974     0.077977062626
    H           -1.114272451916     3.658933167292    -2.938851973741
    H           -3.251391116595     4.521808045883    -2.014211649134
    H            3.155790572668     0.009779243600     1.526369208337
    H            0.397219253643    -0.392319574283    -1.740391829782
    H            4.833038997408    -1.280573012826     0.264469274641
    H            2.073350287532    -1.660609871626    -3.011556158476
    N            4.555569033455    -2.293248573450    -2.225221269046
    H           -2.683166692840    -1.474498578963    -0.677033142173
    H           -3.105478050492    -3.467103177462     1.085210856083
    H            5.513864656978    -2.053014106420    -1.966998101161
    H            4.501613539225    -2.112972531453    -3.239986757146


Scratch directory: /scratch/bdw2292/Psi4-1_7_Index_0_GrowFragment_0-farH_in17/

Scratch directory: /scratch/bdw2292/Psi4-1_7_Index_0_GrowFragment_0-farH_in17/
gradient() will perform analytic gradient computation.

*** tstart() called on node74.bme.utexas.edu
*** at Thu Jun  9 05:51:17 2022

   => Loading Basis Set <=

    Name: 6-311G
    Role: ORBITAL
    Keyword: BASIS
    atoms 1, 3-4, 6-7, 9-20   entry C          line    92 file /home/bdw2292/miniconda3/envs/newamoebamdpoltype/share/psi4/basis/6-311g.gbs 
    atoms 2, 8, 32            entry N          line   109 file /home/bdw2292/miniconda3/envs/newamoebamdpoltype/share/psi4/basis/6-311g.gbs 
    atoms 5, 21, 23-31, 33-36 entry H          line    21 file /home/bdw2292/miniconda3/envs/newamoebamdpoltype/share/psi4/basis/6-311g.gbs 
    atoms 22                  entry O          line   126 file /home/bdw2292/miniconda3/envs/newamoebamdpoltype/share/psi4/basis/6-311g.gbs 

   => WB97X-D: Empirical Dispersion <=

    Chai and Head-Gordon Dispersion Correction
    Chai, J.-D.; Head-Gordon, M. (2010), J. Chem. Phys., 132: 6615-6620

        s6 =       1.000000


         ---------------------------------------------------------
                                   SCF
               by Justin Turney, Rob Parrish, Andy Simmonett
                          and Daniel G. A. Smith
                              RKS Reference
                        2 Threads,   7788 MiB Core
         ---------------------------------------------------------

  ==> Geometry <==

    Molecular point group: c1
    Full point group: C1

    Geometry (in Angstrom), charge = 0, multiplicity = 1:

       Center              X                  Y                   Z               Mass       
    ------------   -----------------  -----------------  -----------------  -----------------
         C            1.698282318877    -0.005319267905    -0.059727870210    12.000000000000
         N            0.728133827637     0.676772838575     0.709462912579    14.003074004430
         C           -0.660467755371     0.512667123014     0.508674295341    12.000000000000
         C           -1.275391238728    -0.674144168563     0.937446393924    12.000000000000
         H            0.988766703531     0.867243692464     1.680015724862     1.007825032230
         C           -1.383757925936     1.596985944365    -0.223865503364    12.000000000000
         C           -2.241930340401    -1.581609509510     0.310792420803    12.000000000000
         N           -1.736826946192    -2.392930152676     2.380346245213    14.003074004430
         C           -0.953927111186    -1.249727766993     2.286908397618    12.000000000000
         C           -2.472924584728    -2.598828452578     1.190644808559    12.000000000000
         C           -2.585024313854     2.120729618479     0.303365960572    12.000000000000
         C           -0.857486137542     2.189644072259    -1.391350673229    12.000000000000
         C           -3.252921256221     3.161618146645    -0.338661242620    12.000000000000
         C           -1.530132881007     3.225889749533    -2.032796900778    12.000000000000
         C           -2.731444876312     3.713362574331    -1.512411327947    12.000000000000
         C            2.937443262918    -0.324416963941     0.515689090872    12.000000000000
         C            1.385517726675    -0.536370919100    -1.320735776199    12.000000000000
         C            3.876956913348    -1.057568616612    -0.199460283583    12.000000000000
         C            2.333415587729    -1.269325673596    -2.030049278275    12.000000000000
         C            3.601616546177    -1.521306575320    -1.495189894940    12.000000000000
         H           -1.726346251502    -2.984622643985     3.197757384533     1.007825032230
         O           -0.177920774314    -0.813196937519     3.182063405489    15.994914619570
         H           -2.985924788819     1.699719301947     1.221865066211     1.007825032230
         H            0.086726504720     1.844000747397    -1.794445998700     1.007825032230
         H           -4.178619750551     3.542281682974     0.077977062626     1.007825032230
         H           -1.114272451916     3.658933167292    -2.938851973741     1.007825032230
         H           -3.251391116595     4.521808045883    -2.014211649134     1.007825032230
         H            3.155790572668     0.009779243600     1.526369208337     1.007825032230
         H            0.397219253643    -0.392319574283    -1.740391829782     1.007825032230
         H            4.833038997408    -1.280573012826     0.264469274641     1.007825032230
         H            2.073350287532    -1.660609871626    -3.011556158476     1.007825032230
         N            4.555569033455    -2.293248573450    -2.225221269046    14.003074004430
         H           -2.683166692840    -1.474498578963    -0.677033142173     1.007825032230
         H           -3.105478050492    -3.467103177462     1.085210856083     1.007825032230
         H            5.513864656978    -2.053014106420    -1.966998101161     1.007825032230
         H            4.501613539225    -2.112972531453    -3.239986757146     1.007825032230

  Running in c1 symmetry.

  Rotational constants: A =      0.01283  B =      0.00762  C =      0.00558 [cm^-1]
  Rotational constants: A =    384.57335  B =    228.42971  C =    167.35037 [MHz]
  Nuclear repulsion = 1532.118937362733050

  Charge       = 0
  Multiplicity = 1
  Electrons    = 146
  Nalpha       = 73
  Nbeta        = 73

  ==> Algorithm <==

  SCF Algorithm Type is DF.
  DIIS enabled.
  MOM disabled.
  Fractional occupation disabled.
  Guess Type is READ.
  Energy threshold   = 1.00e-08
  Density threshold  = 1.00e-08
  Integral threshold = 1.00e-12

  ==> Primary Basis <==

  Basis Set: 6-311G
    Blend: 6-311G
    Number of shells: 192
    Number of basis functions: 318
    Number of Cartesian functions: 318
    Spherical Harmonics?: true
    Max angular momentum: 1

  ==> DFT Potential <==

   => LibXC <=

    Version 5.1.5
    S. Lehtola, C. Steigemann, M. J. Oliveira, and M. A. Marques, SoftwareX 7, 1 (2018) (10.1016/j.softx.2017.11.002)

   => Composite Functional: WB97X-D <= 

    wB97X-D Hyb-GGA Exchange-Correlation Functional

    J.-D. Chai and M. Head-Gordon, Phys. Chem. Chem. Phys. 10, 6615 (2008) (10.1039/B810189B)

    Deriv               =              1
    GGA                 =           TRUE
    Meta                =          FALSE

    Exchange Hybrid     =           TRUE
    MP2 Hybrid          =          FALSE

   => Exchange-Correlation Functionals <=

    1.0000   wB97X-D range-separated functional

   => Exact (HF) Exchange <=

    0.7780            HF,LR [omega = 0.2000]
    0.2220               HF 

   => LibXC Density Thresholds  <==

    XC_HYB_GGA_XC_WB97X_D:  1.00E-14 

   => Molecular Quadrature <=

    Radial Scheme          =       TREUTLER
    Pruning Scheme         =           NONE
    Nuclear Scheme         =       TREUTLER

    BS radius alpha        =              1
    Pruning alpha          =              1
    Radial Points          =             75
    Spherical Points       =            302
    Total Points           =         741882
    Total Blocks           =           5244
    Max Points             =            256
    Max Functions          =            223
    Weights Tolerance      =       1.00E-15

   => Loading Basis Set <=

    Name: (6-311G AUX)
    Role: JKFIT
    Keyword: DF_BASIS_SCF
    atoms 1, 3-4, 6-7, 9-20   entry C          line   125 file /home/bdw2292/miniconda3/envs/newamoebamdpoltype/share/psi4/basis/cc-pvtz-jkfit.gbs 
    atoms 2, 8, 32            entry N          line   177 file /home/bdw2292/miniconda3/envs/newamoebamdpoltype/share/psi4/basis/cc-pvtz-jkfit.gbs 
[...]
	   41 B(1,16,18)      =    120.960926     0.000002     0.007978   120.968905
	   42 B(1,16,28)      =    119.418498    -0.000004    -0.013932   119.404566
	   43 B(1,17,19)      =    120.790067     0.000002     0.005302   120.795369
	   44 B(1,17,29)      =    120.148976     0.000001    -0.002450   120.146526
	   45 B(2,1,16)       =    120.178513     0.000003     0.026190   120.204703
	   46 B(2,1,17)       =    121.620934     0.000001    -0.015227   121.605707
	   47 B(2,3,4)        =    120.620517    -0.000002     0.017938   120.638456
	   48 B(2,3,6)        =    116.247795     0.000009    -0.028597   116.219198
	   49 B(3,2,5)        =    115.266606     0.000003    -0.040079   115.226527
	   50 B(3,4,7)        =    129.671931     0.000003     0.007239   129.679170
	   51 B(3,4,9)        =    124.206782     0.000002     0.015257   124.222039
	   52 B(3,6,11)       =    120.887686     0.000001     0.018586   120.906272
	   53 B(3,6,12)       =    120.041450    -0.000006    -0.029968   120.011481
	   54 B(4,3,6)        =    122.959781    -0.000007     0.014608   122.974388
	   55 B(4,7,10)       =    107.832874     0.000000     0.016933   107.849807
	   56 B(4,7,33)       =    125.635118     0.000002    -0.008902   125.626216
	   57 B(4,9,8)        =    104.671387     0.000004     0.029732   104.701119
	   58 B(4,9,22)       =    130.332296    -0.000015    -0.079427   130.252869
	   59 B(6,11,13)      =    120.562422    -0.000002     0.003502   120.565924
	   60 B(6,11,23)      =    119.410670     0.000002    -0.002781   119.407889
	   61 B(6,12,14)      =    120.510643    -0.000006    -0.022228   120.488415
	   62 B(6,12,24)      =    119.274078     0.000008     0.033616   119.307694
	   63 B(7,4,9)        =    106.120916    -0.000005    -0.023277   106.097639
	   64 B(7,10,8)       =    110.391282    -0.000004    -0.008523   110.382758
	   65 B(7,10,34)      =    129.225843     0.000012     0.038504   129.264348
	   66 B(8,9,22)       =    124.883177     0.000011     0.052641   124.935818
	   67 B(8,10,34)      =    120.375711    -0.000008    -0.036775   120.338936
	   68 B(9,8,10)       =    110.950115     0.000005     0.000178   110.950294
	   69 B(9,8,21)       =    122.659909     0.000003     0.011774   122.671683
	   70 B(10,7,33)      =    126.404872    -0.000002     0.009008   126.413880
	   71 B(10,8,21)      =    126.383151    -0.000008    -0.013172   126.369979
	   72 B(11,6,12)      =    118.765697     0.000005     0.008624   118.774321
	   73 B(11,13,15)     =    120.103235    -0.000000    -0.004600   120.098635
	   74 B(11,13,25)     =    119.740133     0.000001     0.010966   119.751098
	   75 B(12,14,15)     =    120.204984     0.000003     0.016550   120.221534
	   76 B(12,14,26)     =    119.740105     0.000000     0.000995   119.741100
	   77 B(13,11,23)     =    120.021352    -0.000001    -0.000185   120.021167
	   78 B(13,15,14)     =    119.745533    -0.000001    -0.005469   119.740064
	   79 B(13,15,27)     =    120.141791     0.000001     0.001196   120.142987
	   80 B(14,12,24)     =    120.207460    -0.000002    -0.012521   120.194939
	   81 B(14,15,27)     =    120.101407    -0.000000     0.004938   120.106345
	   82 B(15,13,25)     =    120.150428    -0.000001    -0.005924   120.144504
	   83 B(15,14,26)     =    120.048205    -0.000004    -0.017345   120.030860
	   84 B(16,1,17)      =    118.199685    -0.000004    -0.011073   118.188611
	   85 B(16,18,20)     =    121.019419     0.000002    -0.001053   121.018366
	   86 B(16,18,30)     =    119.518946    -0.000002     0.002621   119.521566
	   87 B(17,19,20)     =    121.084570    -0.000002    -0.000643   121.083927
	   88 B(17,19,31)     =    119.218549     0.000003     0.012038   119.230587
	   89 B(18,16,28)     =    119.596804     0.000002     0.001528   119.598332
	   90 B(18,20,19)     =    117.886758     0.000000     0.001012   117.887769
	   91 B(18,20,32)     =    120.641288     0.000005     0.013401   120.654689
	   92 B(19,17,29)     =    119.060354    -0.000003    -0.003656   119.056698
	   93 B(19,20,32)     =    121.412514    -0.000005    -0.016781   121.395733
	   94 B(20,18,30)     =    119.437647    -0.000000    -0.002531   119.435116
	   95 B(20,19,31)     =    119.696862    -0.000001    -0.011397   119.685465
	   96 B(20,32,35)     =    119.074919     0.000001     0.070816   119.145734
	   97 B(20,32,36)     =    118.718615    -0.000002     0.038544   118.757158
	   98 B(35,32,36)     =    115.878384     0.000002     0.092402   115.970786
	   99 *D(1,2,3,4)     =     73.902032     0.000000     0.000000    73.902032
	  100 D(1,2,3,6)      =   -110.724592    -0.000000     0.053949  -110.670642
	  101 D(1,16,18,20)   =     -0.250486     0.000000     0.071889    -0.178597
	  102 D(1,16,18,30)   =   -178.458834     0.000000     0.107541  -178.351293
	  103 D(1,17,19,20)   =      0.699442    -0.000000    -0.049056     0.650386
	  104 D(1,17,19,31)   =   -179.249544    -0.000000    -0.047316  -179.296860
	  105 D(2,1,16,18)    =   -178.092683    -0.000001    -0.099058  -178.191741
	  106 D(2,1,16,28)    =      3.688029    -0.000000     0.059548     3.747577
	  107 D(2,1,17,19)    =    177.878709     0.000001     0.087796   177.966506
	  108 D(2,1,17,29)    =     -2.406472     0.000000    -0.062579    -2.469051
	  109 D(2,3,4,7)      =   -171.890009    -0.000000     0.008873  -171.881136
	  110 D(2,3,4,9)      =      7.856811    -0.000003    -0.184481     7.672330
	  111 *D(2,3,6,11)    =   -131.543791    -0.000000    -0.000000  -131.543791
	  112 D(2,3,6,12)     =     42.033907    -0.000000    -0.028331    42.005576
	  113 *D(3,2,1,16)    =   -149.955023     0.000000     0.000000  -149.955023
	  114 D(3,2,1,17)     =     29.699738    -0.000001    -0.021289    29.678449
	  115 D(3,4,7,10)     =    177.967399     0.000002     0.268721   178.236119
	  116 D(3,4,7,33)     =      1.859530    -0.000000    -0.001605     1.857926
	  117 D(3,4,9,8)      =   -178.645726     0.000001    -0.017686  -178.663412
	  118 D(3,4,9,22)     =      5.151257     0.000000    -0.070574     5.080683
	  119 D(3,6,11,13)    =    176.831673    -0.000000     0.032001   176.863674
	  120 D(3,6,11,23)    =     -2.311036    -0.000000    -0.010476    -2.321512
	  121 D(3,6,12,14)    =   -177.594963     0.000000    -0.028057  -177.623020
	  122 D(3,6,12,24)    =      1.389967    -0.000000    -0.099193     1.290774
	  123 D(4,3,2,5)      =    -72.093337     0.000000     0.091886   -72.001451
	  124 D(4,3,6,11)     =     43.710725    -0.000000     0.055436    43.766160
	  125 D(4,3,6,12)     =   -142.711577    -0.000001     0.027105  -142.684472
	  126 D(4,7,10,8)     =      1.793318    -0.000005    -0.535327     1.257992
	  127 D(4,7,10,34)    =   -177.219101    -0.000001    -0.143793  -177.362894
	  128 D(4,9,8,10)     =     -0.121134    -0.000002    -0.141594    -0.262728
	  129 D(4,9,8,21)     =   -179.226290    -0.000000    -0.064781  -179.291072
	  130 D(5,2,1,16)     =     -3.925647    -0.000001    -0.107548    -4.033194
	  131 D(5,2,1,17)     =    175.729114    -0.000001    -0.128837   175.600277
	  132 D(5,2,3,6)      =    103.280039    -0.000000     0.145835   103.425874
	  133 D(6,3,4,7)      =     13.056304    -0.000000    -0.046806    13.009497
	  134 D(6,3,4,9)      =   -167.196877    -0.000002    -0.240160  -167.437036
	  135 D(6,11,13,15)   =     -0.618288     0.000000    -0.017913    -0.636201
	  136 D(6,11,13,25)   =   -179.713610     0.000000    -0.050643  -179.764253
	  137 D(6,12,14,15)   =      2.039287     0.000000     0.004661     2.043948
	  138 D(6,12,14,26)   =   -178.902212    -0.000000     0.018662  -178.883550
	  139 D(7,4,9,8)      =      1.151422    -0.000001    -0.172524     0.978898
	  140 D(7,4,9,22)     =   -175.051595    -0.000002    -0.225412  -175.277007
	  141 D(7,10,8,9)     =     -1.071096     0.000004     0.438672    -0.632424
	  142 D(7,10,8,21)    =    177.993130     0.000003     0.358650   178.351781
	  143 D(8,10,7,33)    =    177.862921    -0.000003    -0.263169   177.599752
	  144 D(9,4,7,10)     =     -1.814648     0.000004     0.435056    -1.379591
	  145 D(9,4,7,33)     =   -177.922516     0.000002     0.164731  -177.757785
	  146 D(9,8,10,34)    =    178.042145     0.000001     0.088266   178.130412
	  147 D(10,8,9,22)    =    176.350773    -0.000001    -0.098794   176.251979
	  148 D(11,6,12,14)   =     -3.881764    -0.000000    -0.055079    -3.936843
	  149 D(11,6,12,24)   =    175.103166    -0.000001    -0.126214   174.976952
	  150 D(11,13,15,14)  =     -1.284015    -0.000000    -0.033260    -1.317275
	  151 D(11,13,15,27)  =    179.935790    -0.000000    -0.069829   179.865961
	  152 D(12,6,11,13)   =      3.173555     0.000000     0.062437     3.235992
	  153 D(12,6,11,23)   =   -175.969154     0.000001     0.019960  -175.949193
	  154 D(12,14,15,13)  =      0.577523     0.000000     0.039707     0.617230
	  155 D(12,14,15,27)  =    179.358217     0.000000     0.076216   179.434433
	  156 D(13,15,14,26)  =   -178.478062     0.000000     0.025490  -178.452571
	  157 D(14,15,13,25)  =    177.807567    -0.000000    -0.000247   177.807320
	  158 D(15,13,11,23)  =    178.519190    -0.000000     0.024802   178.543991
	  159 D(15,14,12,24)  =   -176.936150     0.000000     0.075962  -176.860188
	  160 D(16,1,17,19)   =     -2.459932     0.000000     0.067047    -2.392885
	  161 D(16,1,17,29)   =    177.254886    -0.000001    -0.083328   177.171558
	  162 D(16,18,20,19)  =     -1.529852    -0.000000    -0.050885    -1.580737
	  163 D(16,18,20,32)  =   -178.765227     0.000000     0.004112  -178.761114
	  164 D(17,1,16,18)   =      2.240894    -0.000000    -0.078467     2.162427
	  165 D(17,1,16,28)   =   -175.978394     0.000000     0.080139  -175.898255
	  166 D(17,19,20,18)  =      1.307195     0.000000     0.039561     1.346756
	  167 D(17,19,20,32)  =    178.520078    -0.000000    -0.014982   178.505096
	  168 D(18,20,19,31)  =   -178.744060     0.000000     0.037825  -178.706235
	  169 *D(18,20,32,35) =    -29.925893     0.000000     0.000000   -29.925893
	  170 D(18,20,32,36)  =    179.137013    -0.000001    -0.459990   178.677023
	  171 D(19,20,18,30)  =    176.679933    -0.000000    -0.086416   176.593518
	  172 D(19,20,32,35)  =    152.937409     0.000000     0.056414   152.993823
	  173 D(19,20,32,36)  =      2.000316    -0.000001    -0.403576     1.596740
	  174 D(20,18,16,28)  =    177.965662    -0.000001    -0.087293   177.878370
	  175 D(20,19,17,29)  =   -179.018439     0.000001     0.099700  -178.918739
	  176 D(21,8,9,22)    =     -2.754383     0.000000    -0.021981    -2.776364
	  177 D(21,8,10,34)   =     -2.893628    -0.000000     0.008245    -2.885383
	  178 D(23,11,13,25)  =     -0.576132    -0.000000    -0.007928    -0.584060
	  179 D(24,12,14,26)  =      2.122350     0.000000     0.089963     2.212314
	  180 D(25,13,15,27)  =     -0.972628    -0.000000    -0.036816    -1.009444
	  181 D(26,14,15,27)  =      0.302632     0.000000     0.061999     0.364632
	  182 D(28,16,18,30)  =     -0.242686    -0.000000    -0.051641    -0.294326
	  183 D(29,17,19,31)  =      1.032576     0.000001     0.101440     1.134016
	  184 D(30,18,20,32)  =     -0.555442     0.000000    -0.031418    -0.586860
	  185 D(31,19,20,32)  =     -1.531178    -0.000000    -0.016718    -1.547896
	  186 D(33,7,10,34)   =     -1.149498     0.000001     0.128364    -1.021133
	  187 R(1,9)          =      3.378365     0.001208    -0.000559     3.377805
	  188 R(1,12)         =      3.632443     0.000295    -0.002295     3.630148
	  189 R(2,22)         =      2.875691    -0.000359    -0.000961     2.874730
	  190 R(4,17)         =      3.539273    -0.000253    -0.000454     3.538819
	  191 R(6,17)         =      3.710323    -0.000509    -0.001713     3.708610
	  192 R(7,11)         =      3.202419     0.000922     0.001558     3.203976
	  193 R(12,17)        =      3.581525    -0.000395    -0.003071     3.578454
	 ---------------------------------------------------------------------------
	Successfully symmetrized geometry.

  ==> Convergence Check <==

  Measures of convergence in internal coordinates in au.
  Criteria marked as inactive (o), active & met (*), and active & unmet ( ).
  ---------------------------------------------------------------------------------------------
   Step     Total Energy     Delta E     MAX Force     RMS Force      MAX Disp      RMS Disp   
  ---------------------------------------------------------------------------------------------
    Convergence Criteria             o    2.50e-03 *    1.70e-03 *    1.00e-02 *    6.70e-03 *
  ---------------------------------------------------------------------------------------------
     11    -895.95887829   -1.41e-05 o    4.44e-04 *    7.82e-05 *    9.34e-03 *    1.84e-03 *  ~
  ---------------------------------------------------------------------------------------------


  **** Optimization is complete! (in 11 steps) ****

  ==> Optimization Summary <==

  Measures of convergence in internal coordinates in au.
  --------------------------------------------------------------------------------------------------------------- ~
   Step         Total Energy             Delta E       MAX Force       RMS Force        MAX Disp        RMS Disp  ~
  --------------------------------------------------------------------------------------------------------------- ~
      1    -895.895549293816   -895.895549293816      0.07307882      0.00833943      0.20343109      0.03542052  ~
      2    -895.924379974305     -0.028830680490      0.02331939      0.00423732      0.24428568      0.04486111  ~
      3    -895.928191165642     -0.003811191336      0.04654231      0.00812157      0.24422967      0.03431014  ~
      4    -895.949632676406     -0.021441510764      0.01052097      0.00188326      0.34839628      0.04601013  ~
      5    -895.954456193226     -0.004823516820      0.03144491      0.00351421      0.16810601      0.02484424  ~
      6    -895.958158417023     -0.003702223797      0.00542050      0.00081727      0.04956386      0.00941184  ~
      7    -895.958530354354     -0.000371937331      0.00241955      0.00039131      0.08719072      0.01297220  ~
      8    -895.958615648631     -0.000085294277      0.00331270      0.00055766      0.03727906      0.00699884  ~
      9    -895.958808877976     -0.000193229344      0.00151516      0.00022230      0.04237125      0.00501767  ~
     10    -895.958864161568     -0.000055283593      0.00094759      0.00011862      0.03120637      0.00396207  ~
     11    -895.958878292782     -0.000014131214      0.00044428      0.00007820      0.00934321      0.00184418  ~
  --------------------------------------------------------------------------------------------------------------- ~

	Writing optimization data to binary file.
	Final energy is   -895.9588782927817
	Final (previous) structure:
	Cartesian Geometry (in Angstrom)
	    C     1.6435557689  -0.1087160802  -0.0047050737
	    N     0.7088684860   0.5903070355   0.7913078328
	    C    -0.6921592784   0.4743097514   0.5457268242
	    C    -1.3593619194  -0.6505778745   0.8844798424
	    H     0.9681253259   0.7012809920   1.7583215811
	    C    -1.3653641302   1.6801007967   0.0089485228
	    C    -2.7370398645  -1.0454477933   0.5866435653
	    N    -1.7790389042  -2.7199988188   1.7604760080
	    C    -0.7655924889  -1.7765386697   1.6768775248
	    C    -2.9331840205  -2.2763501819   1.0980889531
	    C    -2.5571660024   2.1519006172   0.5768882256
	    C    -0.7460437809   2.4432275970  -0.9906251415
	    C    -3.1491979793   3.3223736033   0.1098544516
	    C    -1.3457600704   3.6037050842  -1.4659657151
	    C    -2.5523367129   4.0438648163  -0.9214801368
	    C     2.8647626453  -0.5189101902   0.5411719399
	    C     1.3817303850  -0.4161984784  -1.3421617447
	    C     3.8106660996  -1.1716808258  -0.2360400646
	    C     2.3331193112  -1.0673245030  -2.1233829708
	    C     3.5695625090  -1.4446465699  -1.5901680140
	    H    -1.6712401695  -3.5869302262   2.2498504535
	    O     0.3419219257  -1.8749807914   2.2256387106
	    H    -3.0090009269   1.6055487479   1.3938361264
	    H     0.2129138432   2.1287921367  -1.3777645994
	    H    -4.0662333506   3.6767581212   0.5608469893
	    H    -0.8656688285   4.1732965833  -2.2497983595
	    H    -3.0122126359   4.9525781406  -1.2854425075
	    H     3.0610569531  -0.3493463435   1.5915231254
	    H     0.4294054789  -0.1533403406  -1.7839438965
	    H     4.7376418611  -1.5011848666   0.2164495100
	    H     2.1079405583  -1.2824557438  -3.1610379771
	    N     4.5172255493  -2.1253330543  -2.3592186411
	    H    -3.4389351972  -0.4777679591   0.0036221804
	    H    -3.8039364741  -2.9055339981   1.0419222979
	    H     5.4885334523  -2.0291967241  -2.1322820625
	    H     4.3096136737  -2.3166320852  -3.3205017353
	Saving final (previous) structure.
	Cleaning optimization helper files.
			--------------------------
			 OPTKING Finished Execution 
			--------------------------

    Final optimized geometry and variables:
    Molecular point group: c1
    Full point group: C1

    Geometry (in Angstrom), charge = 0, multiplicity = 1:

    C            1.643555775346    -0.108716080665    -0.004705073747
    N            0.708868488758     0.590307037794     0.791307835900
    C           -0.692159281170     0.474309753260     0.545726826332
    C           -1.359361924781    -0.650577877027     0.884479845884
    H            0.968125329699     0.701280994792     1.758321588005
    C           -1.365364135536     1.680100803310     0.008948522814
    C           -2.737039875213    -1.045447797364     0.586643567637
    N           -1.779038911168    -2.719998829512     1.760476014898
    C           -0.765592491870    -1.776538676721     1.676877531409
    C           -2.933184032015    -2.276350190876     1.098088957393
    C           -2.557166012410     2.151900625646     0.576888227857
    C           -0.746043783843     2.443227606584    -0.990625145408
    C           -3.149197991719     3.322373616401     0.109854452053
    C           -1.345760075697     3.603705098363    -1.465965720844
    C           -2.552336722924     4.043864832167    -0.921480140462
    C            2.864762656603    -0.518910192212     0.541171942049
    C            1.381730390403    -0.416198479999    -1.342161749927
    C            3.810666114627    -1.171680830423    -0.236040065497
    C            2.333119320385    -1.067324507229    -2.123382979129
    C            3.569562523025    -1.444646575615    -1.590168020273
    H           -1.671240176114    -3.586930240294     2.249850462390
    O            0.341921927073    -1.874980798769     2.225638719328
    H           -3.009000938763     1.605548754260     1.393836131919
    H            0.212913844008     2.128792145081    -1.377764604809
    H           -4.066233366614     3.676758135641     0.560846991462
    H           -0.865668831872     4.173296599683    -2.249798368371
    H           -3.012212647719     4.952578160058    -1.285442512507
    H            3.061056965088    -0.349346344904     1.591523131674
    H            0.429405480585    -0.153340341207    -1.783943903471
    H            4.737641879763    -1.501184872451     0.216449510857
    H            2.107940566565    -1.282455748821    -3.161037989496
    N            4.517225567027    -2.125333062650    -2.359218650351
    H           -3.438935210756    -0.477767960933     0.003622180415
    H           -3.803936489098    -2.905534009559     1.041922302044
    H            5.488533473882    -2.029196732063    -2.132282070908
    H            4.309613690684    -2.316632094317    -3.320501748389

	Removing binary optimization data file.
	Cleaning optimization helper files.

    Psi4 stopped on: Thursday, 09 June 2022 06:24AM
    Psi4 wall time for execution: 0:37:21.96

*** Psi4 exiting successfully. Buy a developer a beer!
