
    -----------------------------------------------------------------------
          Psi4: An Open-Source Ab Initio Electronic Structure Package
                               Psi4 1.5 release

                         Git: Rev {HEAD} e9f4d6d 


    D. G. A. Smith, L. A. Burns, A. C. Simmonett, R. M. Parrish,
    M. C. Schieber, R. Galvelis, P. Kraus, H. Kruse, R. Di Remigio,
    A. Alenaizan, A. M. James, S. Lehtola, J. P. Misiewicz, M. Scheurer,
    R. A. Shaw, J. B. Schriber, Y. Xie, Z. L. Glick, D. A. Sirianni,
    J. S. O'Brien, J. M. Waldrop, A. Kumar, E. G. Hohenstein,
    B. P. Pritchard, B. R. Brooks, H. F. Schaefer III, A. Yu. Sokolov,
    K. Patkowski, A. E. DePrince III, U. Bozkaya, R. A. King,
    F. A. Evangelista, J. M. Turney, T. D. Crawford, C. D. Sherrill,
    J. Chem. Phys. 152(18) 184108 (2020). https://doi.org/10.1063/5.0006002

                            Additional Code Authors
    E. T. Seidl, C. L. Janssen, E. F. Valeev, M. L. Leininger,
    J. F. Gonthier, R. M. Richard, H. R. McAlexander, M. Saitow, X. Wang,
    P. Verma, M. H. Lechner, and A. Jiang

             Previous Authors, Complete List of Code Contributors,
                       and Citations for Specific Modules
    https://github.com/psi4/psi4/blob/master/codemeta.json
    https://github.com/psi4/psi4/graphs/contributors
    http://psicode.org/psi4manual/master/introduction.html#citing-psifour

    -----------------------------------------------------------------------


    Psi4 started on: Thursday, 09 June 2022 04:27AM

    Process ID: 1285167
    Host:       node74.bme.utexas.edu
    PSIDATADIR: /home/bdw2292/miniconda3/envs/newamoebamdpoltype/share/psi4
    Memory:     500.0 MiB
    Threads:    1
    
  ==> Input File <==

--------------------------------------------------------------------------
molecule { 
0 1
 C    1.747313   -0.223646    0.099160
 N    0.642082   -0.221440    1.000807
 C   -0.641448    0.259834    0.917057
 C   -1.638105   -0.605869    1.382482
 H    0.702937   -0.924324    1.761925
 C   -1.066874    1.240958   -0.132786
 C   -2.900872   -0.994493    0.801627
 N   -2.696514   -1.987238    2.815097
 C   -1.527085   -1.276377    2.681587
 C   -3.512780   -1.821780    1.691654
 C   -1.775649    2.402713    0.262090
 C   -0.957296    0.949901   -1.520328
 C   -2.277442    3.292312   -0.696766
 C   -1.456763    1.844542   -2.475453
 C   -2.111560    3.025193   -2.070883
 C    2.660099   -1.307670    0.171437
 C    1.973537    0.792071   -0.864074
 C    3.739933   -1.389100   -0.719572
 C    3.050747    0.694690   -1.757485
 C    3.958166   -0.393080   -1.704984
 H   -2.889936   -2.546697    3.633083
 O   -0.572401   -1.261083    3.489436
 H   -1.922359    2.602875    1.325506
 H   -0.487890    0.017827   -1.840839
 H   -2.798741    4.196124   -0.376452
 H   -1.339056    1.621576   -3.537196
 H   -2.495726    3.723619   -2.816600
 H    2.499089   -2.083921    0.923886
 H    1.330600    1.668880   -0.889154
 H    4.413792   -2.245642   -0.644178
 H    3.183805    1.486407   -2.498468
 N    5.046971   -0.482559   -2.614871
 H   -3.301452   -0.681189   -0.151912
 H   -4.470943   -2.318844    1.634438
 H    5.819480   -0.979096   -2.163617
 H    5.436726    0.453027   -2.756779
}
set optking { 
  frozen_dihedral = ("
    1 2 3 4
    16 1 2 3
    2 3 6 11
    18 20 32 35
  ")
}
set {
  geom_maxiter 400
  g_convergence GAU_LOOSE
  dynamic_level 1
}
memory 8.166666666666666GB
set_num_threads(2)
psi4_io.set_default_path("/scratch/bdw2292/Psi4-1_7_Index_0_GrowFragment_0-farH_in17")
for _ in range(1):
  try:
    set opt_coordinates both
    optimize('wb97x-d/6-311G')
    break
  except OptimizationConvergenceError:
    break
  else:
    try:
      set opt_coordinates cartesian
      optimize('wb97x-d/6-311G')
      break
    except OptimizationConvergenceError:
      pass
clean()
--------------------------------------------------------------------------

  Memory set to   7.606 GiB by Python driver.
  Threads set to 2 by Python driver.

Scratch directory: /scratch/bdw2292/Psi4-1_7_Index_0_GrowFragment_0-farH_in17/

Scratch directory: /scratch/bdw2292/Psi4-1_7_Index_0_GrowFragment_0-farH_in17/
gradient() will perform analytic gradient computation.

*** tstart() called on node74.bme.utexas.edu
*** at Thu Jun  9 04:27:08 2022

   => Loading Basis Set <=

    Name: 6-311G
    Role: ORBITAL
    Keyword: BASIS
    atoms 1, 3-4, 6-7, 9-20   entry C          line    92 file /home/bdw2292/miniconda3/envs/newamoebamdpoltype/share/psi4/basis/6-311g.gbs 
    atoms 2, 8, 32            entry N          line   109 file /home/bdw2292/miniconda3/envs/newamoebamdpoltype/share/psi4/basis/6-311g.gbs 
    atoms 5, 21, 23-31, 33-36 entry H          line    21 file /home/bdw2292/miniconda3/envs/newamoebamdpoltype/share/psi4/basis/6-311g.gbs 
    atoms 22                  entry O          line   126 file /home/bdw2292/miniconda3/envs/newamoebamdpoltype/share/psi4/basis/6-311g.gbs 

   => WB97X-D: Empirical Dispersion <=

    Chai and Head-Gordon Dispersion Correction
    Chai, J.-D.; Head-Gordon, M. (2010), J. Chem. Phys., 132: 6615-6620

        s6 =       1.000000


         ---------------------------------------------------------
                                   SCF
               by Justin Turney, Rob Parrish, Andy Simmonett
                          and Daniel G. A. Smith
                              RKS Reference
                        2 Threads,   7788 MiB Core
         ---------------------------------------------------------

  ==> Geometry <==

    Molecular point group: c1
    Full point group: C1

    Geometry (in Angstrom), charge = 0, multiplicity = 1:

       Center              X                  Y                   Z               Mass       
    ------------   -----------------  -----------------  -----------------  -----------------
         C            1.734230592226    -0.310422846642     0.038008189815    12.000000000000
         N            0.628999592226    -0.308216846642     0.939655189815    14.003074004430
         C           -0.654530407774     0.173057153358     0.855905189815    12.000000000000
         C           -1.651187407774    -0.692645846642     1.321330189815    12.000000000000
         H            0.689854592226    -1.011100846642     1.700773189815     1.007825032230
         C           -1.079956407774     1.154181153358    -0.193937810185    12.000000000000
         C           -2.913954407774    -1.081269846642     0.740475189815    12.000000000000
         N           -2.709596407774    -2.074014846642     2.753945189815    14.003074004430
         C           -1.540167407774    -1.363153846642     2.620435189815    12.000000000000
         C           -3.525862407774    -1.908556846642     1.630502189815    12.000000000000
         C           -1.788731407774     2.315936153358     0.200938189815    12.000000000000
         C           -0.970378407774     0.863124153358    -1.581479810185    12.000000000000
         C           -2.290524407774     3.205535153358    -0.757917810185    12.000000000000
         C           -1.469845407774     1.757765153358    -2.536604810185    12.000000000000
         C           -2.124642407774     2.938416153358    -2.132034810185    12.000000000000
         C            2.647016592226    -1.394446846642     0.110285189815    12.000000000000
         C            1.960454592226     0.705294153358    -0.925225810185    12.000000000000
         C            3.726850592226    -1.475876846642    -0.780723810185    12.000000000000
         C            3.037664592226     0.607913153358    -1.818636810185    12.000000000000
         C            3.945083592226    -0.479856846642    -1.766135810185    12.000000000000
         H           -2.903018407774    -2.633473846642     3.571931189815     1.007825032230
         O           -0.585483407774    -1.347859846642     3.428284189815    15.994914619570
         H           -1.935441407774     2.516098153358     1.264354189815     1.007825032230
         H           -0.500972407774    -0.068949846642    -1.901990810185     1.007825032230
         H           -2.811823407774     4.109347153358    -0.437603810185     1.007825032230
         H           -1.352138407774     1.534799153358    -3.598347810185     1.007825032230
         H           -2.508808407774     3.636842153358    -2.877751810185     1.007825032230
         H            2.486006592226    -2.170697846642     0.862734189815     1.007825032230
         H            1.317517592226     1.582103153358    -0.950305810185     1.007825032230
         H            4.400709592226    -2.332418846642    -0.705329810185     1.007825032230
         H            3.170722592226     1.399630153358    -2.559619810185     1.007825032230
         N            5.033888592226    -0.569335846642    -2.676022810185    14.003074004430
         H           -3.314534407774    -0.767965846642    -0.213063810185     1.007825032230
         H           -4.484025407774    -2.405620846642     1.573286189815     1.007825032230
         H            5.806397592226    -1.065872846642    -2.224768810185     1.007825032230
         H            5.423643592226     0.366250153358    -2.817930810185     1.007825032230

  Running in c1 symmetry.

  Rotational constants: A =      0.01344  B =      0.00754  C =      0.00528 [cm^-1]
  Rotational constants: A =    402.99123  B =    225.90606  C =    158.30479 [MHz]
  Nuclear repulsion = 1531.654660962979278

  Charge       = 0
  Multiplicity = 1
  Electrons    = 146
  Nalpha       = 73
  Nbeta        = 73

  ==> Algorithm <==

  SCF Algorithm Type is DF.
  DIIS enabled.
  MOM disabled.
  Fractional occupation disabled.
  Guess Type is SAD.
  Energy threshold   = 1.00e-08
  Density threshold  = 1.00e-08
  Integral threshold = 1.00e-12

  ==> Primary Basis <==

  Basis Set: 6-311G
    Blend: 6-311G
    Number of shells: 192
    Number of basis functions: 318
    Number of Cartesian functions: 318
    Spherical Harmonics?: true
    Max angular momentum: 1

  ==> DFT Potential <==

   => LibXC <=

    Version 5.1.5
    S. Lehtola, C. Steigemann, M. J. Oliveira, and M. A. Marques, SoftwareX 7, 1 (2018) (10.1016/j.softx.2017.11.002)

   => Composite Functional: WB97X-D <= 

    wB97X-D Hyb-GGA Exchange-Correlation Functional

    J.-D. Chai and M. Head-Gordon, Phys. Chem. Chem. Phys. 10, 6615 (2008) (10.1039/B810189B)

    Deriv               =              1
    GGA                 =           TRUE
    Meta                =          FALSE

    Exchange Hybrid     =           TRUE
    MP2 Hybrid          =          FALSE

   => Exchange-Correlation Functionals <=

    1.0000   wB97X-D range-separated functional

   => Exact (HF) Exchange <=

    0.7780            HF,LR [omega = 0.2000]
    0.2220               HF 

   => LibXC Density Thresholds  <==

    XC_HYB_GGA_XC_WB97X_D:  1.00E-14 

   => Molecular Quadrature <=

    Radial Scheme          =       TREUTLER
    Pruning Scheme         =           NONE
    Nuclear Scheme         =       TREUTLER

    BS radius alpha        =              1
    Pruning alpha          =              1
    Radial Points          =             75
    Spherical Points       =            302
    Total Points           =         741785
    Total Blocks           =           5266
    Max Points             =            256
    Max Functions          =            224
    Weights Tolerance      =       1.00E-15

   => Loading Basis Set <=

    Name: (6-311G AUX)
    Role: JKFIT
    Keyword: DF_BASIS_SCF
    atoms 1, 3-4, 6-7, 9-20   entry C          line   125 file /home/bdw2292/miniconda3/envs/newamoebamdpoltype/share/psi4/basis/cc-pvtz-jkfit.gbs 
    atoms 2, 8, 32            entry N          line   177 file /home/bdw2292/miniconda3/envs/newamoebamdpoltype/share/psi4/basis/cc-pvtz-jkfit.gbs 
    atoms 5, 21, 23-31, 33-36 entry H          line    51 file /home/bdw2292/miniconda3/envs/newamoebamdpoltype/share/psi4/basis/cc-pvtz-jkfit.gbs 
    atoms 22                  entry O          line   229 file /home/bdw2292/miniconda3/envs/newamoebamdpoltype/share/psi4/basis/cc-pvtz-jkfit.gbs 

  ==> Integral Setup <==

  DFHelper Memory: AOs need 3.564 GiB; user supplied 3.564 GiB. Using in-core AOs.

  ==> MemDFJK: Density-Fitted J/K Matrices <==

    J tasked:                   Yes
    K tasked:                   Yes
    wK tasked:                  Yes
    Omega:                2.000E-01
    OpenMP threads:               2
    Memory [MiB]:              3649
    Algorithm:                 Core
    Schwarz Cutoff:           1E-12
    Mask sparsity (%):      26.3953
    Fitting Condition:        1E-10

   => Auxiliary Basis Set <=

  Basis Set: (6-311G AUX)
    Blend: CC-PVTZ-JKFIT
    Number of shells: 675
    Number of basis functions: 2109
    Number of Cartesian functions: 2541
    Spherical Harmonics?: true
    Max angular momentum: 4

  Cached 50.0% of DFT collocation blocks in 1.571 [GiB].

  Minimum eigenvalue in the overlap matrix is 2.5054704882E-04.
  Reciprocal condition number of the overlap matrix is 3.7280106219E-05.
    Using symmetric orthogonalization.

  ==> Pre-Iterations <==

  SCF Guess: Superposition of Atomic Densities via on-the-fly atomic UHF (no occupation information).

   -------------------------
    Irrep   Nso     Nmo    
   -------------------------
     A        318     318 
   -------------------------
    Total     318     318
   -------------------------

  ==> Iterations <==

                           Total Energy        Delta E     RMS |[F,P]|

   @DF-RKS iter SAD:  -895.24145905776004   -8.95241e+02   0.00000e+00 
   @DF-RKS iter   1:  -895.28953505507991   -4.80760e-02   3.62902e-03 DIIS
   @DF-RKS iter   2:  -895.50891313072100   -2.19378e-01   3.20928e-03 DIIS
   @DF-RKS iter   3:  -895.90038285802609   -3.91470e-01   8.23338e-04 DIIS
   @DF-RKS iter   4:  -895.92695195177828   -2.65691e-02   2.03734e-04 DIIS
   @DF-RKS iter   5:  -895.92858927396162   -1.63732e-03   7.11715e-05 DIIS
   @DF-RKS iter   6:  -895.92884210791658   -2.52834e-04   1.31171e-05 DIIS
   @DF-RKS iter   7:  -895.92885844583498   -1.63379e-05   8.42594e-06 DIIS
   @DF-RKS iter   8:  -895.92886416509441   -5.71926e-06   2.60398e-06 DIIS
   @DF-RKS iter   9:  -895.92886593854337   -1.77345e-06   2.00583e-06 DIIS
   @DF-RKS iter  10:  -895.92886644943110   -5.10888e-07   4.63409e-07 DIIS
   @DF-RKS iter  11:  -895.92886649648153   -4.70504e-08   2.28622e-07 DIIS
   @DF-RKS iter  12:  -895.92886650335322   -6.87169e-09   7.23682e-08 DIIS
   @DF-RKS iter  13:  -895.92886650445871   -1.10549e-09   3.18192e-08 DIIS
   @DF-RKS iter  14:  -895.92886650457126   -1.12550e-10   1.36662e-08 DIIS
   @DF-RKS iter  15:  -895.92886650460764   -3.63798e-11   3.84753e-09 DIIS
  Energy and wave function converged.


  ==> Post-Iterations <==

   Electrons on quadrature grid:
      Ntotal   =  146.0001977674 ; deviation = 1.978e-04 

    Orbital Energies [Eh]
    ---------------------

    Doubly Occupied:                                                      

       1A    -19.194681     2A    -14.482022     3A    -14.461376  
       4A    -14.446449     5A    -10.377086     6A    -10.375813  
       7A    -10.351375     8A    -10.343379     9A    -10.325708  
      10A    -10.315690    11A    -10.311958    12A    -10.311034  
      13A    -10.310735    14A    -10.308991    15A    -10.308335  
      16A    -10.307051    17A    -10.302621    18A    -10.302421  
      19A    -10.301346    20A    -10.284521    21A    -10.278123  
      22A     -1.132641    23A     -1.071608    24A     -1.052875  
      25A     -1.035319    26A     -0.976745    27A     -0.952829  
      28A     -0.905464    29A     -0.870519    30A     -0.863982  
      31A     -0.858034    32A     -0.845890    33A     -0.806967  
      34A     -0.767898    35A     -0.729962    36A     -0.722494  
      37A     -0.713835    38A     -0.694243    39A     -0.679482  
      40A     -0.663513    41A     -0.639881    42A     -0.617664  
      43A     -0.604485    44A     -0.596731    45A     -0.590441  
      46A     -0.572297    47A     -0.559384    48A     -0.552050  
      49A     -0.539413    50A     -0.526281    51A     -0.525204  
      52A     -0.519942    53A     -0.516718    54A     -0.512140  
      55A     -0.506461    56A     -0.501034    57A     -0.491716  
      58A     -0.482255    59A     -0.471265    60A     -0.466335  
      61A     -0.456158    62A     -0.442376    63A     -0.438620  
      64A     -0.434423    65A     -0.398037    66A     -0.392603  
      67A     -0.348298    68A     -0.344398    69A     -0.336145  
      70A     -0.332278    71A     -0.321402    72A     -0.286699  
      73A     -0.236607  

    Virtual:                                                              

      74A     -0.010142    75A      0.043246    76A      0.046707  
      77A      0.059896    78A      0.079808    79A      0.114002  
      80A      0.118715    81A      0.132914    82A      0.134872  
      83A      0.138326    84A      0.143442    85A      0.154912  
      86A      0.160262    87A      0.166821    88A      0.174086  
      89A      0.179823    90A      0.186721    91A      0.192722  
      92A      0.198909    93A      0.202011    94A      0.212628  
      95A      0.213430    96A      0.229198    97A      0.235938  
      98A      0.264317    99A      0.283854   100A      0.299979  
     101A      0.303470   102A      0.315025   103A      0.330710  
     104A      0.336382   105A      0.340194   106A      0.345105  
     107A      0.347803   108A      0.356696   109A      0.365463  
     110A      0.367539   111A      0.380746   112A      0.393065  
     113A      0.406480   114A      0.412633   115A      0.418892  
     116A      0.423651   117A      0.433143   118A      0.441014  
     119A      0.447038   120A      0.456410   121A      0.467702  
     122A      0.471286   123A      0.476481   124A      0.479616  
     125A      0.483424   126A      0.486472   127A      0.489048  
     128A      0.492365   129A      0.503377   130A      0.505788  
     131A      0.512875   132A      0.514482   133A      0.515788  
     134A      0.522835   135A      0.527377   136A      0.530423  
     137A      0.543561   138A      0.547704   139A      0.551258  
     140A      0.560493   141A      0.566131   142A      0.574385  
     143A      0.576412   144A      0.587553   145A      0.593704  
     146A      0.609114   147A      0.617963   148A      0.623616  
     149A      0.631087   150A      0.633781   151A      0.644730  
     152A      0.656160   153A      0.669160   154A      0.671080  
     155A      0.674269   156A      0.680326   157A      0.685462  
     158A      0.689646   159A      0.697367   160A      0.706493  
     161A      0.708336   162A      0.721692   163A      0.722357  
     164A      0.727535   165A      0.731488   166A      0.735448  
     167A      0.741060   168A      0.747760   169A      0.752226  
     170A      0.764493   171A      0.768920   172A      0.773648  
     173A      0.777450   174A      0.788419   175A      0.802811  
     176A      0.814222   177A      0.831132   178A      0.836982  
     179A      0.839315   180A      0.847251   181A      0.860201  
     182A      0.865167   183A      0.874370   184A      0.881702  
     185A      0.886874   186A      0.898219   187A      0.907895  
     188A      0.919109   189A      0.923583   190A      0.942939  
     191A      0.944031   192A      0.957100   193A      0.960670  
     194A      0.978646   195A      0.993543   196A      1.008399  
     197A      1.015929   198A      1.033100   199A      1.042130  
     200A      1.049193   201A      1.064992   202A      1.067137  
     203A      1.088609   204A      1.115653   205A      1.123435  
     206A      1.142943   207A      1.161035   208A      1.177857  
     209A      1.184290   210A      1.197598   211A      1.268801  
     212A      1.313624   213A      1.339384   214A      1.355187  
     215A      1.380941   216A      1.464735   217A      1.476244  
     218A      1.560981   219A      1.837081   220A      2.278369  
     221A      2.301131   222A      2.326919   223A      2.342727  
     224A      2.345531   225A      2.356414   226A      2.385932  
     227A      2.386383   228A      2.402128   229A      2.415702  
     230A      2.448150   231A      2.464957   232A      2.479155  
     233A      2.570747   234A      2.594174   235A      2.624304  
     236A      2.637380   237A      2.644187   238A      2.660328  
     239A      2.668498   240A      2.690063   241A      2.695667  
     242A      2.725173   243A      2.748451   244A      2.771997  
     245A      2.779619   246A      2.789019   247A      2.799941  
     248A      2.817260   249A      2.825199   250A      2.835967  
     251A      2.851585   252A      2.870648   253A      2.885953  
     254A      2.892343   255A      2.903209   256A      2.927575  
     257A      2.938794   258A      2.959328   259A      2.966769  
     260A      3.005477   261A      3.005691   262A      3.035082  
     263A      3.087815   264A      3.099635   265A      3.143439  
     266A      3.148221   267A      3.163911   268A      3.175584  
     269A      3.203410   270A      3.214321   271A      3.223768  
     272A      3.243047   273A      3.257987   274A      3.287935  
     275A      3.291534   276A      3.306045   277A      3.315328  
     278A      3.321965   279A      3.335218   280A      3.355492  
     281A      3.363975   282A      3.394542   283A      3.444774  
     284A      3.500769   285A      3.542286   286A      3.825122  
     287A      3.855940   288A      3.903377   289A      4.052137  
     290A      4.062675   291A      4.120857   292A      4.240701  
     293A      4.270804   294A      4.302482   295A      5.017592  
     296A      5.118802   297A      5.135197   298A     23.230515  
     299A     23.267291   300A     23.346136   301A     23.467374  
     302A     23.477222   303A     23.493256   304A     23.506491  
     305A     23.518057   306A     23.609629   307A     23.698861  
     308A     23.724731   309A     23.751095   310A     23.780343  
     311A     23.793386   312A     23.878477   313A     23.974395  
     314A     23.979226   315A     35.533695   316A     35.538288  
     317A     35.571990   318A     50.093172  

    Final Occupation by Irrep:
              A 
    DOCC [    73 ]

  @DF-RKS Final Energy:  -895.92886650460764

   => Energetics <=

    Nuclear Repulsion Energy =           1531.6546609629792783
    One-Electron Energy =               -4255.8173361617682531
    Two-Electron Energy =                1915.8645307961714934
    DFT Exchange-Correlation Energy =     -87.6049984647563491
    Empirical Dispersion Energy =          -0.0257236372340783
    VV10 Nonlocal Energy =                  0.0000000000000000
    Total Energy =                       -895.9288665046076403

Computation Completed


Properties will be evaluated at   0.000000,   0.000000,   0.000000 [a0]

Properties computed using the SCF density matrix

  Nuclear Dipole Moment: [e a0]
     X:     3.2548      Y:     2.5229      Z:    -8.7177

  Electronic Dipole Moment: [e a0]
     X:    -3.1078      Y:    -2.0491      Z:     7.5486

  Dipole Moment: [e a0]
     X:     0.1471      Y:     0.4738      Z:    -1.1691     Total:     1.2700

  Dipole Moment: [D]
     X:     0.3738      Y:     1.2043      Z:    -2.9716     Total:     3.2281


*** tstop() called on node74.bme.utexas.edu at Thu Jun  9 04:29:45 2022
Module time:
	user time   =     303.88 seconds =       5.06 minutes
	system time =       5.69 seconds =       0.09 minutes
	total time  =        157 seconds =       2.62 minutes
Total time:
	user time   =     303.88 seconds =       5.06 minutes
	system time =       5.69 seconds =       0.09 minutes
	total time  =        157 seconds =       2.62 minutes

*** tstart() called on node74.bme.utexas.edu
*** at Thu Jun  9 04:29:45 2022


         ------------------------------------------------------------
                                   SCF GRAD                          
                          Rob Parrish, Justin Turney,                
                       Andy Simmonett, and Alex Sokolov              
         ------------------------------------------------------------

  ==> Geometry <==

    Molecular point group: c1
    Full point group: C1

    Geometry (in Angstrom), charge = 0, multiplicity = 1:

       Center              X                  Y                   Z               Mass       
    ------------   -----------------  -----------------  -----------------  -----------------
         C            1.734230592226    -0.310422846642     0.038008189815    12.000000000000
         N            0.628999592226    -0.308216846642     0.939655189815    14.003074004430
         C           -0.654530407774     0.173057153358     0.855905189815    12.000000000000
         C           -1.651187407774    -0.692645846642     1.321330189815    12.000000000000
         H            0.689854592226    -1.011100846642     1.700773189815     1.007825032230
         C           -1.079956407774     1.154181153358    -0.193937810185    12.000000000000
         C           -2.913954407774    -1.081269846642     0.740475189815    12.000000000000
         N           -2.709596407774    -2.074014846642     2.753945189815    14.003074004430
         C           -1.540167407774    -1.363153846642     2.620435189815    12.000000000000
         C           -3.525862407774    -1.908556846642     1.630502189815    12.000000000000
         C           -1.788731407774     2.315936153358     0.200938189815    12.000000000000
         C           -0.970378407774     0.863124153358    -1.581479810185    12.000000000000
         C           -2.290524407774     3.205535153358    -0.757917810185    12.000000000000
         C           -1.469845407774     1.757765153358    -2.536604810185    12.000000000000
         C           -2.124642407774     2.938416153358    -2.132034810185    12.000000000000
         C            2.647016592226    -1.394446846642     0.110285189815    12.000000000000
         C            1.960454592226     0.705294153358    -0.925225810185    12.000000000000
         C            3.726850592226    -1.475876846642    -0.780723810185    12.000000000000
         C            3.037664592226     0.607913153358    -1.818636810185    12.000000000000
         C            3.945083592226    -0.479856846642    -1.766135810185    12.000000000000
         H           -2.903018407774    -2.633473846642     3.571931189815     1.007825032230
         O           -0.585483407774    -1.347859846642     3.428284189815    15.994914619570
         H           -1.935441407774     2.516098153358     1.264354189815     1.007825032230
         H           -0.500972407774    -0.068949846642    -1.901990810185     1.007825032230
         H           -2.811823407774     4.109347153358    -0.437603810185     1.007825032230
         H           -1.352138407774     1.534799153358    -3.598347810185     1.007825032230
         H           -2.508808407774     3.636842153358    -2.877751810185     1.007825032230
         H            2.486006592226    -2.170697846642     0.862734189815     1.007825032230
         H            1.317517592226     1.582103153358    -0.950305810185     1.007825032230
         H            4.400709592226    -2.332418846642    -0.705329810185     1.007825032230
         H            3.170722592226     1.399630153358    -2.559619810185     1.007825032230
         N            5.033888592226    -0.569335846642    -2.676022810185    14.003074004430
         H           -3.314534407774    -0.767965846642    -0.213063810185     1.007825032230
         H           -4.484025407774    -2.405620846642     1.573286189815     1.007825032230
         H            5.806397592226    -1.065872846642    -2.224768810185     1.007825032230
         H            5.423643592226     0.366250153358    -2.817930810185     1.007825032230

  Nuclear repulsion = 1531.654660962979278

  ==> Basis Set <==

  Basis Set: 6-311G
    Blend: 6-311G
    Number of shells: 192
    Number of basis functions: 318
    Number of Cartesian functions: 318
    Spherical Harmonics?: true
    Max angular momentum: 1

  ==> DFJKGrad: Density-Fitted SCF Gradients <==

    Gradient:                    1
    J tasked:                  Yes
    K tasked:                  Yes
    wK tasked:                 Yes
    Omega:               2.000E-01
    OpenMP threads:              2
    Integrals threads:           2
    Memory [MiB]:             5841
    Schwarz Cutoff:          1E-12
    Fitting Condition:       1E-10

   => Auxiliary Basis Set <=

  Basis Set: (6-311G AUX)
    Blend: CC-PVTZ-JKFIT
    Number of shells: 675
    Number of basis functions: 2109
    Number of Cartesian functions: 2541
    Spherical Harmonics?: true
    Max angular momentum: 4

  ==> DFT Potential <==

   => LibXC <=

    Version 5.1.5
    S. Lehtola, C. Steigemann, M. J. Oliveira, and M. A. Marques, SoftwareX 7, 1 (2018) (10.1016/j.softx.2017.11.002)

   => Composite Functional: WB97X-D <= 

    wB97X-D Hyb-GGA Exchange-Correlation Functional

    J.-D. Chai and M. Head-Gordon, Phys. Chem. Chem. Phys. 10, 6615 (2008) (10.1039/B810189B)

    Deriv               =              1
    GGA                 =           TRUE
    Meta                =          FALSE

    Exchange Hybrid     =           TRUE
    MP2 Hybrid          =          FALSE

   => Exchange-Correlation Functionals <=

    1.0000   wB97X-D range-separated functional

   => Exact (HF) Exchange <=

    0.7780            HF,LR [omega = 0.2000]
    0.2220               HF 

   => LibXC Density Thresholds  <==

    XC_HYB_GGA_XC_WB97X_D:  1.00E-14 

   => Molecular Quadrature <=

    Radial Scheme          =       TREUTLER
    Pruning Scheme         =           NONE
    Nuclear Scheme         =       TREUTLER

    BS radius alpha        =              1
    Pruning alpha          =              1
    Radial Points          =             75
    Spherical Points       =            302
    Total Points           =         741785
    Total Blocks           =           5266
    Max Points             =            256
    Max Functions          =            224
    Weights Tolerance      =       1.00E-15


  -Total Gradient:
     Atom            X                  Y                   Z
    ------   -----------------  -----------------  -----------------
       1       -0.004828954293    -0.011494396946     0.002518003240
       2       -0.011978456786     0.002350261681    -0.026602040430
       3        0.006975110013     0.038891131947     0.051666988740
       4       -0.002705305671    -0.018520741671    -0.024162343867
       5       -0.002606954960    -0.011663839325     0.012679158997
       6        0.010896974003    -0.006646821257     0.011047936416
       7        0.014404311962    -0.012902408138    -0.007780783783
       8        0.005387731710     0.004598734795    -0.013035891961
       9       -0.002049921593     0.007777142660     0.021246135659
      10        0.005163378185     0.001530571042     0.004450578298
      11       -0.007972234489     0.006325112630     0.002363404338
      12        0.002285773282    -0.003129855558    -0.008119489820
      13       -0.001823873085     0.001696423528     0.007989427796
      14        0.002539604097    -0.003505667141    -0.004343793788
      15       -0.003050245535     0.004219376132    -0.007469261647
      16        0.006319091875    -0.009203892360     0.005398286895
      17       -0.008074409572     0.006677564881    -0.006512323820
      18        0.004017205932    -0.004940118896     0.001544560135
      19        0.000423975767     0.006120010937    -0.004082062771
      20        0.017914927769     0.000869434525    -0.011226634476
      21        0.000311250394    -0.003237383549     0.007017132930
      22       -0.010444200692     0.000853699533    -0.009378970638
      23       -0.001456426008     0.001689392651     0.006753137193
      24        0.001901737818    -0.006827833000    -0.002406913202
      25       -0.002792591958     0.006028723648     0.001935985611
      26        0.001561278328    -0.000831821798    -0.006511649641
      27       -0.002295408430     0.004574547125    -0.004797264950
      28       -0.002505454815    -0.004006335280     0.005689801002
      29       -0.005660657397     0.005933718088     0.001049174785
      30        0.002867333342    -0.005811267519     0.001472104187
      31       -0.000905849251     0.005284164994    -0.004172113032
      32       -0.018861832707    -0.016118498083    -0.025998237959
      33       -0.002423043384     0.000363376430    -0.002936585715
      34       -0.004727612784    -0.000028737420     0.001781471556
      35        0.006581159579     0.009522882535     0.009921016216
      36        0.008057767784     0.003627678821     0.012919626652


*** tstop() called on node74.bme.utexas.edu at Thu Jun  9 04:30:53 2022
Module time:
	user time   =     128.50 seconds =       2.14 minutes
	system time =       1.84 seconds =       0.03 minutes
	total time  =         68 seconds =       1.13 minutes
Total time:
	user time   =     432.39 seconds =       7.21 minutes
	system time =       7.53 seconds =       0.13 minutes
	total time  =        225 seconds =       3.75 minutes

			-----------------------------------------
			 OPTKING 2.0: for geometry optimizations 
			  - R.A. King,  Bethel University        
			-----------------------------------------
	At level 1: Red. Int., RFO, no backsteps, dynamic trust

	Internal coordinates to be generated automatically.
	Detected frag 1 with atoms:  1 2 3 4 5 6 7 8 9 10 11 12 13 14 15 16 17 18 19 20
	 21 22 23 24 25 26 27 28 29 30 31 32 33 34 35 36
	---Fragment 1 Bond Connectivity---
	 1 : 2 16 17
	 2 : 1 3 5
	 3 : 2 4 6
	 4 : 3 7 9
	 5 : 2
	 6 : 3 11 12
	 7 : 4 10 33
	 8 : 9 10 21
	 9 : 4 8 22
	 10 : 7 8 34
	 11 : 6 13 23
	 12 : 6 14 24
	 13 : 11 15 25
	 14 : 12 15 26
	 15 : 13 14 27
	 16 : 1 18 28
	 17 : 1 19 29
	 18 : 16 20 30
	 19 : 17 20 31
	 20 : 18 19 32
	 21 : 8
	 22 : 9
	 23 : 11
	 24 : 12
	 25 : 13
	 26 : 14
	 27 : 15
	 28 : 16
	 29 : 17
	 30 : 18
	 31 : 19
	 32 : 20 35 36
	 33 : 7
	 34 : 10
	 35 : 32
	 36 : 32

	Assuming in current code that numbering for constraints corresponds to unified fragment.
	Frozen dihedral atom list: 
	     1     2     3     4
	    16     1     2     3
	     2     3     6    11
	    18    20    32    35
	---Fragment 1 Geometry and Gradient---
	 C           3.2772208577       -0.5866141632        0.0718250693
	 N           1.1886369623       -0.5824454274        1.7756909611
	 C          -1.2368832115        0.3270306239        1.6174263981
	 C          -3.1202919825       -1.3089109521        2.4969521800
	 H           1.3036362457       -1.9107036854        3.2139955303
	 C          -2.0408218381        2.1810862790       -0.3664893466
	 C          -5.5065757728       -2.0433038779        1.3992953114
	 N          -5.1203951212       -3.9193200403        5.2042021733
	 C          -2.9104945880       -2.5759874370        4.9519048383
	 C          -6.6629143067       -3.6066497350        3.0812025857
	 C          -3.3802124727        4.3764850539        0.3797181469
	 C          -1.8337494288        1.6310682621       -2.9885637142
	 C          -4.3284638144        6.0575835254       -1.4322570869
	 C          -2.7776052675        3.3216947327       -4.7934883798
	 C          -4.0149922652        5.5528017725       -4.0289618812
	 C           5.0021364088       -2.6351226367        0.2084088044
	 C           3.7047222607        1.3328127877       -1.7484233855
	 C           7.0427269298       -2.7890030351       -1.4753541809
	 C           5.7403541403        1.1487893679       -3.4367254929
	 C           7.4551275313       -0.9067980196       -3.3375129816
	 H          -5.4859097279       -4.9765443287        6.7499716877
	 O          -1.1064032917       -2.5470859657        6.4785181990
	 H          -3.6574541926        4.7547364146        2.3892831443
	 H          -0.9467006471       -0.1302963265       -3.5942417244
	 H          -5.3135761538        7.7655406743       -0.8269513527
	 H          -2.5551712744        2.9003500574       -6.7998918654
	 H          -4.7409607919        6.8726356314       -5.4381627783
	 H           4.6978716054       -4.1020244313        1.6303313378
	 H           2.4897474148        2.9897416621       -1.7958177167
	 H           8.3161358870       -4.4076328300       -1.3328801694
	 H           5.9917973191        2.6449176668       -4.8369804265
	 N           9.5126707854       -1.0758888236       -5.0569502167
	 H          -6.2635622641       -1.4512451239       -0.4026322485
	 H          -8.4735799603       -4.5459645618        2.9730800157
	 H          10.9725012248       -2.0142077647       -4.2042037437
	 H          10.2492009914        0.6921124833       -5.3251174717
	            -0.0048289543       -0.0114943969        0.0025180032
	            -0.0119784568        0.0023502617       -0.0266020404
	             0.0069751100        0.0388911319        0.0516669887
	            -0.0027053057       -0.0185207417       -0.0241623439
	            -0.0026069550       -0.0116638393        0.0126791590
	             0.0108969740       -0.0066468213        0.0110479364
	             0.0144043120       -0.0129024081       -0.0077807838
	             0.0053877317        0.0045987348       -0.0130358920
	            -0.0020499216        0.0077771427        0.0212461357
	             0.0051633782        0.0015305710        0.0044505783
	            -0.0079722345        0.0063251126        0.0023634043
	             0.0022857733       -0.0031298556       -0.0081194898
	            -0.0018238731        0.0016964235        0.0079894278
	             0.0025396041       -0.0035056671       -0.0043437938
	            -0.0030502455        0.0042193761       -0.0074692616
	             0.0063190919       -0.0092038924        0.0053982869
	            -0.0080744096        0.0066775649       -0.0065123238
	             0.0040172059       -0.0049401189        0.0015445601
	             0.0004239758        0.0061200109       -0.0040820628
	             0.0179149278        0.0008694345       -0.0112266345
	             0.0003112504       -0.0032373835        0.0070171329
	            -0.0104442007        0.0008536995       -0.0093789706
	            -0.0014564260        0.0016893927        0.0067531372
	             0.0019017378       -0.0068278330       -0.0024069132
	            -0.0027925920        0.0060287236        0.0019359856
	             0.0015612783       -0.0008318218       -0.0065116496
	            -0.0022954084        0.0045745471       -0.0047972650
	            -0.0025054548       -0.0040063353        0.0056898010
	            -0.0056606574        0.0059337181        0.0010491748
	             0.0028673333       -0.0058112675        0.0014721042
	            -0.0009058493        0.0052841650       -0.0041721130
	            -0.0188618327       -0.0161184981       -0.0259982380
	            -0.0024230434        0.0003633764       -0.0029365857
	            -0.0047276128       -0.0000287374        0.0017814716
	             0.0065811596        0.0095228825        0.0099210162
	             0.0080577678        0.0036276788        0.0129196267

	Previous optimization step data not found.  Starting new optimization.

	---Fragment 1 Intrafragment Coordinates---
	 - Coordinate -           - BOHR/RAD -       - ANG/DEG -
	 H(5,22)          =         4.107357	       2.173520
	 R(1,2)           =         2.695433	       1.426362
	 R(1,16)          =         2.681488	       1.418982
	 R(1,17)          =         2.679601	       1.417984
	 R(2,3)           =         2.595254	       1.373349
	 R(2,5)           =         1.961177	       1.037810
	 R(3,4)           =         2.645203	       1.399781
	 R(3,6)           =         2.831918	       1.498587
	 R(4,7)           =         2.727368	       1.443261
	 R(4,9)           =         2.770612	       1.466145
	 R(6,11)          =         2.677792	       1.417026
	 R(6,12)          =         2.687131	       1.421968
	 R(7,10)          =         2.570988	       1.360508
	 R(7,33)          =         2.042181	       1.080676
	 R(8,9)           =         2.598434	       1.375032
	 R(8,10)          =         2.642774	       1.398496
	 R(8,21)          =         1.908069	       1.009707
	 R(9,22)          =         2.363499	       1.250710
	 R(10,34)         =         2.042673	       1.080936
	 R(11,13)         =         2.647362	       1.400924
	 R(11,23)         =         2.063562	       1.091990
	 R(12,14)         =         2.647043	       1.400755
	 R(12,24)         =         2.063033	       1.091710
	 R(13,15)         =         2.663821	       1.409634
	 R(13,25)         =         2.062513	       1.091435
	 R(14,15)         =         2.663356	       1.409387
	 R(14,26)         =         2.062199	       1.091269
	 R(15,27)         =         2.062726	       1.091548
	 R(16,18)         =         2.650047	       1.402344
	 R(16,28)         =         2.065488	       1.093009
	 R(17,19)         =         2.651042	       1.402871
	 R(17,29)         =         2.055194	       1.087562
	 R(18,20)         =         2.679628	       1.417998
	 R(18,30)         =         2.064420	       1.092444
	 R(19,20)         =         2.678755	       1.417536
	 R(19,31)         =         2.064543	       1.092509
	 R(20,32)         =         2.686734	       1.421758
	 R(32,35)         =         1.933578	       1.023205
	 R(32,36)         =         1.933965	       1.023410
	 B(1,2,3)         =         2.327016	     133.328193
	 B(1,2,5)         =         2.001064	     114.652498
	 B(1,16,18)       =         2.102876	     120.485921
	 B(1,16,28)       =         2.074710	     118.872146
	 B(1,17,19)       =         2.100628	     120.357134
	 B(1,17,29)       =         2.093068	     119.923979
	 B(2,1,16)        =         2.057174	     117.867364
	 B(2,1,17)        =         2.155459	     123.498699
	 B(2,3,4)         =         2.013557	     115.368316
	 B(2,3,6)         =         2.138232	     122.511680
	 B(3,2,5)         =         1.914387	     109.686293
	 B(3,4,7)         =         2.285877	     130.971122
	 B(3,4,9)         =         2.121795	     121.569888
	 B(3,6,11)        =         2.075482	     118.916376
	 B(3,6,12)        =         2.126699	     121.850891
	 B(4,3,6)         =         2.021621	     115.830341
	 B(4,7,10)        =         1.869171	     107.095600
	 B(4,7,33)        =         2.216007	     126.967832
	 B(4,9,8)         =         1.831812	     104.955089
	 B(4,9,22)        =         2.245326	     128.647726
	 B(6,11,13)       =         2.104869	     120.600124
	 B(6,11,23)       =         2.081571	     119.265235
	 B(6,12,14)       =         2.102670	     120.474108
	 B(6,12,24)       =         2.087904	     119.628081
	 B(7,4,9)         =         1.875192	     107.440568
	 B(7,10,8)        =         1.912348	     109.569445
	 B(7,10,34)       =         2.270083	     130.066172
	 B(8,9,22)        =         2.205309	     126.354876
	 B(8,10,34)       =         2.100754	     120.364332
	 B(9,8,10)        =         1.936103	     110.930554
	 B(9,8,21)        =         2.127071	     121.872181
	 B(10,7,33)       =         2.197894	     125.930062
	 B(10,8,21)       =         2.219976	     127.195272
	 B(11,6,12)       =         2.069487	     118.572860
	 B(11,13,15)      =         2.099852	     120.312682
	 B(11,13,25)      =         2.089848	     119.739470
	 B(12,14,15)      =         2.100131	     120.328641
	 B(12,14,26)      =         2.088010	     119.634179
	 B(13,11,23)      =         2.096724	     120.133440
	 B(13,15,14)      =         2.086601	     119.553435
	 B(13,15,27)      =         2.098206	     120.218333
	 B(14,12,24)      =         2.092574	     119.895671
	 B(14,15,27)      =         2.098338	     120.225890
	 B(15,13,25)      =         2.093485	     119.947845
	 B(15,14,26)      =         2.095040	     120.036938
	 B(16,1,17)       =         2.070535	     118.632902
	 B(16,18,20)      =         2.116782	     121.282657
	 B(16,18,30)      =         2.067642	     118.467164
	 B(17,19,20)      =         2.119073	     121.413954
	 B(17,19,31)      =         2.065929	     118.368996
	 B(18,16,28)      =         2.105509	     120.636777
	 B(18,20,19)      =         2.055818	     117.789695
	 B(18,20,32)      =         2.115765	     121.224430
	 B(19,17,29)      =         2.088880	     119.684006
	 B(19,20,32)      =         2.111594	     120.985413
	 B(20,18,30)      =         2.098744	     120.249177
	 B(20,19,31)      =         2.098152	     120.215260
	 B(20,32,35)      =         1.903376	     109.055433
	 B(20,32,36)      =         1.899544	     108.835863
	 B(35,32,36)      =         1.789798	     102.547853
	*D(1,2,3,4)       =         2.360889	     135.268973
	 D(1,2,3,6)       =        -0.273339	     -15.661160
	 D(1,16,18,20)    =         0.009444	       0.541086
	 D(1,16,18,30)    =        -3.125806	    -179.095473
	 D(1,17,19,20)    =        -0.028094	      -1.609657
	 D(1,17,19,31)    =         3.121978	     178.876174
	 D(2,1,16,18)     =         3.102904	     177.783324
	 D(2,1,16,28)     =        -0.024364	      -1.395964
	 D(2,1,17,19)     =        -3.093388	    -177.238049
	 D(2,1,17,29)     =         0.085813	       4.916708
	 D(2,3,4,7)       =        -2.324702	    -133.195631
	 D(2,3,4,9)       =         0.847773	      48.573818
	*D(2,3,6,11)      =        -2.275009	    -130.348423
	 D(2,3,6,12)      =         1.031453	      59.097912
	*D(3,2,1,16)      =        -2.600717	    -149.010098
	 D(3,2,1,17)      =         0.534318	      30.614156
	 D(3,4,7,10)      =        -3.100512	    -177.646260
	 D(3,4,7,33)      =         0.025563	       1.464639
	 D(3,4,9,8)       =         3.100612	     177.652003
	 D(3,4,9,22)      =        -0.080681	      -4.622653
	 D(3,6,11,13)     =        -3.057660	    -175.191009
	 D(3,6,11,23)     =         0.090881	       5.207121
	 D(3,6,12,14)     =         3.056388	     175.118149
	 D(3,6,12,24)     =        -0.075908	      -4.349218
	 D(4,3,2,5)       =        -0.452081	     -25.902328
	 D(4,3,6,11)      =         1.376102	      78.844811
	 D(4,3,6,12)      =        -1.600621	     -91.708854
	 D(4,7,10,8)      =        -0.005206	      -0.298257
	 D(4,7,10,34)     =         3.134920	     179.617713
	 D(4,9,8,10)      =         0.013762	       0.788529
	 D(4,9,8,21)      =        -3.136188	    -179.690358
	 D(5,2,1,16)      =         0.199960	      11.456844
	 D(5,2,1,17)      =        -2.948191	    -168.918902
	 D(5,2,3,6)       =        -3.086309	    -176.832461
	 D(6,3,4,7)       =         0.344281	      19.725842
	 D(6,3,4,9)       =        -2.766429	    -158.504709
	 D(6,11,13,15)    =         0.027305	       1.564471
	 D(6,11,13,25)    =        -3.113961	    -178.416818
	 D(6,12,14,15)    =        -0.034590	      -1.981850
	 D(6,12,14,26)    =         3.110118	     178.196611
	 D(7,4,9,8)       =        -0.016540	      -0.947697
	 D(7,4,9,22)      =         3.085352	     176.777647
	 D(7,10,8,9)      =        -0.005744	      -0.329086
	 D(7,10,8,21)     =        -3.138426	    -179.818547
	 D(8,10,7,33)     =        -3.131487	    -179.420971
	 D(9,4,7,10)      =         0.013501	       0.773571
	 D(9,4,7,33)      =         3.139576	     179.884470
	 D(9,8,10,34)     =         3.137150	     179.745446
	 D(10,8,9,22)     =        -3.089331	    -177.005653
	 D(11,6,12,14)    =         0.079119	       4.533188
	 D(11,6,12,24)    =        -3.053177	    -174.934178
	 D(11,13,15,14)   =         0.018758	       1.074776
	 D(11,13,15,27)   =        -3.132529	    -179.480671
	 D(12,6,11,13)    =        -0.075486	      -4.325024
	 D(12,6,11,23)    =         3.073055	     176.073107
	 D(12,14,15,13)   =        -0.015031	      -0.861210
	 D(12,14,15,27)   =         3.136257	     179.694281
	 D(13,15,14,26)   =         3.123434	     178.959608
	 D(14,15,13,25)   =        -3.123162	    -178.943974
	 D(15,13,11,23)   =        -3.121296	    -178.837115
	 D(15,14,12,24)   =         3.097682	     177.484093
	 D(16,1,17,19)    =         0.041600	       2.383498
	 D(16,1,17,29)    =        -3.062385	    -175.461745
	 D(16,18,20,19)   =         0.004903	       0.280896
	 D(16,18,20,32)   =        -3.132417	    -179.474283
	 D(17,1,16,18)    =        -0.032458	      -1.859685
	 D(17,1,16,28)    =         3.123459	     178.961026
	 D(17,19,20,18)   =         0.004422	       0.253364
	 D(17,19,20,32)   =        -3.141433	    -179.990841
	 D(18,20,19,31)   =         3.137381	     179.758670
	*D(18,20,32,35)   =        -0.522609	     -29.943277
	 D(18,20,32,36)   =        -2.462406	    -141.085489
	 D(19,20,18,30)   =         3.140040	     179.911039
	 D(19,20,32,35)   =         2.623393	     150.309359
	 D(19,20,32,36)   =         0.683596	      39.167146
	 D(20,18,16,28)   =         3.136458	     179.705794
	 D(20,19,17,29)   =         3.075981	     176.240752
	 D(21,8,9,22)     =         0.043903	       2.515460
	 D(21,8,10,34)    =         0.004468	       0.255985
	 D(23,11,13,25)   =         0.020623	       1.181596
	 D(24,12,14,26)   =        -0.040796	      -2.337446
	 D(25,13,15,27)   =         0.008737	       0.500578
	 D(26,14,15,27)   =        -0.008463	      -0.484901
	 D(28,16,18,30)   =         0.001208	       0.069236
	 D(29,17,19,31)   =        -0.057132	      -3.273417
	 D(30,18,20,32)   =         0.002720	       0.155860
	 D(31,19,20,32)   =        -0.008474	      -0.485535
	 D(33,7,10,34)    =         0.008639	       0.494999
	 R(1,12)          =         6.356580	       3.363757
	 R(2,22)          =         5.589598	       2.957888
	 R(6,17)          =         5.969974	       3.159174
	 R(7,11)          =         6.839199	       3.619148
	 R(7,12)          =         6.800292	       3.598560
	 R(12,17)         =         5.683447	       3.007551

	Current energy   :      -895.9288665046

	Generating empirical Hessian (Schlegel '84) for each fragment.
	Taking RFO optimization step.
	Going to follow RFO solution 1.
	Using RFO vector 1.

	Determining step-restricting scale parameter for RS-RFO.
	Maximum step size allowed    0.50000

	 Iter      |step|        alpha        rfo_root  
	------------------------------------------------
	    0     0.65766       1.00000           1
	    1     0.54216       1.59673           1
	    2     0.50455       1.89053           1
	    3     0.50006       1.93026           1
	    4     0.50000       1.93083           1
	------------------------------------------------
	Norm of target step-size    0.50000
	Projected energy change by RFO approximation:        -0.0196385915

	Back-transformation to cartesian coordinates...
	Successfully converged to displaced geometry.

	Back-transformation to cartesian coordinates to adjust frozen coordinates...
	Successfully converged to displaced geometry.

	--- Internal Coordinate Step in ANG or DEG, aJ/ANG or AJ/DEG ---
	 ---------------------------------------------------------------------------
	   Coordinate                Previous        Force       Change         New 
	   ----------                --------       ------       ------       ------
	    1 H(5,22)         =      2.173520     0.002962    -0.013427     2.160093
	    2 R(1,2)          =      1.426362    -0.107054    -0.009424     1.416938
	    3 R(1,16)         =      1.418982    -0.149516     0.031554     1.450536
	    4 R(1,17)         =      1.417984    -0.139352     0.020386     1.438370
	    5 R(2,3)          =      1.373349     0.024682     0.035525     1.408875
	    6 R(2,5)          =      1.037810    -0.138521     0.015097     1.052907
	    7 R(3,4)          =      1.399781     0.033474     0.023845     1.423626
	    8 R(3,6)          =      1.498587     0.025004     0.064109     1.562696
	    9 R(4,7)          =      1.443261     0.063685     0.051492     1.494753
	   10 R(4,9)          =      1.466145    -0.008927     0.057330     1.523475
	   11 R(6,11)         =      1.417026    -0.086466     0.037184     1.454211
	   12 R(6,12)         =      1.421968    -0.150318     0.020647     1.442615
	   13 R(7,10)         =      1.360508    -0.027417     0.018359     1.378867
	   14 R(7,33)         =      1.080676    -0.029603     0.040503     1.121179
	   15 R(8,9)          =      1.375032     0.065939     0.024217     1.399248
	   16 R(8,10)         =      1.398496     0.018771     0.059937     1.458432
	   17 R(8,21)         =      1.009707    -0.061195     0.018269     1.027975
	   18 R(9,22)         =      1.250710     0.116296     0.057434     1.308144
	   19 R(10,34)        =      1.080936    -0.033958     0.012551     1.093487
	   20 R(11,13)        =      1.400924    -0.071656     0.048628     1.449551
	   21 R(11,23)        =      1.091990    -0.058432     0.020231     1.112221
	   22 R(12,14)        =      1.400755    -0.083725     0.047181     1.447935
	   23 R(12,24)        =      1.091710    -0.060523     0.029178     1.120888
	   24 R(13,15)        =      1.409634    -0.137902     0.021579     1.431212
	   25 R(13,25)        =      1.091435    -0.056870     0.027889     1.119324
	   26 R(14,15)        =      1.409387    -0.116235     0.033908     1.443296
	   27 R(14,26)        =      1.091269    -0.054901     0.022851     1.114120
	   28 R(15,27)        =      1.091548    -0.057756     0.035603     1.127151
	   29 R(16,18)        =      1.402344    -0.116905    -0.011048     1.391296
	   30 R(16,28)        =      1.093009    -0.058732     0.020743     1.113753
	   31 R(17,19)        =      1.402871    -0.113528    -0.010361     1.392511
	   32 R(17,29)        =      1.087562    -0.066874     0.030043     1.117605
	   33 R(18,20)        =      1.417998    -0.148828     0.017696     1.435694
	   34 R(18,30)        =      1.092444    -0.052854     0.032032     1.124477
	   35 R(19,20)        =      1.417536    -0.142934     0.031413     1.448949
	   36 R(19,31)        =      1.092509    -0.053977     0.022041     1.114550
	   37 R(20,32)        =      1.421758     0.008677     0.005738     1.427497
	   38 R(32,35)        =      1.023205    -0.038760     0.033361     1.056566
	   39 R(32,36)        =      1.023410    -0.037910     0.024764     1.048174
	   40 B(1,2,3)        =    133.328193     0.000329    -1.313512   132.014681
	   41 B(1,2,5)        =    114.652498    -0.000407    -2.729278   111.923220
	   42 B(1,16,18)      =    120.485921     0.000032    -1.715061   118.770860
	   43 B(1,16,28)      =    118.872146     0.000136     3.912754   122.784900
	   44 B(1,17,19)      =    120.357134    -0.000091    -1.681777   118.675357
	   45 B(1,17,29)      =    119.923979     0.000176     3.899704   123.823683
	   46 B(2,1,16)       =    117.867364    -0.000222    -3.344760   114.522604
	   47 B(2,1,17)       =    123.498699     0.000145    -0.132274   123.366425
	   48 B(2,3,4)        =    115.368316     0.000486    -0.378611   114.989706
	   49 B(2,3,6)        =    122.511680    -0.000229     0.874114   123.385793
	   50 B(3,2,5)        =    109.686293     0.000074     3.749054   113.435347
	   51 B(3,4,7)        =    130.971122     0.000191    -2.302669   128.668453
	   52 B(3,4,9)        =    121.569888     0.000062     0.357057   121.926944
	   53 B(3,6,11)       =    118.916376     0.000374     2.286059   121.202435
	   54 B(3,6,12)       =    121.850891    -0.000258    -1.057504   120.793387
	   55 B(4,3,6)        =    115.830341    -0.000086     0.711785   116.542126
	   56 B(4,7,10)       =    107.095600     0.000283    -2.326815   104.768785
	   57 B(4,7,33)       =    126.967832    -0.000243     1.026703   127.994535
	   58 B(4,9,8)        =    104.955089     0.000090    -1.567040   103.388048
	   59 B(4,9,22)       =    128.647726     0.000056     3.665686   132.313412
	   60 B(6,11,13)      =    120.600124     0.000071     0.825740   121.425864
	   61 B(6,11,23)      =    119.265235    -0.000084    -1.774525   117.490710
	   62 B(6,12,14)      =    120.474108     0.000108     0.950022   121.424130
	   63 B(6,12,24)      =    119.628081    -0.000077    -1.405752   118.222330
	   64 B(7,4,9)        =    107.440568    -0.000248     1.963995   109.404563
	   65 B(7,10,8)       =    109.569445    -0.000066     1.870209   111.439654
	   66 B(7,10,34)      =    130.066172    -0.000035    -2.380441   127.685731
	   67 B(8,9,22)       =    126.354876    -0.000146    -2.071823   124.283053
	   68 B(8,10,34)      =    120.364332     0.000101     0.510219   120.874551
	   69 B(9,8,10)       =    110.930554    -0.000060     0.025311   110.955865
	   70 B(9,8,21)       =    121.872181     0.000185    -1.828604   120.043577
	   71 B(10,7,33)      =    125.930062    -0.000038     1.305269   127.235331
	   72 B(10,8,21)      =    127.195272    -0.000126     1.775018   128.970290
	   73 B(11,6,12)      =    118.572860    -0.000158    -1.719219   116.853641
	   74 B(11,13,15)     =    120.312682    -0.000066     0.599217   120.911899
	   75 B(11,13,25)     =    119.739470     0.000026     0.649485   120.388955
	   76 B(12,14,15)     =    120.328641     0.000032     0.657085   120.985727
	   77 B(12,14,26)     =    119.634179    -0.000022     0.640670   120.274849
	   78 B(13,11,23)     =    120.133440     0.000012     0.948345   121.081785
	   79 B(13,15,14)     =    119.553435     0.000005    -1.386810   118.166625
	   80 B(13,15,27)     =    120.218333    -0.000002     0.785105   121.003438
	   81 B(14,12,24)     =    119.895671    -0.000031     0.456713   120.352384
	   82 B(14,15,27)     =    120.225890    -0.000003     0.594409   120.820298
	   83 B(15,13,25)     =    119.947845     0.000039    -1.251279   118.696566
	   84 B(15,14,26)     =    120.036938    -0.000011    -1.298817   118.738121
	   85 B(16,1,17)      =    118.632902     0.000078     3.447617   122.080519
	   86 B(16,18,20)     =    121.282657    -0.000114    -1.870414   119.412243
	   87 B(16,18,30)     =    118.467164     0.000186    -1.318506   117.148658
	   88 B(17,19,20)     =    121.413954    -0.000037    -2.003159   119.410794
	   89 B(17,19,31)     =    118.368996     0.000156    -1.016675   117.352322
	   90 B(18,16,28)     =    120.636777    -0.000169    -2.200850   118.435927
	   91 B(18,20,19)     =    117.789695     0.000130     3.788664   121.578360
	   92 B(18,20,32)     =    121.224430    -0.000021    -1.740753   119.483677
	   93 B(19,17,29)     =    119.684006    -0.000084    -2.216151   117.467855
	   94 B(19,20,32)     =    120.985413    -0.000110    -2.101584   118.883829
	   95 B(20,18,30)     =    120.249177    -0.000072     3.189492   123.438668
	   96 B(20,19,31)     =    120.215260    -0.000119     3.017173   123.232433
	   97 B(20,32,35)     =    109.055433     0.000662     1.075163   110.130597
	   98 B(20,32,36)     =    108.835863     0.000720     1.578406   110.414269
	   99 B(35,32,36)     =    102.547853     0.000292     5.137400   107.685252
	  100 *D(1,2,3,4)     =    135.268973    -0.000000    -0.000000   135.268973
	  101 D(1,2,3,6)      =    -15.661160    -0.000082    -2.914853   -18.576013
	  102 D(1,16,18,20)   =      0.541086     0.000014     0.636542     1.177628
	  103 D(1,16,18,30)   =   -179.095473     0.000012     0.503472  -178.592001
	  104 D(1,17,19,20)   =     -1.609657    -0.000015    -0.703157    -2.312814
	  105 D(1,17,19,31)   =    178.876174    -0.000010    -0.446435   178.429739
	  106 D(2,1,16,18)    =    177.783324     0.000024     1.485950   179.269274
	  107 D(2,1,16,28)    =     -1.395964     0.000028     1.731365     0.335401
	  108 D(2,1,17,19)    =   -177.238049    -0.000025    -1.628544  -178.866593
	  109 D(2,1,17,29)    =      4.916708    -0.000026    -1.634408     3.282300
	  110 D(2,3,4,7)      =   -133.195631    -0.000249    -9.215733  -142.411364
	  111 D(2,3,4,9)      =     48.573818    -0.000305   -11.065497    37.508320
	  112 *D(2,3,6,11)    =   -130.348423     0.000000     0.000000  -130.348423
	  113 D(2,3,6,12)     =     59.097912     0.000072     3.199217    62.297129
	  114 *D(3,2,1,16)    =   -149.010098     0.000000    -0.000000  -149.010098
	  115 D(3,2,1,17)     =     30.614156     0.000032     2.348276    32.962432
	  116 D(3,4,7,10)     =   -177.646260    -0.000050    -2.043813  -179.690072
	  117 D(3,4,7,33)     =      1.464639    -0.000025    -0.752748     0.711891
	  118 D(3,4,9,8)      =    177.652003     0.000027     0.886319   178.538321
	  119 D(3,4,9,22)     =     -4.622653     0.000026     1.733292    -2.889361
	  120 D(3,6,11,13)    =   -175.191009     0.000047     1.982490  -173.208519
	  121 D(3,6,11,23)    =      5.207121     0.000048     2.045620     7.252741
	  122 D(3,6,12,14)    =    175.118149    -0.000044    -1.988836   173.129313
	  123 D(3,6,12,24)    =     -4.349218    -0.000047    -2.131501    -6.480719
	  124 D(4,3,2,5)      =    -25.902328     0.000024     1.418609   -24.483719
	  125 D(4,3,6,11)     =     78.844811    -0.000117    -2.667197    76.177614
	  126 D(4,3,6,12)     =    -91.708854    -0.000045     0.532021   -91.176833
	  127 D(4,7,10,8)     =     -0.298257     0.000019     1.212547     0.914290
	  128 D(4,7,10,34)    =    179.617713     0.000030     1.388753   181.006466
	  129 D(4,9,8,10)     =      0.788529     0.000032     1.288507     2.077035
	  130 D(4,9,8,21)     =   -179.690358    -0.000004    -0.058894  -179.749253
	  131 D(5,2,1,16)     =     11.456844    -0.000007    -0.482602    10.974241
	  132 D(5,2,1,17)     =   -168.918902     0.000025     1.865673  -167.053229
	  133 D(5,2,3,6)      =   -176.832461    -0.000058    -1.496244  -178.328705
	  134 D(6,3,4,7)      =     19.725842    -0.000186    -6.431506    13.294336
	  135 D(6,3,4,9)      =   -158.504709    -0.000242    -8.281271  -166.785980
	  136 D(6,11,13,15)   =      1.564471     0.000016     0.688084     2.252555
	  137 D(6,11,13,25)   =   -178.416818     0.000002     0.077462  -178.339356
	  138 D(6,12,14,15)   =     -1.981850    -0.000001    -0.029380    -2.011229
	  139 D(6,12,14,26)   =    178.196611     0.000004     0.212676   178.409287
	  140 D(7,4,9,8)      =     -0.947697    -0.000019    -0.580466    -1.528164
	  141 D(7,4,9,22)     =    176.777647    -0.000019     0.266507   177.044154
	  142 D(7,10,8,9)     =     -0.329086    -0.000033    -1.701573    -2.030659
	  143 D(7,10,8,21)    =   -179.818547     0.000005    -0.178623  -179.997170
	  144 D(8,10,7,33)    =   -179.420971    -0.000006    -0.062618  -179.483590
	  145 D(9,4,7,10)     =      0.773571     0.000000    -0.391373     0.382199
	  146 D(9,4,7,33)     =    179.884470     0.000026     0.899692   180.784162
	  147 D(9,8,10,34)    =    179.745446    -0.000042    -1.861095   177.884352
	  148 D(10,8,9,22)    =   -177.005653     0.000031     0.360380  -176.645273
	  149 D(11,6,12,14)   =      4.533188     0.000017     0.711674     5.244862
	  150 D(11,6,12,24)   =   -174.934178     0.000014     0.569009  -174.365169
	  151 D(11,13,15,14)  =      1.074776     0.000003     0.116315     1.191091
	  152 D(11,13,15,27)  =   -179.480671    -0.000011    -0.448621  -179.929293
	  153 D(12,6,11,13)   =     -4.325024    -0.000025    -1.051920    -5.376944
	  154 D(12,6,11,23)   =    176.073107    -0.000024    -0.988791   175.084316
	  155 D(12,14,15,13)  =     -0.861210    -0.000012    -0.462108    -1.323318
	  156 D(12,14,15,27)  =    179.694281     0.000002     0.100643   179.794924
	  157 D(13,15,14,26)  =    178.959608    -0.000016    -0.697107   178.262501
	  158 D(14,15,13,25)  =   -178.943974     0.000017     0.717148  -178.226826
	  159 D(15,13,11,23)  =   -178.837115     0.000015     0.611900  -178.225215
	  160 D(15,14,12,24)  =    177.484093     0.000002     0.106491   177.590584
	  161 D(16,1,17,19)   =      2.383498     0.000006     0.867992     3.251490
	  162 D(16,1,17,29)   =   -175.461745     0.000006     0.862128  -174.599617
	  163 D(16,18,20,19)  =      0.280896    -0.000022    -0.625772    -0.344876
	  164 D(16,18,20,32)  =   -179.474283     0.000048     1.835660  -177.638623
	  165 D(17,1,16,18)   =     -1.859685    -0.000006    -0.815315    -2.675001
	  166 D(17,1,16,28)   =    178.961026    -0.000002    -0.569900   178.391126
	  167 D(17,19,20,18)  =      0.253364     0.000022     0.676749     0.930113
	  168 D(17,19,20,32)  =   -179.990841    -0.000047    -1.769508  -181.760349
	  169 D(18,20,19,31)  =    179.758670     0.000018     0.382953   180.141623
	  170 *D(18,20,32,35) =    -29.943277     0.000000     0.000000   -29.943277
	  171 D(18,20,32,36)  =   -141.085489    -0.000237    -7.651665  -148.737155
	  172 D(19,20,18,30)  =    179.911039    -0.000019    -0.501566   179.409473
	  173 D(19,20,32,35)  =    150.309359     0.000072     2.380388   152.689746
	  174 D(19,20,32,36)  =     39.167146    -0.000166    -5.271278    33.895868
	  175 D(20,18,16,28)  =    179.705794     0.000010     0.452561   180.158355
	  176 D(20,19,17,29)  =    176.240752    -0.000013    -0.565525   175.675227
	  177 D(21,8,9,22)    =      2.515460    -0.000005    -0.987021     1.528438
	  178 D(21,8,10,34)   =      0.255985    -0.000004    -0.338145    -0.082159
	  179 D(23,11,13,25)  =      1.181596     0.000001     0.001278     1.182874
	  180 D(24,12,14,26)  =     -2.337446     0.000007     0.348547    -1.988900
	  181 D(25,13,15,27)  =      0.500578     0.000004     0.152212     0.652790
	  182 D(26,14,15,27)  =     -0.484901    -0.000003    -0.134356    -0.619257
	  183 D(28,16,18,30)  =      0.069236     0.000008     0.319490     0.388726
	  184 D(29,17,19,31)  =     -3.273417    -0.000008    -0.308803    -3.582221
	  185 D(30,18,20,32)  =      0.155860     0.000050     1.959865     2.115725
	  186 D(31,19,20,32)  =     -0.485535    -0.000052    -2.063304    -2.548840
	  187 D(33,7,10,34)   =      0.494999     0.000005     0.113588     0.608586
	  188 R(1,12)         =      3.363757    -0.051648     0.099619     3.463377
	  189 R(2,22)         =      2.957888    -0.004147     0.042053     2.999941
	  190 R(6,17)         =      3.159174     0.012435     0.035538     3.194712
	  191 R(7,11)         =      3.619148    -0.102661    -0.000047     3.619101
	  192 R(7,12)         =      3.598560     0.036227     0.060934     3.659494
	  193 R(12,17)        =      3.007551     0.031243     0.079649     3.087200
	 ---------------------------------------------------------------------------
	Successfully symmetrized geometry.

  ==> Convergence Check <==

  Measures of convergence in internal coordinates in au.
  Criteria marked as inactive (o), active & met (*), and active & unmet ( ).
  --------------------------------------------------------------------------------------------- ~
   Step     Total Energy     Delta E     MAX Force     RMS Force      MAX Disp      RMS Disp    ~
  --------------------------------------------------------------------------------------------- ~
    Convergence Criteria             o    2.50e-03 *    1.70e-03 *    1.00e-02 *    6.70e-03 *  ~
  --------------------------------------------------------------------------------------------- ~
      1    -895.92886650   -8.96e+02 o    1.82e-02      5.64e-03      1.93e-01      4.93e-02    ~
  ---------------------------------------------------------------------------------------------

	Writing optimization data to binary file.
	Structure for next step:
	Cartesian Geometry (in Angstrom)
	    C     1.6031014754  -0.7886279412  -0.1401942152
	    N     0.4790400973  -0.8514395175   0.7201852885
	    C    -0.6821007343  -0.0590541555   0.8140212573
	    C    -1.8969782353  -0.7870519172   0.9582547133
	    H     0.3743407235  -1.8016731409   1.1614425726
	    C    -0.7957689675   1.3754689891   0.2047254091
	    C    -3.2385487122  -0.4913137313   0.3691767258
	    N    -3.3282165661  -2.4210781983   1.6982305481
	    C    -1.9807486016  -2.0568169291   1.7959029660
	    C    -4.0553393710  -1.5021638569   0.8299484319
	    C    -1.2884621731   2.4926194200   0.9946347149
	    C    -0.6769585254   1.5852955090  -1.2175949335
	    C    -1.5334285403   3.7905780016   0.3975632145
	    C    -0.9248416727   2.8817906966  -1.8127172503
	    C    -1.3426201875   4.0025365254  -1.0049469833
	    C     2.2121105914  -2.0728767286  -0.4297955053
	    C     2.1359709474   0.4434338685  -0.6568979049
	    C     3.3136512052  -2.1154474605  -1.2786192097
	    C     3.2311742610   0.3898639852  -1.5152369549
	    C     3.8322079165  -0.8922035445  -1.8226705619
	    H    -3.6709791147  -3.2601688016   2.1831783522
	    O    -1.0795736141  -2.7370591628   2.4565047686
	    H    -1.4637861639   2.3170053375   2.0788190687
	    H    -0.3919538531   0.7122484560  -1.8602080078
	    H    -1.8863362153   4.6460175745   1.0272978651
	    H    -0.8018096103   3.0288253063  -2.9102173743
	    H    -1.5315055395   5.0114609040  -1.4706330015
	    H     1.8249292359  -3.0312118783  -0.0149109732
	    H     1.7442076114   1.4537943212  -0.3835226195
	    H     3.7491678095  -3.1274314947  -1.5036993218
	    H     3.6093645465   1.3554358224  -1.9237283257
	    N     4.9303749325  -0.9382489038  -2.7335253807
	    H    -3.5243686066   0.3577643099  -0.3049268454
	    H    -5.1157931858  -1.6563593099   0.6122912439
	    H     5.5435332356  -1.7722892104  -2.5219937172
	    H     5.5203619097  -0.0770886368  -2.6387281826
			--------------------------
			 OPTKING Finished Execution 
			--------------------------

    Structure for next step:
    Molecular point group: c1
    Full point group: C1

    Geometry (in Angstrom), charge = 0, multiplicity = 1:

    C            1.636173443624    -0.701296281068    -0.083070952767
    N            0.512112061150    -0.764107857641     0.777308554326
    C           -0.649028775027     0.028277507467     0.871144523406
    C           -1.863906280833    -0.699720257054     1.015377980043
    H            0.407412686854    -1.714341484757     1.218565840075
    C           -0.762697008721     1.462800657661     0.261848672893
    C           -3.205476763056    -0.403982069999     0.426299990233
    N           -3.295144617230    -2.333746544587     1.755353817763
    C           -1.947676647486    -1.969485274026     1.853026236009
    C           -4.022267424973    -1.414832199604     0.887071698091
    C           -1.255390216264     2.579951092985     1.051757981812
    C           -0.643886566176     1.672627178412    -1.160471675285
    C           -1.500356584390     3.877909679654     0.454686479035
    C           -0.891769714402     2.969122371176    -1.755593994424
    C           -1.309548230853     4.089868204359    -0.947823724321
    C            2.245182562068    -1.985545073529    -0.372672244036
    C            2.169042917675     0.530765533450    -0.599774644557
    C            3.346723180165    -2.028115805632    -1.221495951746
    C            3.264246235667     0.477195649958    -1.458113697914
    C            3.865279893515    -0.804871884814    -1.765547306155
    H           -3.637907167221    -3.172837151259     2.240301623717
    O           -1.046501656371    -2.649727510352     2.513628041248
    H           -1.430714207766     2.404337009769     2.135942339852
    H           -0.358881892753     0.799580121975    -1.803084752128
    H           -1.853264260769     4.733349255999     1.084421132078
    H           -0.768737651525     3.116156981401    -2.853094122813
    H           -1.498433583597     5.098792586886    -1.413509744352
    H            1.858001204956    -2.943880227020     0.042212289704
    H            1.777279580215     1.541125990151    -0.326399358074
    H            3.782239786167    -3.040099843766    -1.446576064790
    H            3.642436522609     1.442767490976    -1.866605070274
    N            4.963446913774    -0.850917244251    -2.676402128473
    H           -3.491296658489     0.445095974557    -0.247803583666
    H           -5.082721243940    -1.569027653186     0.669414509296
    H            5.576605219361    -1.684957554166    -2.464870464138
    H            5.553433893366     0.010243026061    -2.581604929980


Scratch directory: /scratch/bdw2292/Psi4-1_7_Index_0_GrowFragment_0-farH_in17/

Scratch directory: /scratch/bdw2292/Psi4-1_7_Index_0_GrowFragment_0-farH_in17/
gradient() will perform analytic gradient computation.

*** tstart() called on node74.bme.utexas.edu
*** at Thu Jun  9 04:30:54 2022

   => Loading Basis Set <=

    Name: 6-311G
    Role: ORBITAL
    Keyword: BASIS
    atoms 1, 3-4, 6-7, 9-20   entry C          line    92 file /home/bdw2292/miniconda3/envs/newamoebamdpoltype/share/psi4/basis/6-311g.gbs 
    atoms 2, 8, 32            entry N          line   109 file /home/bdw2292/miniconda3/envs/newamoebamdpoltype/share/psi4/basis/6-311g.gbs 
    atoms 5, 21, 23-31, 33-36 entry H          line    21 file /home/bdw2292/miniconda3/envs/newamoebamdpoltype/share/psi4/basis/6-311g.gbs 
    atoms 22                  entry O          line   126 file /home/bdw2292/miniconda3/envs/newamoebamdpoltype/share/psi4/basis/6-311g.gbs 

   => WB97X-D: Empirical Dispersion <=

    Chai and Head-Gordon Dispersion Correction
    Chai, J.-D.; Head-Gordon, M. (2010), J. Chem. Phys., 132: 6615-6620

        s6 =       1.000000


         ---------------------------------------------------------
                                   SCF
               by Justin Turney, Rob Parrish, Andy Simmonett
                          and Daniel G. A. Smith
                              RKS Reference
                        2 Threads,   7788 MiB Core
         ---------------------------------------------------------

  ==> Geometry <==

    Molecular point group: c1
    Full point group: C1

    Geometry (in Angstrom), charge = 0, multiplicity = 1:

       Center              X                  Y                   Z               Mass       
    ------------   -----------------  -----------------  -----------------  -----------------
         C            1.636173443624    -0.701296281068    -0.083070952767    12.000000000000
         N            0.512112061150    -0.764107857641     0.777308554326    14.003074004430
         C           -0.649028775027     0.028277507467     0.871144523406    12.000000000000
         C           -1.863906280833    -0.699720257054     1.015377980043    12.000000000000
         H            0.407412686854    -1.714341484757     1.218565840075     1.007825032230
         C           -0.762697008721     1.462800657661     0.261848672893    12.000000000000
         C           -3.205476763056    -0.403982069999     0.426299990233    12.000000000000
         N           -3.295144617230    -2.333746544587     1.755353817763    14.003074004430
         C           -1.947676647486    -1.969485274026     1.853026236009    12.000000000000
         C           -4.022267424973    -1.414832199604     0.887071698091    12.000000000000
         C           -1.255390216264     2.579951092985     1.051757981812    12.000000000000
         C           -0.643886566176     1.672627178412    -1.160471675285    12.000000000000
         C           -1.500356584390     3.877909679654     0.454686479035    12.000000000000
         C           -0.891769714402     2.969122371176    -1.755593994424    12.000000000000
         C           -1.309548230853     4.089868204359    -0.947823724321    12.000000000000
         C            2.245182562068    -1.985545073529    -0.372672244036    12.000000000000
         C            2.169042917675     0.530765533450    -0.599774644557    12.000000000000
         C            3.346723180165    -2.028115805632    -1.221495951746    12.000000000000
         C            3.264246235667     0.477195649958    -1.458113697914    12.000000000000
         C            3.865279893515    -0.804871884814    -1.765547306155    12.000000000000
         H           -3.637907167221    -3.172837151259     2.240301623717     1.007825032230
         O           -1.046501656371    -2.649727510352     2.513628041248    15.994914619570
         H           -1.430714207766     2.404337009769     2.135942339852     1.007825032230
         H           -0.358881892753     0.799580121975    -1.803084752128     1.007825032230
         H           -1.853264260769     4.733349255999     1.084421132078     1.007825032230
         H           -0.768737651525     3.116156981401    -2.853094122813     1.007825032230
         H           -1.498433583597     5.098792586886    -1.413509744352     1.007825032230
         H            1.858001204956    -2.943880227020     0.042212289704     1.007825032230
         H            1.777279580215     1.541125990151    -0.326399358074     1.007825032230
         H            3.782239786167    -3.040099843766    -1.446576064790     1.007825032230
         H            3.642436522609     1.442767490976    -1.866605070274     1.007825032230
         N            4.963446913774    -0.850917244251    -2.676402128473    14.003074004430
         H           -3.491296658489     0.445095974557    -0.247803583666     1.007825032230
         H           -5.082721243940    -1.569027653186     0.669414509296     1.007825032230
         H            5.576605219361    -1.684957554166    -2.464870464138     1.007825032230
         H            5.553433893366     0.010243026061    -2.581604929980     1.007825032230

  Running in c1 symmetry.

  Rotational constants: A =      0.01237  B =      0.00761  C =      0.00511 [cm^-1]
  Rotational constants: A =    370.91173  B =    228.13035  C =    153.28386 [MHz]
  Nuclear repulsion = 1503.343909270173981

  Charge       = 0
  Multiplicity = 1
  Electrons    = 146
  Nalpha       = 73
  Nbeta        = 73

  ==> Algorithm <==

  SCF Algorithm Type is DF.
  DIIS enabled.
  MOM disabled.
  Fractional occupation disabled.
  Guess Type is READ.
  Energy threshold   = 1.00e-08
  Density threshold  = 1.00e-08
  Integral threshold = 1.00e-12

  ==> Primary Basis <==

  Basis Set: 6-311G
    Blend: 6-311G
    Number of shells: 192
    Number of basis functions: 318
    Number of Cartesian functions: 318
    Spherical Harmonics?: true
    Max angular momentum: 1

  ==> DFT Potential <==

   => LibXC <=

    Version 5.1.5
    S. Lehtola, C. Steigemann, M. J. Oliveira, and M. A. Marques, SoftwareX 7, 1 (2018) (10.1016/j.softx.2017.11.002)

   => Composite Functional: WB97X-D <= 

    wB97X-D Hyb-GGA Exchange-Correlation Functional

    J.-D. Chai and M. Head-Gordon, Phys. Chem. Chem. Phys. 10, 6615 (2008) (10.1039/B810189B)

    Deriv               =              1
    GGA                 =           TRUE
    Meta                =          FALSE

    Exchange Hybrid     =           TRUE
    MP2 Hybrid          =          FALSE

   => Exchange-Correlation Functionals <=

    1.0000   wB97X-D range-separated functional

   => Exact (HF) Exchange <=

    0.7780            HF,LR [omega = 0.2000]
    0.2220               HF 

   => LibXC Density Thresholds  <==

    XC_HYB_GGA_XC_WB97X_D:  1.00E-14 

   => Molecular Quadrature <=

    Radial Scheme          =       TREUTLER
    Pruning Scheme         =           NONE
    Nuclear Scheme         =       TREUTLER

    BS radius alpha        =              1
    Pruning alpha          =              1
    Radial Points          =             75
    Spherical Points       =            302
    Total Points           =         743119
    Total Blocks           =           5309
    Max Points             =            256
    Max Functions          =            217
    Weights Tolerance      =       1.00E-15

   => Loading Basis Set <=

    Name: (6-311G AUX)
    Role: JKFIT
    Keyword: DF_BASIS_SCF
    atoms 1, 3-4, 6-7, 9-20   entry C          line   125 file /home/bdw2292/miniconda3/envs/newamoebamdpoltype/share/psi4/basis/cc-pvtz-jkfit.gbs 
    atoms 2, 8, 32            entry N          line   177 file /home/bdw2292/miniconda3/envs/newamoebamdpoltype/share/psi4/basis/cc-pvtz-jkfit.gbs 
[...]
	   42 B(1,16,18)      =    121.191068     0.000001     0.001942   121.193010
	   43 B(1,16,28)      =    119.146910     0.000000    -0.001670   119.145240
	   44 B(1,17,19)      =    120.668813    -0.000000    -0.000344   120.668468
	   45 B(1,17,29)      =    120.562427     0.000003     0.008991   120.571418
	   46 B(2,1,16)       =    116.141366    -0.000004    -0.003370   116.137996
	   47 B(2,1,17)       =    125.087780     0.000002    -0.005019   125.082761
	   48 B(2,3,4)        =    118.098142    -0.000003     0.004388   118.102530
	   49 B(2,3,6)        =    122.939687     0.000001     0.009581   122.949268
	   50 B(3,2,5)        =    109.880128     0.000007     0.035826   109.915954
	   51 B(3,4,7)        =    130.486086    -0.000003    -0.014783   130.471303
	   52 B(3,4,9)        =    122.959574     0.000003     0.004212   122.963786
	   53 B(3,6,11)       =    119.373964    -0.000008    -0.032782   119.341181
	   54 B(3,6,12)       =    120.709777     0.000001     0.005490   120.715266
	   55 B(4,3,6)        =    117.298468     0.000002    -0.006405   117.292063
	   56 B(4,7,10)       =    107.722182    -0.000002    -0.009745   107.712437
	   57 B(4,7,33)       =    126.127226     0.000001     0.004810   126.132036
	   58 B(4,9,8)        =    105.691488    -0.000001    -0.005234   105.686254
	   59 B(4,9,22)       =    128.973788    -0.000002    -0.021891   128.951897
	   60 B(6,11,13)      =    120.695640    -0.000005    -0.018950   120.676690
	   61 B(6,11,23)      =    119.208382     0.000003     0.013556   119.221939
	   62 B(6,12,14)      =    120.476046    -0.000002    -0.011363   120.464683
	   63 B(6,12,24)      =    119.773946     0.000003     0.013588   119.787534
	   64 B(7,4,9)        =    106.553439    -0.000000     0.010518   106.563957
	   65 B(7,10,8)       =    109.427241    -0.000001    -0.004246   109.422996
	   66 B(7,10,34)      =    129.892196     0.000009     0.043995   129.936191
	   67 B(8,9,22)       =    125.333674     0.000004     0.027384   125.361058
	   68 B(8,10,34)      =    120.671405    -0.000007    -0.039677   120.631728
	   69 B(9,8,10)       =    110.579245     0.000005     0.010303   110.589548
	   70 B(9,8,21)       =    122.911401     0.000002     0.020341   122.931742
	   71 B(10,7,33)      =    126.089575     0.000001     0.004044   126.093619
	   72 B(10,8,21)      =    126.506824    -0.000007    -0.030137   126.476687
	   73 B(11,6,12)      =    118.715376     0.000007     0.023970   118.739347
	   74 B(11,13,15)     =    120.061269     0.000001     0.003323   120.064592
	   75 B(11,13,25)     =    119.736858    -0.000001    -0.003027   119.733830
	   76 B(12,14,15)     =    120.287049    -0.000002    -0.007814   120.279236
	   77 B(12,14,26)     =    119.578337     0.000002     0.007317   119.585654
	   78 B(13,11,23)     =    120.090521     0.000002     0.004864   120.095385
	   79 B(13,15,14)     =    119.641448     0.000002     0.007803   119.649250
	   80 B(13,15,27)     =    120.200512    -0.000000    -0.002607   120.197906
	   81 B(14,12,24)     =    119.739012    -0.000000    -0.000710   119.738302
	   82 B(14,15,27)     =    120.149501    -0.000002    -0.005557   120.143944
	   83 B(15,13,25)     =    120.197397     0.000000     0.000055   120.197452
	   84 B(15,14,26)     =    120.123983     0.000000     0.000660   120.124643
	   85 B(16,1,17)      =    117.967119     0.000001     0.001306   117.968425
	   86 B(16,18,20)     =    120.796020    -0.000001    -0.000572   120.795448
	   87 B(16,18,30)     =    119.536829     0.000000     0.000913   119.537741
	   88 B(17,19,20)     =    121.249241    -0.000001    -0.000489   121.248752
	   89 B(17,19,31)     =    119.112991     0.000000     0.000828   119.113819
	   90 B(18,16,28)     =    119.598502    -0.000001    -0.001226   119.597275
	   91 B(18,20,19)     =    117.881352     0.000000    -0.001868   117.879484
	   92 B(18,20,32)     =    120.736000    -0.000002    -0.006366   120.729633
	   93 B(19,17,29)     =    118.734629    -0.000002    -0.008469   118.726160
	   94 B(19,20,32)     =    121.359725     0.000002     0.005262   121.364987
	   95 B(20,18,30)     =    119.666966     0.000001    -0.000273   119.666693
	   96 B(20,19,31)     =    119.611261     0.000001    -0.000289   119.610972
	   97 B(20,32,35)     =    119.289863    -0.000001     0.010535   119.300399
	   98 B(20,32,36)     =    118.785323     0.000003     0.024541   118.809864
	   99 B(35,32,36)     =    115.786951     0.000000     0.025119   115.812070
	  100 *D(1,2,3,4)     =    135.268973     0.000000     0.000000   135.268973
	  101 D(1,2,3,6)      =    -29.617798    -0.000000    -0.032741   -29.650539
	  102 D(1,16,18,20)   =      2.954414     0.000000     0.065945     3.020358
	  103 D(1,16,18,30)   =   -176.888442     0.000000     0.034187  -176.854255
	  104 D(1,17,19,20)   =     -2.118525    -0.000000     0.005506    -2.113020
	  105 D(1,17,19,31)   =    179.761778    -0.000000     0.003716   179.765494
	  106 D(2,1,16,18)    =   -176.075892     0.000000     0.022367  -176.053525
	  107 D(2,1,16,28)    =      6.834496     0.000000     0.044179     6.878676
	  108 D(2,1,17,19)    =    174.680387    -0.000001    -0.061789   174.618598
	  109 D(2,1,17,29)    =     -3.167804    -0.000001    -0.067221    -3.235025
	  110 D(2,3,4,7)      =   -174.577069     0.000001     0.081933  -174.495137
	  111 D(2,3,4,9)      =      5.029197     0.000000     0.070619     5.099816
	  112 *D(2,3,6,11)    =   -130.348423    -0.000000    -0.000000  -130.348423
	  113 D(2,3,6,12)     =     62.332282     0.000000     0.014311    62.346592
	  114 *D(3,2,1,16)    =   -149.010098     0.000000     0.000000  -149.010098
	  115 D(3,2,1,17)     =     41.508120     0.000000     0.045651    41.553771
	  116 D(3,4,7,10)     =    178.020779     0.000000     0.029002   178.049781
	  117 D(3,4,7,33)     =      0.730455    -0.000000     0.048660     0.779115
	  118 D(3,4,9,8)      =   -178.184960    -0.000000    -0.059916  -178.244876
	  119 D(3,4,9,22)     =      2.177231    -0.000000    -0.107773     2.069458
	  120 D(3,6,11,13)    =   -171.635711    -0.000000    -0.019184  -171.654895
	  121 D(3,6,11,23)    =      9.213343     0.000000     0.021028     9.234371
	  122 D(3,6,12,14)    =    171.193826     0.000000     0.046808   171.240634
	  123 D(3,6,12,24)    =     -7.596833    -0.000000    -0.039595    -7.636428
	  124 D(4,3,2,5)      =    -14.555884     0.000001    -0.063214   -14.619098
	  125 D(4,3,6,11)     =     64.651871     0.000000    -0.033995    64.617876
	  126 D(4,3,6,12)     =   -102.667424     0.000000    -0.019685  -102.687109
	  127 D(4,7,10,8)     =      1.131601    -0.000000     0.006206     1.137807
	  128 D(4,7,10,34)    =   -177.751577    -0.000000     0.002367  -177.749211
	  129 D(4,9,8,10)     =     -0.864508     0.000001     0.075181    -0.789328
	  130 D(4,9,8,21)     =    179.680100     0.000000     0.017717   179.697817
	  131 D(5,2,1,16)     =      0.625899    -0.000000     0.066098     0.691996
	  132 D(5,2,1,17)     =   -168.855883     0.000000     0.111749  -168.744134
	  133 D(5,2,3,6)      =   -179.442655     0.000001    -0.095955  -179.538610
	  134 D(6,3,4,7)      =     -8.832039     0.000001     0.115145    -8.716894
	  135 D(6,3,4,9)      =    170.774228     0.000000     0.103831   170.878059
	  136 D(6,11,13,15)   =      1.887577    -0.000000    -0.011411     1.876165
	  137 D(6,11,13,25)   =   -178.880472     0.000000     0.019256  -178.861216
	  138 D(6,12,14,15)   =     -1.356344    -0.000000    -0.053597    -1.409941
	  139 D(6,12,14,26)   =    179.828133    -0.000000    -0.062764   179.765369
	  140 D(7,4,9,8)      =      1.502633    -0.000001    -0.068981     1.433652
	  141 D(7,4,9,22)     =   -178.135176    -0.000001    -0.116838  -178.252014
	  142 D(7,10,8,9)     =     -0.163874    -0.000000    -0.053189    -0.217064
	  143 D(7,10,8,21)    =    179.267310     0.000000     0.007144   179.274454
	  144 D(8,10,7,33)    =    178.423224    -0.000000    -0.013416   178.409809
	  145 D(9,4,7,10)     =     -1.634573     0.000001     0.038908    -1.595666
	  146 D(9,4,7,33)     =   -178.924898     0.000000     0.058566  -178.866332
	  147 D(9,8,10,34)    =    178.839885    -0.000000    -0.048719   178.791166
	  148 D(10,8,9,22)    =    178.790333     0.000001     0.120593   178.910926
	  149 D(11,6,12,14)   =      3.792513     0.000001     0.068091     3.860604
	  150 D(11,6,12,24)   =   -174.998146     0.000000    -0.018312  -175.016458
	  151 D(11,13,15,14)  =      0.622450     0.000000     0.025266     0.647716
	  152 D(11,13,15,27)  =    179.561146     0.000000     0.002981   179.564127
	  153 D(12,6,11,13)   =     -4.062940    -0.000000    -0.035378    -4.098319
	  154 D(12,6,11,23)   =    176.786114    -0.000000     0.004834   176.790948
	  155 D(12,14,15,13)  =     -0.884426     0.000000     0.007121    -0.877305
	  156 D(12,14,15,27)  =   -179.823670     0.000000     0.029362  -179.794308
	  157 D(13,15,14,26)  =    177.924605     0.000000     0.016417   177.941021
	  158 D(14,15,13,25)  =   -178.605933     0.000000    -0.005521  -178.611454
	  159 D(15,13,11,23)  =   -178.968952    -0.000000    -0.051903  -179.020855
	  160 D(15,14,12,24)  =    177.434737     0.000000     0.032936   177.467673
	  161 D(16,1,17,19)   =      5.373215     0.000000    -0.014917     5.358298
	  162 D(16,1,17,29)   =   -172.474976    -0.000000    -0.020349  -172.495324
	  163 D(16,18,20,19)  =      0.457613    -0.000000    -0.073362     0.384251
	  164 D(16,18,20,32)  =   -177.824183     0.000000     0.034512  -177.789670
	  165 D(17,1,16,18)   =     -5.812845    -0.000000    -0.020551    -5.833395
	  166 D(17,1,16,28)   =    177.097544    -0.000000     0.001261   177.098805
	  167 D(17,19,20,18)  =     -0.869394     0.000000     0.038366    -0.831028
	  168 D(17,19,20,32)  =    177.401100    -0.000000    -0.070442   177.330658
	  169 D(18,20,19,31)  =    177.241077     0.000000     0.040185   177.281262
	  170 *D(18,20,32,35) =    -29.943277     0.000000     0.000000   -29.943277
	  171 D(18,20,32,36)  =    178.736810    -0.000001    -0.138210   178.598600
	  172 D(19,20,18,30)  =   -179.699735    -0.000000    -0.041562  -179.741297
	  173 D(19,20,32,35)  =    151.835314     0.000001     0.111806   151.947120
	  174 D(19,20,32,36)  =      0.515400    -0.000001    -0.026404     0.488997
	  175 D(20,18,16,28)  =   -179.968926     0.000000     0.044023  -179.924902
	  176 D(20,19,17,29)  =    175.768408     0.000000     0.011206   175.779614
	  177 D(21,8,9,22)    =     -0.665058     0.000000     0.063129    -0.601929
	  178 D(21,8,10,34)   =     -1.728930     0.000000     0.011614    -1.717316
	  179 D(23,11,13,25)  =      0.262999    -0.000000    -0.021236     0.241764
	  180 D(24,12,14,26)  =     -1.380786     0.000000     0.023769    -1.357017
	  181 D(25,13,15,27)  =      0.332763    -0.000000    -0.027806     0.304957
	  182 D(26,14,15,27)  =     -1.014640     0.000000     0.038658    -0.975982
	  183 D(28,16,18,30)  =      0.188219     0.000000     0.012266     0.200484
	  184 D(29,17,19,31)  =     -2.351289     0.000000     0.009416    -2.341872
	  185 D(30,18,20,32)  =      2.018470     0.000000     0.066313     2.084782
	  186 D(31,19,20,32)  =     -4.488429    -0.000000    -0.068624    -4.557052
	  187 D(33,7,10,34)   =     -0.459954    -0.000000    -0.017255    -0.477209
	  188 R(1,12)         =      3.375221     0.000035    -0.000244     3.374977
	  189 R(2,22)         =      2.727687    -0.000096    -0.000337     2.727350
	  190 R(6,17)         =      3.290905    -0.000184    -0.000602     3.290302
	  191 R(7,11)         =      3.200788    -0.000832    -0.001085     3.199703
	  192 R(7,12)         =      3.893565    -0.000040    -0.000998     3.892567
	  193 R(12,17)        =      3.083123    -0.000426    -0.000528     3.082595
	 ---------------------------------------------------------------------------
	Successfully symmetrized geometry.

  ==> Convergence Check <==

  Measures of convergence in internal coordinates in au.
  Criteria marked as inactive (o), active & met (*), and active & unmet ( ).
  ---------------------------------------------------------------------------------------------
   Step     Total Energy     Delta E     MAX Force     RMS Force      MAX Disp      RMS Disp   
  ---------------------------------------------------------------------------------------------
    Convergence Criteria             o    2.50e-03 *    1.70e-03 *    1.00e-02 *    6.70e-03 *
  ---------------------------------------------------------------------------------------------
     12    -895.97294669   -4.03e-05 o    1.90e-04 *    4.07e-05 *    2.41e-03 *    6.89e-04 *  ~
  ---------------------------------------------------------------------------------------------


  **** Optimization is complete! (in 12 steps) ****

  ==> Optimization Summary <==

  Measures of convergence in internal coordinates in au.
  --------------------------------------------------------------------------------------------------------------- ~
   Step         Total Energy             Delta E       MAX Force       RMS Force        MAX Disp        RMS Disp  ~
  --------------------------------------------------------------------------------------------------------------- ~
      1    -895.928866504608   -895.928866504608      0.01824536      0.00564299      0.19312936      0.04925125  ~
      2    -895.893359905233      0.035506599374      0.05383702      0.01432749      0.16162416      0.03531255  ~
      3    -895.949717684812     -0.056357779579      0.01475842      0.00380699      0.35190478      0.04423502  ~
      4    -895.962530473998     -0.012812789186      0.02033504      0.00305283      0.26927988      0.03786506  ~
      5    -895.968118299352     -0.005587825354      0.02207431      0.00289511      0.12818834      0.02790983  ~
      6    -895.971519563681     -0.003401264329      0.00478524      0.00083373      0.12925469      0.02162081  ~
      7    -895.972022838901     -0.000503275220      0.00518342      0.00098889      0.05543273      0.01331037  ~
      8    -895.972680775788     -0.000657936887      0.00243678      0.00043220      0.09709956      0.01435816  ~
      9    -895.972741026632     -0.000060250844      0.00208894      0.00045060      0.03733989      0.00647721  ~
     10    -895.972905877049     -0.000164850417      0.00142672      0.00023409      0.02559931      0.00540651  ~
     11    -895.972906386353     -0.000000509305      0.00064287      0.00017513      0.01477486      0.00322923  ~
     12    -895.972946692174     -0.000040305820      0.00019031      0.00004074      0.00241222      0.00068867  ~
  --------------------------------------------------------------------------------------------------------------- ~

	Writing optimization data to binary file.
	Final energy is   -895.9729466921735
	Final (previous) structure:
	Cartesian Geometry (in Angstrom)
	    C     1.5632441647  -0.6858663600  -0.2082877385
	    N     0.4405405249  -0.7535765182   0.6606197376
	    C    -0.6980173217  -0.0057760094   0.7911064431
	    C    -1.9004113150  -0.6715594550   0.9474261916
	    H     0.2553765982  -1.7215308881   0.9396202117
	    C    -0.7587686989   1.4469961858   0.4508475535
	    C    -3.2639936709  -0.1612975006   1.0030811826
	    N    -3.3384151297  -2.4050040017   1.1764860866
	    C    -1.9932717277  -2.1247324747   1.0857380337
	    C    -4.0949488366  -1.2203273208   1.1238814019
	    C    -1.3078047176   2.3451279238   1.3721372983
	    C    -0.5243808075   1.8853404943  -0.8585434488
	    C    -1.5377492573   3.6730099829   1.0201963582
	    C    -0.7590734309   3.2102000678  -1.2116708404
	    C    -1.2576914253   4.1107001444  -0.2714513727
	    C     2.1762334011  -1.9070234971  -0.5216958142
	    C     2.2125728723   0.4911742180  -0.5920264194
	    C     3.3259836715  -1.9556090142  -1.2937164507
	    C     3.3711383953   0.4442126217  -1.3597550197
	    C     3.9457943378  -0.7768732691  -1.7337967788
	    H    -3.6948379243  -3.3355282306   1.2746698626
	    O    -1.0628931070  -2.9814472388   1.1259748873
	    H    -1.5408386460   2.0005627564   2.3706543374
	    H    -0.1772805394   1.1851101923  -1.6047936683
	    H    -1.9459468140   4.3584586299   1.7502569991
	    H    -0.5704787358   3.5336710054  -2.2262006440
	    H    -1.4420074715   5.1394531913  -0.5491514936
	    H     1.7140351163  -2.8290413037  -0.1920553729
	    H     1.8436249471   1.4506270845  -0.2692311825
	    H     3.7485015539  -2.9153630577  -1.5618558064
	    H     3.8514621671   1.3717322049  -1.6461360026
	    N     5.0745408705  -0.8274057187  -2.5463916949
	    H    -3.5594037826   0.8687059692   0.9156062698
	    H    -5.1687285505  -1.2532169220   1.1627866845
	    H     5.7031226464  -1.6041793986  -2.4649926144
	    H     5.4827896587   0.0330712021  -2.8596979525
	Saving final (previous) structure.
	Cleaning optimization helper files.
			--------------------------
			 OPTKING Finished Execution 
			--------------------------

    Final optimized geometry and variables:
    Molecular point group: c1
    Full point group: C1

    Geometry (in Angstrom), charge = 0, multiplicity = 1:

    C            1.563244170860    -0.685866362727    -0.208287739355
    N            0.440540526590    -0.753576521195     0.660619740231
    C           -0.698017324484    -0.005776009464     0.791106446190
    C           -1.900411322510    -0.671559457595     0.947426195307
    H            0.255376599176    -1.721530894911     0.939620215376
    C           -0.758768701857     1.446996191463     0.450847555248
    C           -3.263993683764    -0.161297501190     1.003081186548
    N           -3.338415142813    -2.405004011128     1.176486091239
    C           -1.993271735507    -2.124732483101     1.085738038013
    C           -4.094948852734    -1.220327325625     1.123881406348
    C           -1.307804722751     2.345127933028     1.372137303733
    C           -0.524380809566     1.885340501751    -0.858543452171
    C           -1.537749263302     3.673009997373     1.020196362164
    C           -0.759073433909     3.210200080369    -1.211670845170
    C           -1.257691430285     4.110700160573    -0.271451373770
    C            2.176233409657    -1.907023504589    -0.521695816274
    C            2.212572881032     0.491174219919    -0.592026421770
    C            3.325983684580    -1.955609021854    -1.293716455809
    C            3.371138408545     0.444212623488    -1.359755025073
    C            3.945794353291    -0.776873272200    -1.733796785580
    H           -3.694837938843    -3.335528243760     1.274669867651
    O           -1.062893111183    -2.981447250542     1.125974891685
    H           -1.540838652055     2.000562764233     2.370654346760
    H           -0.177280540075     1.185110196944    -1.604793674618
    H           -1.945946821605     4.358458647080     1.750257005944
    H           -0.570478738035     3.533671019309    -2.226200652712
    H           -1.442007477212     5.139453211518    -0.549151495808
    H            1.714035123072    -2.829041314783    -0.192055373677
    H            1.843624954385     1.450627090228    -0.269231183518
    H            3.748501568653    -2.915363069118    -1.561855812526
    H            3.851462182246     1.371732210325    -1.646136009060
    N            5.074540890420    -0.827405721958    -2.546391704876
    H           -3.559403796621     0.868705972619     0.915606273367
    H           -5.168728570798    -1.253216926937     1.162786689055
    H            5.703122668799    -1.604179404915    -2.464992624127
    H            5.482789680289     0.033071202257    -2.859697963780

	Removing binary optimization data file.
	Cleaning optimization helper files.

    Psi4 stopped on: Thursday, 09 June 2022 05:07AM
    Psi4 wall time for execution: 0:40:10.30

*** Psi4 exiting successfully. Buy a developer a beer!
