
    -----------------------------------------------------------------------
          Psi4: An Open-Source Ab Initio Electronic Structure Package
                               Psi4 1.5 release

                         Git: Rev {HEAD} e9f4d6d 


    D. G. A. Smith, L. A. Burns, A. C. Simmonett, R. M. Parrish,
    M. C. Schieber, R. Galvelis, P. Kraus, H. Kruse, R. Di Remigio,
    A. Alenaizan, A. M. James, S. Lehtola, J. P. Misiewicz, M. Scheurer,
    R. A. Shaw, J. B. Schriber, Y. Xie, Z. L. Glick, D. A. Sirianni,
    J. S. O'Brien, J. M. Waldrop, A. Kumar, E. G. Hohenstein,
    B. P. Pritchard, B. R. Brooks, H. F. Schaefer III, A. Yu. Sokolov,
    K. Patkowski, A. E. DePrince III, U. Bozkaya, R. A. King,
    F. A. Evangelista, J. M. Turney, T. D. Crawford, C. D. Sherrill,
    J. Chem. Phys. 152(18) 184108 (2020). https://doi.org/10.1063/5.0006002

                            Additional Code Authors
    E. T. Seidl, C. L. Janssen, E. F. Valeev, M. L. Leininger,
    J. F. Gonthier, R. M. Richard, H. R. McAlexander, M. Saitow, X. Wang,
    P. Verma, M. H. Lechner, and A. Jiang

             Previous Authors, Complete List of Code Contributors,
                       and Citations for Specific Modules
    https://github.com/psi4/psi4/blob/master/codemeta.json
    https://github.com/psi4/psi4/graphs/contributors
    http://psicode.org/psi4manual/master/introduction.html#citing-psifour

    -----------------------------------------------------------------------


    Psi4 started on: Thursday, 09 June 2022 08:22AM

    Process ID: 1303341
    Host:       node74.bme.utexas.edu
    PSIDATADIR: /home/bdw2292/miniconda3/envs/newamoebamdpoltype/share/psi4
    Memory:     500.0 MiB
    Threads:    1
    
  ==> Input File <==

--------------------------------------------------------------------------
molecule { 
0 1
 C    1.733314    0.118837   -0.207481
 N    0.691294    0.576315    0.655401
 C   -0.700282    0.479129    0.643021
 C   -1.296967   -0.394926    1.519592
 H    0.996316    0.359442    1.603479
 C   -1.562234    1.064303   -0.432282
 C   -2.698316   -0.782974    1.659165
 N   -1.507180   -1.889837    3.219625
 C   -0.563521   -1.115141    2.581409
 C   -2.779090   -1.688064    2.656864
 C   -2.645161    1.865259   -0.039847
 C   -1.533331    0.608806   -1.754900
 C   -3.588655    2.303905   -0.963490
 C   -2.476541    1.043861   -2.682065
 C   -3.498711    1.906232   -2.294978
 C    2.950047   -0.194718    0.420118
 C    1.726454    0.170792   -1.602163
 C    4.064700   -0.570010   -0.310411
 C    2.850179   -0.193486   -2.340438
 C    4.036708   -0.581770   -1.712801
 H   -1.286192   -2.486862    3.992606
 O    0.648041   -1.040176    2.906062
 H   -2.726652    2.167153    0.995702
 H   -0.816996   -0.139382   -2.051555
 H   -4.398840    2.942442   -0.638805
 H   -2.426636    0.682930   -3.700250
 H   -4.230879    2.242334   -3.016137
 H    2.997789   -0.204985    1.501237
 H    0.876706    0.555215   -2.134679
 H    4.969012   -0.859777    0.209222
 H    2.807846   -0.142842   -3.421619
 N    5.145807   -0.999313   -2.444747
 H   -3.507423   -0.456015    1.031944
 H   -3.628937   -2.237770    3.019470
 H    6.063262   -0.864650   -2.064436
 H    5.084903   -1.017568   -3.444930
}
memory 8.166666666666666GB
set_num_threads(2)
psi4_io.set_default_path("/scratch/bdw2292/Psi4-1_7_Index_0_GrowFragment_0-farH_in17")
set freeze_core True
E, wfn = energy('wb97x-d/6-311+G*',return_wfn=True)
oeprop(wfn,"WIBERG_LOWDIN_INDICES")
clean()
--------------------------------------------------------------------------

  Memory set to   7.606 GiB by Python driver.
  Threads set to 2 by Python driver.

Scratch directory: /scratch/bdw2292/Psi4-1_7_Index_0_GrowFragment_0-farH_in17/

Scratch directory: /scratch/bdw2292/Psi4-1_7_Index_0_GrowFragment_0-farH_in17/

*** tstart() called on node74.bme.utexas.edu
*** at Thu Jun  9 08:22:29 2022

   => Loading Basis Set <=

    Name: 6-311+G*
    Role: ORBITAL
    Keyword: BASIS
    atoms 1, 3-4, 6-7, 9-20   entry C          line   130 file /home/bdw2292/miniconda3/envs/newamoebamdpoltype/share/psi4/basis/6-311pgs.gbs 
    atoms 2, 8, 32            entry N          line   151 file /home/bdw2292/miniconda3/envs/newamoebamdpoltype/share/psi4/basis/6-311pgs.gbs 
    atoms 5, 21, 23-31, 33-36 entry H          line    47 file /home/bdw2292/miniconda3/envs/newamoebamdpoltype/share/psi4/basis/6-311pgs.gbs 
    atoms 22                  entry O          line   172 file /home/bdw2292/miniconda3/envs/newamoebamdpoltype/share/psi4/basis/6-311pgs.gbs 

   => WB97X-D: Empirical Dispersion <=

    Chai and Head-Gordon Dispersion Correction
    Chai, J.-D.; Head-Gordon, M. (2010), J. Chem. Phys., 132: 6615-6620

        s6 =       1.000000


         ---------------------------------------------------------
                                   SCF
               by Justin Turney, Rob Parrish, Andy Simmonett
                          and Daniel G. A. Smith
                              RKS Reference
                        2 Threads,   7788 MiB Core
         ---------------------------------------------------------

  ==> Geometry <==

    Molecular point group: c1
    Full point group: C1

    Geometry (in Angstrom), charge = 0, multiplicity = 1:

       Center              X                  Y                   Z               Mass       
    ------------   -----------------  -----------------  -----------------  -----------------
         C            1.733313961770     0.118837065236    -0.207480970283    12.000000000000
         N            0.691293961770     0.576315065236     0.655401029717    14.003074004430
         C           -0.700282038230     0.479129065236     0.643021029717    12.000000000000
         C           -1.296967038230    -0.394925934764     1.519592029717    12.000000000000
         H            0.996315961770     0.359442065236     1.603479029717     1.007825032230
         C           -1.562234038230     1.064303065236    -0.432281970283    12.000000000000
         C           -2.698316038230    -0.782973934764     1.659165029717    12.000000000000
         N           -1.507180038230    -1.889836934764     3.219625029717    14.003074004430
         C           -0.563521038230    -1.115140934764     2.581409029717    12.000000000000
         C           -2.779090038230    -1.688063934764     2.656864029717    12.000000000000
         C           -2.645161038230     1.865259065236    -0.039846970283    12.000000000000
         C           -1.533331038230     0.608806065236    -1.754899970283    12.000000000000
         C           -3.588655038230     2.303905065236    -0.963489970283    12.000000000000
         C           -2.476541038230     1.043861065236    -2.682064970283    12.000000000000
         C           -3.498711038230     1.906232065236    -2.294977970283    12.000000000000
         C            2.950046961770    -0.194717934764     0.420118029717    12.000000000000
         C            1.726453961770     0.170792065236    -1.602162970283    12.000000000000
         C            4.064699961770    -0.570009934764    -0.310410970283    12.000000000000
         C            2.850178961770    -0.193485934764    -2.340437970283    12.000000000000
         C            4.036707961770    -0.581769934764    -1.712800970283    12.000000000000
         H           -1.286192038230    -2.486861934764     3.992606029717     1.007825032230
         O            0.648040961770    -1.040175934764     2.906062029717    15.994914619570
         H           -2.726652038230     2.167153065236     0.995702029717     1.007825032230
         H           -0.816996038230    -0.139381934764    -2.051554970283     1.007825032230
         H           -4.398840038230     2.942442065236    -0.638804970283     1.007825032230
         H           -2.426636038230     0.682930065236    -3.700249970283     1.007825032230
         H           -4.230879038230     2.242334065236    -3.016136970283     1.007825032230
         H            2.997788961770    -0.204984934764     1.501237029717     1.007825032230
         H            0.876705961770     0.555215065236    -2.134678970283     1.007825032230
         H            4.969011961770    -0.859776934764     0.209222029717     1.007825032230
         H            2.807845961770    -0.142841934764    -3.421618970283     1.007825032230
         N            5.145806961770    -0.999312934764    -2.444746970283    14.003074004430
         H           -3.507423038230    -0.456014934764     1.031944029717     1.007825032230
         H           -3.628937038230    -2.237769934764     3.019470029717     1.007825032230
         H            6.063261961770    -0.864649934764    -2.064435970283     1.007825032230
         H            5.084902961770    -1.017567934764    -3.444929970283     1.007825032230

  Running in c1 symmetry.

  Rotational constants: A =      0.01354  B =      0.00746  C =      0.00514 [cm^-1]
  Rotational constants: A =    405.82939  B =    223.55200  C =    153.97325 [MHz]
  Nuclear repulsion = 1533.445911985266775

  Charge       = 0
  Multiplicity = 1
  Electrons    = 146
  Nalpha       = 73
  Nbeta        = 73

  ==> Algorithm <==

  SCF Algorithm Type is DF.
  DIIS enabled.
  MOM disabled.
  Fractional occupation disabled.
  Guess Type is SAD.
  Energy threshold   = 1.00e-06
  Density threshold  = 1.00e-06
  Integral threshold = 1.00e-12

  ==> Primary Basis <==

  Basis Set: 6-311+G*
    Blend: 6-311+G*
    Number of shells: 255
    Number of basis functions: 507
    Number of Cartesian functions: 528
    Spherical Harmonics?: true
    Max angular momentum: 2

  ==> DFT Potential <==

   => LibXC <=

    Version 5.1.5
    S. Lehtola, C. Steigemann, M. J. Oliveira, and M. A. Marques, SoftwareX 7, 1 (2018) (10.1016/j.softx.2017.11.002)

   => Composite Functional: WB97X-D <= 

    wB97X-D Hyb-GGA Exchange-Correlation Functional

    J.-D. Chai and M. Head-Gordon, Phys. Chem. Chem. Phys. 10, 6615 (2008) (10.1039/B810189B)

    Deriv               =              1
    GGA                 =           TRUE
    Meta                =          FALSE

    Exchange Hybrid     =           TRUE
    MP2 Hybrid          =          FALSE

   => Exchange-Correlation Functionals <=

    1.0000   wB97X-D range-separated functional

   => Exact (HF) Exchange <=

    0.7780            HF,LR [omega = 0.2000]
    0.2220               HF 

   => LibXC Density Thresholds  <==

    XC_HYB_GGA_XC_WB97X_D:  1.00E-14 

   => Molecular Quadrature <=

    Radial Scheme          =       TREUTLER
    Pruning Scheme         =           NONE
    Nuclear Scheme         =       TREUTLER

    BS radius alpha        =              1
    Pruning alpha          =              1
    Radial Points          =             75
    Spherical Points       =            302
    Total Points           =         745875
    Total Blocks           =           5234
    Max Points             =            256
    Max Functions          =            398
    Weights Tolerance      =       1.00E-15

   => Loading Basis Set <=

    Name: (6-311+G* AUX)
    Role: JKFIT
    Keyword: DF_BASIS_SCF
    atoms 1, 3-4, 6-7, 9-20   entry C          line   200 file /home/bdw2292/miniconda3/envs/newamoebamdpoltype/share/psi4/basis/heavy-aug-cc-pvtz-jkfit.gbs 
    atoms 2, 8, 32            entry N          line   262 file /home/bdw2292/miniconda3/envs/newamoebamdpoltype/share/psi4/basis/heavy-aug-cc-pvtz-jkfit.gbs 
    atoms 5, 21, 23-31, 33-36 entry H          line   116 file /home/bdw2292/miniconda3/envs/newamoebamdpoltype/share/psi4/basis/heavy-aug-cc-pvtz-jkfit.gbs 
    atoms 22                  entry O          line   324 file /home/bdw2292/miniconda3/envs/newamoebamdpoltype/share/psi4/basis/heavy-aug-cc-pvtz-jkfit.gbs 

  ==> Integral Setup <==

  ==> DiskDFJK: Density-Fitted J/K Matrices <==

    J tasked:                  Yes
    K tasked:                  Yes
    wK tasked:                 Yes
    Omega:               2.000E-01
    OpenMP threads:              2
    Integrals threads:           2
    Memory [MiB]:             2212
    Algorithm:                Disk
    Integral Cache:           NONE
    Schwarz Cutoff:          1E-12
    Fitting Condition:       1E-10

   => Auxiliary Basis Set <=

  Basis Set: (6-311+G* AUX)
    Blend: HEAVY-AUG-CC-PVTZ-JKFIT
    Number of shells: 780
    Number of basis functions: 2634
    Number of Cartesian functions: 3276
    Spherical Harmonics?: true
    Max angular momentum: 4

  Cached 50.0% of DFT collocation blocks in 2.921 [GiB].

  Minimum eigenvalue in the overlap matrix is 7.7422291960E-07.
  Reciprocal condition number of the overlap matrix is 4.6417569948E-08.
    Using symmetric orthogonalization.

  ==> Pre-Iterations <==

  SCF Guess: Superposition of Atomic Densities via on-the-fly atomic UHF (no occupation information).

   -------------------------
    Irrep   Nso     Nmo    
   -------------------------
     A        507     507 
   -------------------------
    Total     507     507
   -------------------------

  ==> Iterations <==

                           Total Energy        Delta E     RMS |[F,P]|

   @DF-RKS iter SAD:  -895.74568910683979   -8.95746e+02   0.00000e+00 
   @DF-RKS iter   1:  -895.29582726312799    4.49862e-01   2.65929e-03 DIIS
   @DF-RKS iter   2:  -895.69464889053381   -3.98822e-01   2.11425e-03 DIIS
   @DF-RKS iter   3:  -896.17534302446359   -4.80694e-01   3.51155e-04 DIIS
   @DF-RKS iter   4:  -896.18522291087470   -9.87989e-03   1.68993e-04 DIIS
   @DF-RKS iter   5:  -896.18799309627298   -2.77019e-03   4.25982e-05 DIIS
   @DF-RKS iter   6:  -896.18818680229401   -1.93706e-04   1.17288e-05 DIIS
   @DF-RKS iter   7:  -896.18820550338125   -1.87011e-05   3.28187e-06 DIIS
   @DF-RKS iter   8:  -896.18820745800724   -1.95463e-06   1.65757e-06 DIIS
   @DF-RKS iter   9:  -896.18820811514865   -6.57141e-07   5.84956e-07 DIIS
  Energy and wave function converged.


  ==> Post-Iterations <==

   Electrons on quadrature grid:
      Ntotal   =  146.0001365996 ; deviation = 1.366e-04 

    Orbital Energies [Eh]
    ---------------------

    Doubly Occupied:                                                      

       1A    -19.214374     2A    -14.471044     3A    -14.449553  
       4A    -14.432941     5A    -10.388776     6A    -10.362349  
       7A    -10.326703     8A    -10.324921     9A    -10.323796  
      10A    -10.313951    11A    -10.300618    12A    -10.300361  
      13A    -10.299993    14A    -10.299263    15A    -10.298949  
      16A    -10.295981    17A    -10.283331    18A    -10.281419  
      19A    -10.281146    20A    -10.279573    21A    -10.278731  
      22A     -1.132594    23A     -1.057064    24A     -1.048781  
      25A     -1.018226    26A     -0.975716    27A     -0.940516  
      28A     -0.904953    29A     -0.871246    30A     -0.860134  
      31A     -0.845110    32A     -0.837888    33A     -0.808228  
      34A     -0.765533    35A     -0.722635    36A     -0.713421  
      37A     -0.709036    38A     -0.694980    39A     -0.682363  
      40A     -0.655914    41A     -0.633220    42A     -0.614104  
      43A     -0.606505    44A     -0.600099    45A     -0.595134  
      46A     -0.571977    47A     -0.553991    48A     -0.551982  
      49A     -0.532748    50A     -0.528706    51A     -0.522132  
      52A     -0.519285    53A     -0.517222    54A     -0.504704  
      55A     -0.503777    56A     -0.500555    57A     -0.492414  
      58A     -0.481192    59A     -0.470146    60A     -0.461450  
      61A     -0.448372    62A     -0.438706    63A     -0.432962  
      64A     -0.420502    65A     -0.413222    66A     -0.385979  
      67A     -0.348169    68A     -0.340950    69A     -0.340752  
      70A     -0.333186    71A     -0.326093    72A     -0.285226  
      73A     -0.247457  

    Virtual:                                                              

      74A     -0.005127    75A      0.044169    76A      0.044687  
      77A      0.055678    78A      0.059565    79A      0.060877  
      80A      0.064801    81A      0.072091    82A      0.078687  
      83A      0.081643    84A      0.084302    85A      0.087165  
      86A      0.096747    87A      0.097688    88A      0.102564  
      89A      0.106292    90A      0.107462    91A      0.113073  
      92A      0.118334    93A      0.124321    94A      0.126039  
      95A      0.131603    96A      0.137483    97A      0.140159  
      98A      0.143152    99A      0.146670   100A      0.150961  
     101A      0.160088   102A      0.167906   103A      0.169291  
     104A      0.171041   105A      0.172662   106A      0.177606  
     107A      0.179638   108A      0.183749   109A      0.190681  
     110A      0.191763   111A      0.196520   112A      0.199651  
     113A      0.201839   114A      0.205347   115A      0.207084  
     116A      0.210976   117A      0.214647   118A      0.218557  
     119A      0.219844   120A      0.223557   121A      0.227104  
     122A      0.228678   123A      0.232044   124A      0.234166  
     125A      0.237352   126A      0.243707   127A      0.248548  
     128A      0.248945   129A      0.250065   130A      0.251341  
     131A      0.257996   132A      0.259878   133A      0.260666  
     134A      0.261811   135A      0.265516   136A      0.268824  
     137A      0.272197   138A      0.274741   139A      0.276186  
     140A      0.277548   141A      0.281066   142A      0.283161  
     143A      0.288872   144A      0.289926   145A      0.294186  
     146A      0.296901   147A      0.298544   148A      0.304522  
     149A      0.307879   150A      0.310200   151A      0.311964  
     152A      0.313145   153A      0.315117   154A      0.320047  
     155A      0.323264   156A      0.326812   157A      0.332437  
     158A      0.336620   159A      0.338766   160A      0.341476  
     161A      0.342726   162A      0.346023   163A      0.347929  
     164A      0.349980   165A      0.354698   166A      0.355071  
     167A      0.362956   168A      0.364579   169A      0.369078  
     170A      0.376454   171A      0.377865   172A      0.381386  
     173A      0.384843   174A      0.392812   175A      0.393668  
     176A      0.399162   177A      0.402692   178A      0.408271  
     179A      0.409479   180A      0.415536   181A      0.420122  
     182A      0.423067   183A      0.429806   184A      0.432629  
     185A      0.440083   186A      0.447359   187A      0.449078  
     188A      0.454445   189A      0.461500   190A      0.464941  
     191A      0.469071   192A      0.478029   193A      0.482871  
     194A      0.495005   195A      0.499165   196A      0.515031  
     197A      0.537302   198A      0.544000   199A      0.568167  
     200A      0.575930   201A      0.589186   202A      0.597230  
     203A      0.605660   204A      0.612536   205A      0.614162  
     206A      0.618959   207A      0.628082   208A      0.631019  
     209A      0.635006   210A      0.639149   211A      0.641879  
     212A      0.648138   213A      0.656545   214A      0.664296  
     215A      0.669087   216A      0.670458   217A      0.678859  
     218A      0.686898   219A      0.694209   220A      0.697445  
     221A      0.705071   222A      0.717189   223A      0.722722  
     224A      0.726397   225A      0.737480   226A      0.742618  
     227A      0.746685   228A      0.750582   229A      0.752429  
     230A      0.761291   231A      0.771030   232A      0.773682  
     233A      0.783547   234A      0.790089   235A      0.794390  
     236A      0.794802   237A      0.797813   238A      0.802042  
     239A      0.806924   240A      0.816005   241A      0.818469  
     242A      0.825976   243A      0.829176   244A      0.833226  
     245A      0.840371   246A      0.842262   247A      0.851973  
     248A      0.855851   249A      0.860130   250A      0.878049  
     251A      0.880429   252A      0.885938   253A      0.889959  
     254A      0.904966   255A      0.912113   256A      0.914382  
     257A      0.922617   258A      0.924335   259A      0.927961  
     260A      0.929205   261A      0.934650   262A      0.939952  
     263A      0.945431   264A      0.947487   265A      0.951316  
     266A      0.960202   267A      0.966049   268A      0.972896  
     269A      0.977396   270A      0.993285   271A      1.001253  
     272A      1.007922   273A      1.015239   274A      1.029124  
     275A      1.031133   276A      1.033780   277A      1.042828  
     278A      1.058829   279A      1.063515   280A      1.068396  
     281A      1.078457   282A      1.086573   283A      1.095735  
     284A      1.100763   285A      1.118476   286A      1.121179  
     287A      1.133705   288A      1.140786   289A      1.147129  
     290A      1.157292   291A      1.177997   292A      1.189857  
     293A      1.198732   294A      1.223203   295A      1.235648  
     296A      1.243128   297A      1.260676   298A      1.269431  
     299A      1.273627   300A      1.282922   301A      1.291684  
     302A      1.300524   303A      1.316774   304A      1.321909  
     305A      1.330444   306A      1.333435   307A      1.349303  
     308A      1.359057   309A      1.372938   310A      1.376626  
     311A      1.394687   312A      1.402695   313A      1.418870  
     314A      1.425104   315A      1.449809   316A      1.462177  
     317A      1.477135   318A      1.513387   319A      1.529313  
     320A      1.556345   321A      1.584457   322A      1.598599  
     323A      1.601699   324A      1.612461   325A      1.626677  
     326A      1.641797   327A      1.661049   328A      1.681468  
     329A      1.688973   330A      1.691723   331A      1.702397  
     332A      1.736851   333A      1.739849   334A      1.759227  
     335A      1.795631   336A      1.813026   337A      1.839665  
     338A      1.846679   339A      1.850677   340A      1.862326  
     341A      1.872584   342A      1.877850   343A      1.880696  
     344A      1.899584   345A      1.903212   346A      1.905144  
     347A      1.914309   348A      1.928659   349A      1.937746  
     350A      1.944756   351A      1.950574   352A      1.960724  
     353A      1.968992   354A      1.982968   355A      1.999804  
     356A      2.017290   357A      2.024207   358A      2.033057  
     359A      2.045805   360A      2.049458   361A      2.067347  
     362A      2.073572   363A      2.084661   364A      2.089693  
     365A      2.103023   366A      2.116283   367A      2.150947  
     368A      2.161388   369A      2.171373   370A      2.182226  
     371A      2.190202   372A      2.207304   373A      2.246391  
     374A      2.273441   375A      2.300655   376A      2.323384  
     377A      2.341866   378A      2.348058   379A      2.351890  
     380A      2.368483   381A      2.389296   382A      2.394420  
     383A      2.403462   384A      2.408492   385A      2.426061  
     386A      2.438729   387A      2.448758   388A      2.464380  
     389A      2.477249   390A      2.486567   391A      2.508345  
     392A      2.522769   393A      2.542090   394A      2.568583  
     395A      2.579201   396A      2.598993   397A      2.642424  
     398A      2.656497   399A      2.697525   400A      2.727517  
     401A      2.745023   402A      2.757107   403A      2.762446  
     404A      2.785273   405A      2.792384   406A      2.797241  
     407A      2.808542   408A      2.824509   409A      2.848408  
     410A      2.862961   411A      2.884400   412A      2.894605  
     413A      2.907320   414A      2.915842   415A      2.931089  
     416A      2.949250   417A      2.975370   418A      2.978871  
     419A      2.990460   420A      3.002243   421A      3.007509  
     422A      3.035289   423A      3.037116   424A      3.046618  
     425A      3.065229   426A      3.075323   427A      3.093433  
     428A      3.117320   429A      3.142958   430A      3.168546  
     431A      3.198560   432A      3.205185   433A      3.215202  
     434A      3.234681   435A      3.247415   436A      3.271389  
     437A      3.295382   438A      3.320867   439A      3.392525  
     440A      3.401055   441A      3.416537   442A      3.420981  
     443A      3.426506   444A      3.435726   445A      3.439802  
     446A      3.447500   447A      3.463299   448A      3.472314  
     449A      3.481975   450A      3.494550   451A      3.511708  
     452A      3.538563   453A      3.573485   454A      3.595845  
     455A      3.625385   456A      3.631590   457A      3.665016  
     458A      3.701349   459A      3.755682   460A      3.761268  
     461A      3.776799   462A      3.784505   463A      3.868951  
     464A      3.881182   465A      3.984686   466A      3.994621  
     467A      4.001532   468A      4.061550   469A      4.116035  
     470A      4.137552   471A      4.144661   472A      4.180568  
     473A      4.264554   474A      4.324544   475A      4.338544  
     476A      4.498080   477A      4.622519   478A      4.654409  
     479A      4.873797   480A      4.878309   481A      4.904979  
     482A      5.117011   483A      5.197763   484A      5.208873  
     485A      5.384599   486A      5.902246   487A     23.502325  
     488A     23.554951   489A     23.695093   490A     23.898457  
     491A     23.982327   492A     23.991661   493A     23.994523  
     494A     24.023560   495A     24.039032   496A     24.135254  
     497A     24.154971   498A     24.176621   499A     24.207364  
     500A     24.245597   501A     24.277385   502A     24.282181  
     503A     24.298537   504A     35.635550   505A     35.640988  
     506A     35.727108   507A     50.185225  

    Final Occupation by Irrep:
              A 
    DOCC [    73 ]

  @DF-RKS Final Energy:  -896.18820811514865

   => Energetics <=

    Nuclear Repulsion Energy =           1533.4459119852667754
    One-Electron Energy =               -4260.4813778398629438
    Two-Electron Energy =                1918.6237752435370112
    DFT Exchange-Correlation Energy =     -87.7510352881930373
    Empirical Dispersion Energy =          -0.0254822158963341
    VV10 Nonlocal Energy =                  0.0000000000000000
    Total Energy =                       -896.1882081151485409

Computation Completed


Properties will be evaluated at   0.000000,   0.000000,   0.000000 [a0]

Properties computed using the SCF density matrix

  Nuclear Dipole Moment: [e a0]
     X:     0.7155      Y:     0.5076      Z:    -7.6013

  Electronic Dipole Moment: [e a0]
     X:    -1.4156      Y:    -0.6504      Z:     6.8541

  Dipole Moment: [e a0]
     X:    -0.7001      Y:    -0.1428      Z:    -0.7472     Total:     1.0339

  Dipole Moment: [D]
     X:    -1.7795      Y:    -0.3629      Z:    -1.8992     Total:     2.6278


*** tstop() called on node74.bme.utexas.edu at Thu Jun  9 08:29:57 2022
Module time:
	user time   =     836.81 seconds =      13.95 minutes
	system time =      32.31 seconds =       0.54 minutes
	total time  =        448 seconds =       7.47 minutes
Total time:
	user time   =     836.81 seconds =      13.95 minutes
	system time =      32.31 seconds =       0.54 minutes
	total time  =        448 seconds =       7.47 minutes


Properties will be evaluated at   0.000000,   0.000000,   0.000000 [a0]
OEProp: No title given, name of density matrix used for the following properties is 'SCF density'


  Wiberg Bond Indices using Orthogonal Lowdin Orbitals:

  Irrep: 1 Size: 36 x 36

                 1                   2                   3                   4                   5

    1     0.00000000000000     1.18028213255323     0.09301786056144     0.03238378560836     0.04116082559549
    2     1.18028213255323     0.00000000000000     1.31202434751609     0.16627823448040     0.75211566403765
    3     0.09301786056144     1.31202434751609     0.00000000000000     1.50956076619530     0.04343766127071
    4     0.03238378560836     0.16627823448040     1.50956076619530     0.00000000000000     0.01437707603534
    5     0.04116082559549     0.75211566403765     0.04343766127071     0.01437707603534     0.00000000000000
    6     0.01549390497083     0.10109527027154     1.00272032328367     0.12220164481475     0.00717170479340
    7     0.00276085637518     0.01981493330543     0.10995282086777     1.13456312916908     0.00116279657866
    8     0.00097766007035     0.00469208872422     0.01739177530016     0.13202398901669     0.00095472670998
    9     0.01051778112369     0.05784101910355     0.12995979851759     1.04664422808883     0.01114617253219
   10     0.00438711780506     0.02126028775948     0.07896458029108     0.15824009816241     0.00058499517573
   11     0.00249598591802     0.01996624229175     0.12333252130234     0.05016639843676     0.00074817021186
   12     0.01340965575996     0.02465329512151     0.11260644775806     0.03429924230775     0.00077069351702
   13     0.00051102860077     0.00189356225276     0.01660617093744     0.00569370622627     0.00020492959044
   14     0.00140768939380     0.00227067492792     0.01687376798610     0.00432148479356     0.00010908258842
   15     0.00064533049357     0.00327150205447     0.01007518031279     0.00638074613973     0.00011130044064
   16     1.37315135913648     0.13795894125067     0.02631187858314     0.00780787159679     0.01789880754731
   17     1.40775075126729     0.12360654009008     0.02843619910478     0.00927639269916     0.00672780479177
   18     0.13446719535196     0.01789838840544     0.00350549794920     0.00103523940025     0.00157782921698
   19     0.13755750482527     0.01635278547169     0.00317203472512     0.00115026927523     0.00075781860776
   20     0.11650216805413     0.01525040663154     0.00542789301232     0.00315376428216     0.00064052134272
   21     0.00006628550143     0.00026507902100     0.00150928986109     0.01138142298297     0.00009823147507
   22     0.01699934348068     0.09192875401444     0.08195547633752     0.13459571382787     0.04788379194901
   23     0.00012146122994     0.00059133542907     0.01783760714149     0.00873992666635     0.00001341513445
   24     0.00488118171071     0.00278004379419     0.01428715465013     0.00285801447827     0.00003804172302
   25     0.00004264830990     0.00021382731560     0.00119719066485     0.00023693571114     0.00001950968694
   26     0.00007843919292     0.00020716053970     0.00116121766374     0.00038583295631     0.00000906769675
   27     0.00003053093488     0.00004067208372     0.00030074153703     0.00005512913231     0.00000603340652
   28     0.05445663930867     0.02008421920393     0.00191997939320     0.00041749105429     0.00335263753354
   29     0.05433837050000     0.01206564654845     0.00457911473997     0.00030935619833     0.00016617394210
   30     0.01066025529251     0.00080484281346     0.00035867931353     0.00010815868580     0.00003729026920
   31     0.01057644882742     0.00077334496032     0.00018762332469     0.00007308612354     0.00024905908796
   32     0.02582488820288     0.00303879057165     0.00211760689220     0.00106701662180     0.00013893712420
   33     0.00007933442985     0.00018915754964     0.01004275065873     0.04674688087739     0.00003855549556
   34     0.00009031272237     0.00041672144390     0.00163010512894     0.01386886479840     0.00013166645262
   35     0.00111073093554     0.00019007483422     0.00007211421741     0.00004051000533     0.00002199687844
   36     0.00043893260971     0.00007672819974     0.00003277237318     0.00000764822001     0.00002424112392

                 6                   7                   8                   9                  10

    1     0.01549390497083     0.00276085637518     0.00097766007035     0.01051778112369     0.00438711780506
    2     0.10109527027154     0.01981493330543     0.00469208872422     0.05784101910355     0.02126028775948
    3     1.00272032328367     0.10995282086777     0.01739177530016     0.12995979851759     0.07896458029108
    4     0.12220164481475     1.13456312916908     0.13202398901669     1.04664422808883     0.15824009816241
    5     0.00717170479340     0.00116279657866     0.00095472670998     0.01114617253219     0.00058499517573
    6     0.00000000000000     0.03954016213008     0.00280599674565     0.01526419393373     0.00703838991116
    7     0.03954016213008     0.00000000000000     0.19659400043666     0.13087126597680     1.81419769636785
    8     0.00280599674565     0.19659400043666     0.00000000000000     1.34606481643881     1.25871256099876
    9     0.01526419393373     0.13087126597680     1.34606481643881     0.00000000000000     0.13287295267269
   10     0.00703838991116     1.81419769636785     1.25871256099876     0.13287295267269     0.00000000000000
   11     1.40901194604783     0.04013381587560     0.00191425035520     0.00564808493261     0.00639018705081
   12     1.41208749236068     0.01187591213535     0.00087681842488     0.00465012520769     0.00270705989848
   13     0.13181634683716     0.00996763545511     0.00046231840939     0.00078302632077     0.00112079848400
   14     0.13381280247724     0.00307110525544     0.00026979545374     0.00056368881453     0.00057733209678
   15     0.13768865668541     0.00265502693522     0.00022960859463     0.00139486063059     0.00098981638723
   16     0.00305523118594     0.00090445923822     0.00080089178021     0.00669669443102     0.00184832728573
   17     0.01654700856297     0.00091783616733     0.00021042539978     0.00308693359955     0.00216558408971
   18     0.00066344721723     0.00015884600496     0.00011848413229     0.00066493998907     0.00021256106263
   19     0.00142403370965     0.00013498758199     0.00004538317959     0.00061936333864     0.00036857975525
   20     0.00090169378570     0.00035719625177     0.00007758019569     0.00134534338809     0.00124776145109
   21     0.00046100098177     0.01055046335975     0.80827674143989     0.04346944627123     0.04139841474337
   22     0.00465362877408     0.02227498940871     0.21805655792304     2.07502770968906     0.02463405496475
   23     0.05398218474860     0.00788055619974     0.00028219641605     0.00059421089044     0.00063514860658
   24     0.05334169763265     0.00058821802088     0.00003821978700     0.00013182463414     0.00007517223263
   25     0.01059604023158     0.00017012807330     0.00001124070595     0.00003899887369     0.00005337570637
   26     0.01062631037652     0.00008348653800     0.00001461473359     0.00005929134293     0.00004858644282
   27     0.00280467437498     0.00002585072785     0.00000637420635     0.00001202408435     0.00000896160506
   28     0.00022317288497     0.00004060536729     0.00013199039335     0.00156245179610     0.00003499716596
   29     0.00657123890899     0.00006491874245     0.00001670228060     0.00006155933063     0.00001658442675
   30     0.00004386068388     0.00001497130904     0.00000297074019     0.00003339673943     0.00002189604701
   31     0.00009345380534     0.00001133624730     0.00000303198122     0.00004477522103     0.00001046049022
   32     0.00028043094064     0.00014511871796     0.00003205985009     0.00053790887450     0.00048388600477
   33     0.01017474473452     0.80768640577024     0.01106880088875     0.00924310229637     0.05901491802048
   34     0.00032876348429     0.05877130048735     0.05466540800391     0.01213357184594     0.83461838962224
   35     0.00001960184487     0.00000497195369     0.00000102548806     0.00001576698837     0.00001537748274
   36     0.00001143698005     0.00000147449016     0.00000049314488     0.00000915779783     0.00000131193219

                11                  12                  13                  14                  15

    1     0.00249598591802     0.01340965575996     0.00051102860077     0.00140768939380     0.00064533049357
    2     0.01996624229175     0.02465329512151     0.00189356225276     0.00227067492792     0.00327150205447
    3     0.12333252130234     0.11260644775806     0.01660617093744     0.01687376798610     0.01007518031279
    4     0.05016639843676     0.03429924230775     0.00569370622627     0.00432148479356     0.00638074613973
    5     0.00074817021186     0.00077069351702     0.00020492959044     0.00010908258842     0.00011130044064
    6     1.40901194604783     1.41208749236068     0.13181634683716     0.13381280247724     0.13768865668541
    7     0.04013381587560     0.01187591213535     0.00996763545511     0.00307110525544     0.00265502693522
    8     0.00191425035520     0.00087681842488     0.00046231840939     0.00026979545374     0.00022960859463
    9     0.00564808493261     0.00465012520769     0.00078302632077     0.00056368881453     0.00139486063059
   10     0.00639018705081     0.00270705989848     0.00112079848400     0.00057733209678     0.00098981638723
   11     0.00000000000000     0.13040567002702     1.51934674621193     0.14494061623567     0.13880018824564
   12     0.13040567002702     0.00000000000000     0.14533321973867     1.51436840962685     0.13856105001675
   13     1.51934674621193     0.14533321973867     0.00000000000000     0.13852625128132     1.51773787646829
   14     0.14494061623567     1.51436840962685     0.13852625128132     0.00000000000000     1.51841192380349
   15     0.13880018824564     0.13856105001675     1.51773787646829     1.51841192380349     0.00000000000000
   16     0.00063896446905     0.00168281357454     0.00011821862267     0.00022635774890     0.00014154778511
   17     0.00185239649420     0.04618023080783     0.00160998397620     0.00769958448559     0.00111524565817
   18     0.00014237413099     0.00117516188187     0.00003169179760     0.00013144317417     0.00005341456568
   19     0.00020834399919     0.00567259108648     0.00018820923013     0.00061090037587     0.00014900463017
   20     0.00017716108749     0.00108711746428     0.00005338524498     0.00019033890464     0.00005370819587
   21     0.00015836718053     0.00011311276056     0.00003730072509     0.00002486370887     0.00004624176995
   22     0.00271587342002     0.00252010487793     0.00039500164703     0.00031368720322     0.00088619053106
   23     0.80755651987846     0.00935228207214     0.05504099619579     0.00213444886455     0.01032613596925
   24     0.00946146996156     0.80198756442031     0.00215156380509     0.05466048175935     0.01005574407893
   25     0.06037924071974     0.00261609910946     0.83277861568459     0.01132691313832     0.05870018384043
   26     0.00253355703852     0.06015782361832     0.01139194736569     0.83289131950293     0.05873777736719
   27     0.01123254443461     0.01119068569082     0.05895045045677     0.05914968633237     0.83549287038318
   28     0.00005284588508     0.00013987025768     0.00002178549595     0.00002356767389     0.00001344195581
   29     0.00057794435008     0.02291676057547     0.00070723185935     0.00343846012624     0.00026335496396
   30     0.00001473583296     0.00003548225703     0.00000327250456     0.00001277012752     0.00000365124991
   31     0.00001070195443     0.00020235804443     0.00001185397410     0.00003186796726     0.00000709428240
   32     0.00007341141147     0.00023863297899     0.00001293120303     0.00004798871807     0.00002174673859
   33     0.01364494004149     0.00271805606779     0.00359087579492     0.00094039343117     0.00079237025955
   34     0.00021906960483     0.00007536635910     0.00002516237796     0.00001392502599     0.00001023313605
   35     0.00000283638622     0.00004223081926     0.00000190430316     0.00000991330674     0.00000103666371
   36     0.00000284491838     0.00001853336717     0.00000138778696     0.00000390698961     0.00000089728746

                16                  17                  18                  19                  20

    1     1.37315135913648     1.40775075126729     0.13446719535196     0.13755750482527     0.11650216805413
    2     0.13795894125067     0.12360654009008     0.01789838840544     0.01635278547169     0.01525040663154
    3     0.02631187858314     0.02843619910478     0.00350549794920     0.00317203472512     0.00542789301232
    4     0.00780787159679     0.00927639269916     0.00103523940025     0.00115026927523     0.00315376428216
    5     0.01789880754731     0.00672780479177     0.00157782921698     0.00075781860776     0.00064052134272
    6     0.00305523118594     0.01654700856297     0.00066344721723     0.00142403370965     0.00090169378570
    7     0.00090445923822     0.00091783616733     0.00015884600496     0.00013498758199     0.00035719625177
    8     0.00080089178021     0.00021042539978     0.00011848413229     0.00004538317959     0.00007758019569
    9     0.00669669443102     0.00308693359955     0.00066493998907     0.00061936333864     0.00134534338809
   10     0.00184832728573     0.00216558408971     0.00021256106263     0.00036857975525     0.00124776145109
   11     0.00063896446905     0.00185239649420     0.00014237413099     0.00020834399919     0.00017716108749
   12     0.00168281357454     0.04618023080783     0.00117516188187     0.00567259108648     0.00108711746428
   13     0.00011821862267     0.00160998397620     0.00003169179760     0.00018820923013     0.00005338524498
   14     0.00022635774890     0.00769958448559     0.00013144317417     0.00061090037587     0.00019033890464
   15     0.00014154778511     0.00111524565817     0.00005341456568     0.00014900463017     0.00005370819587
   16     0.00000000000000     0.13057839858843     1.55396423759447     0.13870862499821     0.13622838866637
   17     0.13057839858843     0.00000000000000     0.13608993856160     1.50888953073168     0.13540559393128
   18     1.55396423759447     0.13608993856160     0.00000000000000     0.13368324701524     1.38128387739343
   19     0.13870862499821     1.50888953073168     0.13368324701524     0.00000000000000     1.41205296021269
   20     0.13622838866637     0.13540559393128     1.38128387739343     1.41205296021269     0.00000000000000
   21     0.00004666870135     0.00002009630858     0.00000712264515     0.00000366217492     0.00000234904886
   22     0.02287940288979     0.00343942699264     0.00207012746340     0.00110080722873     0.00142787989987
   23     0.00003590817479     0.00009083432209     0.00001457460712     0.00001787487833     0.00000879660436
   24     0.00027395382614     0.01911125645359     0.00048375975189     0.00216075889671     0.00023786812642
   25     0.00001437101028     0.00003688549463     0.00000335662941     0.00001166227478     0.00000267969133
   26     0.00002353156566     0.00018040654111     0.00001013426127     0.00001785468765     0.00001488475583
   27     0.00000670260819     0.00008176191632     0.00000689162921     0.00001551596818     0.00000372524481
   28     0.80886464037200     0.00980130686861     0.05805526003357     0.00248179295358     0.00995667881384
   29     0.00968181791182     0.79829938907052     0.00227061849272     0.05657966339048     0.00929225412403
   30     0.05947048977641     0.00284164508808     0.82043552655789     0.01039711534916     0.05698514377162
   31     0.00267842833755     0.05852876449153     0.01062134802139     0.82133039211520     0.05774608146572
   32     0.02048891447938     0.01973915204014     0.15317942512827     0.15736092355671     1.33762392024748
   33     0.00005390249958     0.00006863563454     0.00001238010205     0.00001656852283     0.00000924603110
   34     0.00006908559703     0.00002802356178     0.00000871612760     0.00000522984199     0.00000830539599
   35     0.00125276202167     0.00128355310729     0.01385007343267     0.01113265747037     0.04653944880377
   36     0.00128964404260     0.00131309130539     0.00980214196992     0.01450332923100     0.04685559138659

                21                  22                  23                  24                  25

    1     0.00006628550143     0.01699934348068     0.00012146122994     0.00488118171071     0.00004264830990
    2     0.00026507902100     0.09192875401444     0.00059133542907     0.00278004379419     0.00021382731560
    3     0.00150928986109     0.08195547633752     0.01783760714149     0.01428715465013     0.00119719066485
    4     0.01138142298297     0.13459571382787     0.00873992666635     0.00285801447827     0.00023693571114
    5     0.00009823147507     0.04788379194901     0.00001341513445     0.00003804172302     0.00001950968694
    6     0.00046100098177     0.00465362877408     0.05398218474860     0.05334169763265     0.01059604023158
    7     0.01055046335975     0.02227498940871     0.00788055619974     0.00058821802088     0.00017012807330
    8     0.80827674143989     0.21805655792304     0.00028219641605     0.00003821978700     0.00001124070595
    9     0.04346944627123     2.07502770968906     0.00059421089044     0.00013182463414     0.00003899887369
   10     0.04139841474337     0.02463405496475     0.00063514860658     0.00007517223263     0.00005337570637
   11     0.00015836718053     0.00271587342002     0.80755651987846     0.00946146996156     0.06037924071974
   12     0.00011311276056     0.00252010487793     0.00935228207214     0.80198756442031     0.00261609910946
   13     0.00003730072509     0.00039500164703     0.05504099619579     0.00215156380509     0.83277861568459
   14     0.00002486370887     0.00031368720322     0.00213444886455     0.05466048175935     0.01132691313832
   15     0.00004624176995     0.00088619053106     0.01032613596925     0.01005574407893     0.05870018384043
   16     0.00004666870135     0.02287940288979     0.00003590817479     0.00027395382614     0.00001437101028
   17     0.00002009630858     0.00343942699264     0.00009083432209     0.01911125645359     0.00003688549463
   18     0.00000712264515     0.00207012746340     0.00001457460712     0.00048375975189     0.00000335662941
   19     0.00000366217492     0.00110080722873     0.00001787487833     0.00216075889671     0.00001166227478
   20     0.00000234904886     0.00142787989987     0.00000879660436     0.00023786812642     0.00000267969133
   21     0.00000000000000     0.01034093794945     0.00000808681748     0.00000165578360     0.00000130482852
   22     0.01034093794945     0.00000000000000     0.00015967080188     0.00014289161650     0.00003785001326
   23     0.00000808681748     0.00015967080188     0.00000000000000     0.00037334286971     0.00527964687645
   24     0.00000165578360     0.00014289161650     0.00037334286971     0.00000000000000     0.00023650760727
   25     0.00000130482852     0.00003785001326     0.00527964687645     0.00023650760727     0.00000000000000
   26     0.00000034627926     0.00004183796931     0.00023887181663     0.00544005440749     0.00026163859340
   27     0.00000061467069     0.00000367303203     0.00024219647304     0.00023440216636     0.00515860581905
   28     0.00001056558129     0.00561830390622     0.00000563660311     0.00002751872627     0.00000154533507
   29     0.00000093816313     0.00009826525480     0.00001786171954     0.00744869302683     0.00001890624787
   30     0.00000005053307     0.00010723237176     0.00000039917669     0.00001457913824     0.00000049253752
   31     0.00000065757077     0.00003362847836     0.00000072028967     0.00006794071175     0.00000025555308
   32     0.00000043300636     0.00049591529130     0.00000099053800     0.00005715970233     0.00000056231224
   33     0.00046593633020     0.00191830489310     0.00122437056837     0.00006763831774     0.00008793830158
   34     0.00274037120167     0.00161659782159     0.00001071432663     0.00000461077966     0.00000435985113
   35     0.00000011039092     0.00002252852702     0.00000021517653     0.00000602592638     0.00000016916933
   36     0.00000011564781     0.00001668875447     0.00000010782119     0.00000618054534     0.00000012717837

                26                  27                  28                  29                  30

    1     0.00007843919292     0.00003053093488     0.05445663930867     0.05433837050000     0.01066025529251
    2     0.00020716053970     0.00004067208372     0.02008421920393     0.01206564654845     0.00080484281346
    3     0.00116121766374     0.00030074153703     0.00191997939320     0.00457911473997     0.00035867931353
    4     0.00038583295631     0.00005512913231     0.00041749105429     0.00030935619833     0.00010815868580
    5     0.00000906769675     0.00000603340652     0.00335263753354     0.00016617394210     0.00003729026920
    6     0.01062631037652     0.00280467437498     0.00022317288497     0.00657123890899     0.00004386068388
    7     0.00008348653800     0.00002585072785     0.00004060536729     0.00006491874245     0.00001497130904
    8     0.00001461473359     0.00000637420635     0.00013199039335     0.00001670228060     0.00000297074019
    9     0.00005929134293     0.00001202408435     0.00156245179610     0.00006155933063     0.00003339673943
   10     0.00004858644282     0.00000896160506     0.00003499716596     0.00001658442675     0.00002189604701
   11     0.00253355703852     0.01123254443461     0.00005284588508     0.00057794435008     0.00001473583296
   12     0.06015782361832     0.01119068569082     0.00013987025768     0.02291676057547     0.00003548225703
   13     0.01139194736569     0.05895045045677     0.00002178549595     0.00070723185935     0.00000327250456
   14     0.83289131950293     0.05914968633237     0.00002356767389     0.00343846012624     0.00001277012752
   15     0.05873777736719     0.83549287038318     0.00001344195581     0.00026335496396     0.00000365124991
   16     0.00002353156566     0.00000670260819     0.80886464037200     0.00968181791182     0.05947048977641
   17     0.00018040654111     0.00008176191632     0.00980130686861     0.79829938907052     0.00284164508808
   18     0.00001013426127     0.00000689162921     0.05805526003357     0.00227061849272     0.82043552655789
   19     0.00001785468765     0.00001551596818     0.00248179295358     0.05657966339048     0.01039711534916
   20     0.00001488475583     0.00000372524481     0.00995667881384     0.00929225412403     0.05698514377162
   21     0.00000034627926     0.00000061467069     0.00001056558129     0.00000093816313     0.00000005053307
   22     0.00004183796931     0.00000367303203     0.00561830390622     0.00009826525480     0.00010723237176
   23     0.00023887181663     0.00024219647304     0.00000563660311     0.00001786171954     0.00000039917669
   24     0.00544005440749     0.00023440216636     0.00002751872627     0.00744869302683     0.00001457913824
   25     0.00026163859340     0.00515860581905     0.00000154533507     0.00001890624787     0.00000049253752
   26     0.00000000000000     0.00515341382707     0.00000116960564     0.00009365564086     0.00000043269833
   27     0.00515341382707     0.00000000000000     0.00000020702257     0.00001715510511     0.00000016962457
   28     0.00000116960564     0.00000020702257     0.00000000000000     0.00047548672978     0.00551717848230
   29     0.00009365564086     0.00001715510511     0.00047548672978     0.00000000000000     0.00015805210997
   30     0.00000043269833     0.00000016962457     0.00551717848230     0.00015805210997     0.00000000000000
   31     0.00000126681709     0.00000052800152     0.00016258740112     0.00574241412230     0.00044579270790
   32     0.00000552010439     0.00000060507529     0.00079842948355     0.00075963621817     0.01694385145416
   33     0.00000211665232     0.00000305985927     0.00000304239783     0.00003630059364     0.00000030663435
   34     0.00000129193641     0.00000082216353     0.00001771614755     0.00000463965559     0.00000127535844
   35     0.00000005515578     0.00000022119367     0.00005435063825     0.00032162872759     0.00102055462867
   36     0.00000005000929     0.00000004132775     0.00038903006066     0.00004865227438     0.00043967677504

                31                  32                  33                  34                  35

    1     0.01057644882742     0.02582488820288     0.00007933442985     0.00009031272237     0.00111073093554
    2     0.00077334496032     0.00303879057165     0.00018915754964     0.00041672144390     0.00019007483422
    3     0.00018762332469     0.00211760689220     0.01004275065873     0.00163010512894     0.00007211421741
    4     0.00007308612354     0.00106701662180     0.04674688087739     0.01386886479840     0.00004051000533
    5     0.00024905908796     0.00013893712420     0.00003855549556     0.00013166645262     0.00002199687844
    6     0.00009345380534     0.00028043094064     0.01017474473452     0.00032876348429     0.00001960184487
    7     0.00001133624730     0.00014511871796     0.80768640577024     0.05877130048735     0.00000497195369
    8     0.00000303198122     0.00003205985009     0.01106880088875     0.05466540800391     0.00000102548806
    9     0.00004477522103     0.00053790887450     0.00924310229637     0.01213357184594     0.00001576698837
   10     0.00001046049022     0.00048388600477     0.05901491802048     0.83461838962224     0.00001537748274
   11     0.00001070195443     0.00007341141147     0.01364494004149     0.00021906960483     0.00000283638622
   12     0.00020235804443     0.00023863297899     0.00271805606779     0.00007536635910     0.00004223081926
   13     0.00001185397410     0.00001293120303     0.00359087579492     0.00002516237796     0.00000190430316
   14     0.00003186796726     0.00004798871807     0.00094039343117     0.00001392502599     0.00000991330674
   15     0.00000709428240     0.00002174673859     0.00079237025955     0.00001023313605     0.00000103666371
   16     0.00267842833755     0.02048891447938     0.00005390249958     0.00006908559703     0.00125276202167
   17     0.05852876449153     0.01973915204014     0.00006863563454     0.00002802356178     0.00128355310729
   18     0.01062134802139     0.15317942512827     0.00001238010205     0.00000871612760     0.01385007343267
   19     0.82133039211520     0.15736092355671     0.00001656852283     0.00000522984199     0.01113265747037
   20     0.05774608146572     1.33762392024748     0.00000924603110     0.00000830539599     0.04653944880377
   21     0.00000065757077     0.00000043300636     0.00046593633020     0.00274037120167     0.00000011039092
   22     0.00003362847836     0.00049591529130     0.00191830489310     0.00161659782159     0.00002252852702
   23     0.00000072028967     0.00000099053800     0.00122437056837     0.00001071432663     0.00000021517653
   24     0.00006794071175     0.00005715970233     0.00006763831774     0.00000461077966     0.00000602592638
   25     0.00000025555308     0.00000056231224     0.00008793830158     0.00000435985113     0.00000016916933
   26     0.00000126681709     0.00000552010439     0.00000211665232     0.00000129193641     0.00000005515578
   27     0.00000052800152     0.00000060507529     0.00000305985927     0.00000082216353     0.00000022119367
   28     0.00016258740112     0.00079842948355     0.00000304239783     0.00001771614755     0.00005435063825
   29     0.00574241412230     0.00075963621817     0.00003630059364     0.00000463965559     0.00032162872759
   30     0.00044579270790     0.01694385145416     0.00000030663435     0.00000127535844     0.00102055462867
   31     0.00000000000000     0.01704563594388     0.00000046109254     0.00000074458128     0.00032937998384
   32     0.01704563594388     0.00000000000000     0.00000141279432     0.00000233637724     0.85975737552482
   33     0.00000046109254     0.00000141279432     0.00000000000000     0.00254245612606     0.00000035039772
   34     0.00000074458128     0.00000233637724     0.00254245612606     0.00000000000000     0.00000035866064
   35     0.00032937998384     0.85975737552482     0.00000035039772     0.00000035866064     0.00000000000000
   36     0.00146207612583     0.86257815865005     0.00000020810130     0.00000011454965     0.01129531604154

                36

    1     0.00043893260971
    2     0.00007672819974
    3     0.00003277237318
    4     0.00000764822001
    5     0.00002424112392
    6     0.00001143698005
    7     0.00000147449016
    8     0.00000049314488
    9     0.00000915779783
   10     0.00000131193219
   11     0.00000284491838
   12     0.00001853336717
   13     0.00000138778696
   14     0.00000390698961
   15     0.00000089728746
   16     0.00128964404260
   17     0.00131309130539
   18     0.00980214196992
   19     0.01450332923100
   20     0.04685559138659
   21     0.00000011564781
   22     0.00001668875447
   23     0.00000010782119
   24     0.00000618054534
   25     0.00000012717837
   26     0.00000005000929
   27     0.00000004132775
   28     0.00038903006066
   29     0.00004865227438
   30     0.00043967677504
   31     0.00146207612583
   32     0.86257815865005
   33     0.00000020810130
   34     0.00000011454965
   35     0.01129531604154
   36     0.00000000000000



  Atomic Valences: 

 #  #
 Irrep: 1
      1:    4.748676396654290
      2:    4.112192714572448
      3:    4.782566949372791
      4:    4.660450055068933
      5:    0.953887229563362
      6:    4.714552491112327
      7:    4.427949277522218
      8:    4.057831598349618
      9:    5.049610485716459
     10:    4.454958222199879
     11:    4.504956966342347
     12:    4.516727969992119
     13:    4.457127386865950
     14:    4.453407443300110
     15:    4.453824958520876
     16:    4.465852237897511
     17:    4.483010608204260
     18:    4.437689271698571
     19:    4.438881981290447
     20:    4.778151712907865
     21:    0.931508285415643
     22:    2.776412849203864
     23:    0.982819245904507
     24:    0.993733191069060
     25:    0.989539813096355
     26:    0.989874965700710
     27:    0.990237542119026
     28:    0.984718142532514
     29:    0.997459446072479
     30:    0.986936198640181
     31:    0.988485600103973
     32:    3.480901712778896
     33:    0.982485922166882
     34:    0.984066630555376
     35:    0.948417227086202
     36:    0.950632109019429


    Psi4 stopped on: Thursday, 09 June 2022 08:29AM
    Psi4 wall time for execution: 0:07:27.93

*** Psi4 exiting successfully. Buy a developer a beer!
