Generated by Psi4
        SP                           RHF                         MINIX
Number of atoms                            I               22
Charge                                     I                0
Multiplicity                               I                1
Number of electrons                        I               80
Number of alpha electrons                  I               40
Number of beta electrons                   I               40
Number of basis functions                  I               66
Number of independent functions            I               66
Atomic numbers                             I   N=          22
           6           7           6           1           6           1
           1           6           6           6           6           6
           6           8           1           1           1           1
           1           1           1           1
Nuclear charges                            R   N=          22
  6.00000000e+00  7.00000000e+00  6.00000000e+00  1.00000000e+00  6.00000000e+00
  1.00000000e+00  1.00000000e+00  6.00000000e+00  6.00000000e+00  6.00000000e+00
  6.00000000e+00  6.00000000e+00  6.00000000e+00  8.00000000e+00  1.00000000e+00
  1.00000000e+00  1.00000000e+00  1.00000000e+00  1.00000000e+00  1.00000000e+00
  1.00000000e+00  1.00000000e+00
Current cartesian coordinates              R   N=          66
 -8.18983976e-01 -2.21510605e-01  6.33995830e-02  1.48931649e+00 -5.52401650e-01
  1.49165459e+00  1.24062853e+00 -1.69530801e+00  4.00234472e+00 -2.01799424e-01
 -3.17836507e+00  3.99308506e+00  3.83295483e+00  3.45596205e-01  5.94412624e-01
  2.99013697e+00 -2.60823470e+00  4.60346660e+00  7.61771928e-01 -2.16786290e-01
  5.36653801e+00 -3.18076369e+00 -2.01479509e-01  1.27490300e+00 -5.42330168e+00
  4.54066484e-01 -2.69446672e+00 -5.43974230e+00  1.08624549e-01 -8.09754930e-02
 -3.08760019e+00  3.53155109e-01 -3.92146590e+00 -8.28621579e-01  3.96495450e-02
 -2.56785507e+00  6.11782269e+00  4.07833807e-02  2.41232916e+00  4.15553108e+00
  1.39496112e+00 -1.46576680e+00 -3.35216185e+00 -3.74200476e-01  3.31183879e+00
 -7.20965979e+00  9.84200275e-02  9.56862095e-01 -2.99122416e+00  5.06978816e-01
 -5.96822826e+00  8.95942483e-01 -6.82538167e-02 -3.67258897e+00  6.53639702e+00
 -1.98670378e+00  2.49415430e+00  5.63424177e+00  7.34501841e-01  4.30129939e+00
 -7.07359951e+00  7.72107391e-01 -3.68392732e+00  7.70991695e+00  1.10148665e+00
  1.75772803e+00
Integer atomic weights                     I   N=          22
          12          14          12           1          12           1
           1          12          12          12          12          12
          12          16           1           1           1           1
           1           1           1           1
Real atomic weights                        R   N=          22
  1.20000000e+01  1.40030740e+01  1.20000000e+01  1.00782503e+00  1.20000000e+01
  1.00782503e+00  1.00782503e+00  1.20000000e+01  1.20000000e+01  1.20000000e+01
  1.20000000e+01  1.20000000e+01  1.20000000e+01  1.59949146e+01  1.00782503e+00
  1.00782503e+00  1.00782503e+00  1.00782503e+00  1.00782503e+00  1.00782503e+00
  1.00782503e+00  1.00782503e+00
Number of primitive shells                 I              132
Number of contracted shells                I               44
Pure/Cartesian d shells                    I                0
Pure/Cartesian f shells                    I                0
Highest angular momentum                   I                1
Largest degree of contraction              I                3
Shell types                                I   N=          44
           0           0           1           0           0           1
           0           0           1           0           0           0
           1           0           0           0           0           1
           0           0           1           0           0           1
           0           0           1           0           0           1
           0           0           1           0           0           1
           0           0           0           0           0           0
           0           0
Number of primitives per shell             I   N=          44
           3           3           3           3           3           3
           3           3           3           3           3           3
           3           3           3           3           3           3
           3           3           3           3           3           3
           3           3           3           3           3           3
           3           3           3           3           3           3
           3           3           3           3           3           3
           3           3
Shell to atom map                          I   N=          44
           1           1           1           2           2           2
           3           3           3           4           5           5
           5           6           7           8           8           8
           9           9           9          10          10          10
          11          11          11          12          12          12
          13          13          13          14          14          14
          15          16          17          18          19          20
          21          22
Primitive exponents                        R   N=         132
  1.53172260e+02  2.30730300e+01  4.92329000e+00  6.61661200e+00  5.25856000e-01
  1.69958000e-01  4.91292000e+00  9.97616000e-01  2.32685000e-01  2.18364490e+02
  3.25988900e+01  6.91739000e+00  8.91942600e+00  7.06141000e-01  2.25054000e-01
  6.55627200e+00  1.34907900e+00  3.12209000e-01  1.53172260e+02  2.30730300e+01
  4.92329000e+00  6.61661200e+00  5.25856000e-01  1.69958000e-01  4.91292000e+00
  9.97616000e-01  2.32685000e-01  7.03406300e+00  1.06475600e+00  2.36559000e-01
  1.53172260e+02  2.30730300e+01  4.92329000e+00  6.61661200e+00  5.25856000e-01
  1.69958000e-01  4.91292000e+00  9.97616000e-01  2.32685000e-01  7.03406300e+00
  1.06475600e+00  2.36559000e-01  7.03406300e+00  1.06475600e+00  2.36559000e-01
  1.53172260e+02  2.30730300e+01  4.92329000e+00  6.61661200e+00  5.25856000e-01
  1.69958000e-01  4.91292000e+00  9.97616000e-01  2.32685000e-01  1.53172260e+02
  2.30730300e+01  4.92329000e+00  6.61661200e+00  5.25856000e-01  1.69958000e-01
  4.91292000e+00  9.97616000e-01  2.32685000e-01  1.53172260e+02  2.30730300e+01
  4.92329000e+00  6.61661200e+00  5.25856000e-01  1.69958000e-01  4.91292000e+00
  9.97616000e-01  2.32685000e-01  1.53172260e+02  2.30730300e+01  4.92329000e+00
  6.61661200e+00  5.25856000e-01  1.69958000e-01  4.91292000e+00  9.97616000e-01
  2.32685000e-01  1.53172260e+02  2.30730300e+01  4.92329000e+00  6.61661200e+00
  5.25856000e-01  1.69958000e-01  4.91292000e+00  9.97616000e-01  2.32685000e-01
  1.53172260e+02  2.30730300e+01  4.92329000e+00  6.61661200e+00  5.25856000e-01
  1.69958000e-01  4.91292000e+00  9.97616000e-01  2.32685000e-01  2.81866580e+02
  4.24160000e+01  9.09562000e+00  1.17893260e+01  9.12894000e-01  2.86661000e-01
  8.27414000e+00  1.71546300e+00  3.83013000e-01  7.03406300e+00  1.06475600e+00
  2.36559000e-01  7.03406300e+00  1.06475600e+00  2.36559000e-01  7.03406300e+00
  1.06475600e+00  2.36559000e-01  7.03406300e+00  1.06475600e+00  2.36559000e-01
  7.03406300e+00  1.06475600e+00  2.36559000e-01  7.03406300e+00  1.06475600e+00
  2.36559000e-01  7.03406300e+00  1.06475600e+00  2.36559000e-01  7.03406300e+00
  1.06475600e+00  2.36559000e-01
Contraction coefficients                   R   N=         132
  7.07400095e-02  3.95380053e-01  6.63311089e-01 -8.13799884e-02  5.74852918e-01
  5.02412928e-01  1.09930928e-01  4.62712695e-01  6.27513586e-01  6.78700100e-02
  3.90202057e-01  6.70083099e-01 -8.08899713e-02  5.67201799e-01  5.11091818e-01
  1.15918975e-01  4.69957900e-01  6.18447868e-01  7.07400095e-02  3.95380053e-01
  6.63311089e-01 -8.13799884e-02  5.74852918e-01  5.02412928e-01  1.09930928e-01
  4.62712695e-01  6.27513586e-01  7.04520124e-02  4.07826072e-01  6.47752114e-01
  7.07400095e-02  3.95380053e-01  6.63311089e-01 -8.13799884e-02  5.74852918e-01
  5.02412928e-01  1.09930928e-01  4.62712695e-01  6.27513586e-01  7.04520124e-02
  4.07826072e-01  6.47752114e-01  7.04520124e-02  4.07826072e-01  6.47752114e-01
  7.07400095e-02  3.95380053e-01  6.63311089e-01 -8.13799884e-02  5.74852918e-01
  5.02412928e-01  1.09930928e-01  4.62712695e-01  6.27513586e-01  7.07400095e-02
  3.95380053e-01  6.63311089e-01 -8.13799884e-02  5.74852918e-01  5.02412928e-01
  1.09930928e-01  4.62712695e-01  6.27513586e-01  7.07400095e-02  3.95380053e-01
  6.63311089e-01 -8.13799884e-02  5.74852918e-01  5.02412928e-01  1.09930928e-01
  4.62712695e-01  6.27513586e-01  7.07400095e-02  3.95380053e-01  6.63311089e-01
 -8.13799884e-02  5.74852918e-01  5.02412928e-01  1.09930928e-01  4.62712695e-01
  6.27513586e-01  7.07400095e-02  3.95380053e-01  6.63311089e-01 -8.13799884e-02
  5.74852918e-01  5.02412928e-01  1.09930928e-01  4.62712695e-01  6.27513586e-01
  7.07400095e-02  3.95380053e-01  6.63311089e-01 -8.13799884e-02  5.74852918e-01
  5.02412928e-01  1.09930928e-01  4.62712695e-01  6.27513586e-01  6.90600291e-02
  3.93159166e-01  6.65669281e-01 -8.08199297e-02  5.82089494e-01  4.97159568e-01
  1.24271003e-01  4.76594010e-01  6.13044013e-01  7.04520124e-02  4.07826072e-01
  6.47752114e-01  7.04520124e-02  4.07826072e-01  6.47752114e-01  7.04520124e-02
  4.07826072e-01  6.47752114e-01  7.04520124e-02  4.07826072e-01  6.47752114e-01
  7.04520124e-02  4.07826072e-01  6.47752114e-01  7.04520124e-02  4.07826072e-01
  6.47752114e-01  7.04520124e-02  4.07826072e-01  6.47752114e-01  7.04520124e-02
  4.07826072e-01  6.47752114e-01
Coordinates of each shell                  R   N=         132
 -8.18983976e-01 -2.21510605e-01  6.33995830e-02 -8.18983976e-01 -2.21510605e-01
  6.33995830e-02 -8.18983976e-01 -2.21510605e-01  6.33995830e-02  1.48931649e+00
 -5.52401650e-01  1.49165459e+00  1.48931649e+00 -5.52401650e-01  1.49165459e+00
  1.48931649e+00 -5.52401650e-01  1.49165459e+00  1.24062853e+00 -1.69530801e+00
  4.00234472e+00  1.24062853e+00 -1.69530801e+00  4.00234472e+00  1.24062853e+00
 -1.69530801e+00  4.00234472e+00 -2.01799424e-01 -3.17836507e+00  3.99308506e+00
  3.83295483e+00  3.45596205e-01  5.94412624e-01  3.83295483e+00  3.45596205e-01
  5.94412624e-01  3.83295483e+00  3.45596205e-01  5.94412624e-01  2.99013697e+00
 -2.60823470e+00  4.60346660e+00  7.61771928e-01 -2.16786290e-01  5.36653801e+00
 -3.18076369e+00 -2.01479509e-01  1.27490300e+00 -3.18076369e+00 -2.01479509e-01
  1.27490300e+00 -3.18076369e+00 -2.01479509e-01  1.27490300e+00 -5.42330168e+00
  4.54066484e-01 -2.69446672e+00 -5.42330168e+00  4.54066484e-01 -2.69446672e+00
 -5.42330168e+00  4.54066484e-01 -2.69446672e+00 -5.43974230e+00  1.08624549e-01
 -8.09754930e-02 -5.43974230e+00  1.08624549e-01 -8.09754930e-02 -5.43974230e+00
  1.08624549e-01 -8.09754930e-02 -3.08760019e+00  3.53155109e-01 -3.92146590e+00
 -3.08760019e+00  3.53155109e-01 -3.92146590e+00 -3.08760019e+00  3.53155109e-01
 -3.92146590e+00 -8.28621579e-01  3.96495450e-02 -2.56785507e+00 -8.28621579e-01
  3.96495450e-02 -2.56785507e+00 -8.28621579e-01  3.96495450e-02 -2.56785507e+00
  6.11782269e+00  4.07833807e-02  2.41232916e+00  6.11782269e+00  4.07833807e-02
  2.41232916e+00  6.11782269e+00  4.07833807e-02  2.41232916e+00  4.15553108e+00
  1.39496112e+00 -1.46576680e+00  4.15553108e+00  1.39496112e+00 -1.46576680e+00
  4.15553108e+00  1.39496112e+00 -1.46576680e+00 -3.35216185e+00 -3.74200476e-01
  3.31183879e+00 -7.20965979e+00  9.84200275e-02  9.56862095e-01 -2.99122416e+00
  5.06978816e-01 -5.96822826e+00  8.95942483e-01 -6.82538167e-02 -3.67258897e+00
  6.53639702e+00 -1.98670378e+00  2.49415430e+00  5.63424177e+00  7.34501841e-01
  4.30129939e+00 -7.07359951e+00  7.72107391e-01 -3.68392732e+00  7.70991695e+00
  1.10148665e+00  1.75772803e+00
Total Energy                               R     -4.732630614580281e+02
Alpha Orbital Energies                     R   N=          66
 -2.02976730e+01 -1.54534176e+01 -1.13234218e+01 -1.12349833e+01 -1.12175094e+01
 -1.11788483e+01 -1.11761181e+01 -1.11729917e+01 -1.11689914e+01 -1.11685234e+01
 -1.11648274e+01 -1.37345371e+00 -1.24399432e+00 -1.14642137e+00 -1.03176535e+00
 -1.01371887e+00 -9.94663826e-01 -9.50667010e-01 -8.39217311e-01 -8.18777383e-01
 -7.53399154e-01 -6.96054020e-01 -6.67877224e-01 -6.58969107e-01 -6.53447737e-01
 -6.19513742e-01 -6.05367458e-01 -5.96235422e-01 -5.77513901e-01 -5.69988893e-01
 -5.55570942e-01 -5.40713096e-01 -5.32094835e-01 -5.04680889e-01 -4.99712990e-01
 -4.83394252e-01 -4.05138466e-01 -3.90606435e-01 -3.42579089e-01 -3.08213238e-01
  1.77648483e-01  1.88546199e-01  2.43510859e-01  4.27954290e-01  4.55543524e-01
  5.16870307e-01  5.44381386e-01  6.05319505e-01  6.24772049e-01  6.51403239e-01
  6.56879313e-01  6.74548335e-01  6.82095758e-01  6.86984865e-01  6.98353189e-01
  7.06851236e-01  7.20643604e-01  7.49398591e-01  7.82376303e-01  8.50928504e-01
  8.66242831e-01  8.80239280e-01  9.17865296e-01  9.50727107e-01  1.04906868e+00
  1.11898990e+00
Alpha MO coefficients                      R   N=        4356
  4.66108559e-06  3.62562960e-05  7.87425457e-05 -6.72977218e-05  1.59920622e-04
  2.36404680e-05  3.08415081e-04  6.45388215e-04 -4.19163694e-04  1.14182358e-03
 -2.18929104e-05 -1.34407106e-04  3.42332133e-04  1.04880621e-04  2.21877136e-05
  1.42164583e-04 -8.03838769e-04  1.48194684e-02  1.99601502e-03  6.56892339e-03
 -1.28820595e-02  1.00340059e-05 -3.86170791e-07  1.36088824e-06 -2.00359898e-05
 -1.66299065e-05 -2.05031873e-06 -1.26359326e-05  7.48097790e-07 -1.36534709e-05
 -9.82724323e-06  8.80770992e-06 -1.11448616e-07 -2.46564309e-07 -6.13434736e-07
  3.00327190e-06 -1.47631879e-06 -3.50679165e-06 -3.40433793e-06  1.26661783e-04
  3.96469699e-05 -6.75030209e-05  3.96594730e-05  2.07498579e-06 -3.12220919e-04
  4.39946140e-05  2.15657527e-04  3.75502080e-04  1.03575309e-05  1.82952162e-04
 -8.32008657e-04 -5.71192540e-04  6.55776688e-04 -9.90378611e-01 -4.91659090e-02
  1.61315561e-03  4.95752377e-03 -9.62356433e-03  1.54067427e-05  1.49253881e-06
 -3.11000574e-06  1.07122585e-03 -1.49087649e-04 -1.19414054e-04 -8.57997726e-07
  3.26389797e-04 -5.48105884e-04  9.29516557e-03  8.04850477e-03 -1.07792030e-03
  4.88618088e-03 -9.89020078e-01 -5.85634592e-02 -2.72462446e-04 -7.39973847e-04
  2.52168241e-04 -5.70796104e-04  9.31968878e-03  9.01916510e-04  3.45747737e-03
 -7.73768012e-03 -8.14153492e-05 -5.79869838e-04  1.04903915e-02 -8.74604542e-03
 -3.25046829e-03  3.18958018e-03 -1.11436130e-04  1.49115385e-04  8.56751765e-06
  3.50871392e-04 -2.37782818e-04  2.00965630e-04 -7.98942670e-04 -4.55483043e-06
 -7.26326256e-05  5.80457185e-05 -8.13041246e-06  3.62916439e-05 -1.01373540e-05
 -1.66571814e-04  1.03691120e-04 -1.02151731e-05 -1.53789822e-04 -1.08006538e-05
 -1.45070584e-04 -7.77638034e-05  8.69943286e-06  1.79566031e-04  7.95759480e-06
  3.46976787e-04 -8.14387443e-04 -4.08214958e-05  1.87205484e-04 -1.43723711e-06
  2.17062786e-04  2.47853681e-04  2.54581185e-04 -5.22236952e-04  5.04407522e-06
  1.93951546e-04  1.00137477e-03  1.60565197e-04  6.22093575e-05  4.31469152e-05
  1.01454713e-04  1.03441574e-04  1.23813392e-04 -9.26126681e-05 -5.12529346e-05
  5.48486007e-05 -2.15100415e-06  2.36195076e-03  8.28766484e-04  1.15952236e-03
  1.96135378e-04  1.30429797e-04 -9.66290346e-04  8.84463232e-03  5.82444414e-03
  2.31864509e-03 -2.46472741e-03  1.65805502e-03  8.90385522e-04  4.00281198e-04
  4.27637515e-04 -7.07950309e-04  9.81772415e-05 -9.89269488e-01 -5.41381555e-02
  9.64888781e-05 -2.05834523e-04 -1.85275590e-05  3.04597422e-05  1.43531954e-06
  1.45476176e-04  2.33496154e-04  1.04034874e-04 -6.92891587e-05 -1.08766424e-04
  1.58027531e-06 -2.24720512e-05 -5.53736270e-07 -7.50931992e-09  4.79685386e-06
  1.79554732e-05 -8.88001154e-07  1.99470216e-05  8.19965197e-06 -7.72787907e-06
  1.07120269e-04  2.31857592e-04  8.72664374e-05 -5.03535467e-05  1.08463165e-04
  4.42588951e-04 -1.49255572e-05  4.62104809e-04  4.92313403e-05  3.51772957e-04
  7.12865449e-03  9.51697807e-03 -5.98423092e-03  1.06378586e-03 -5.07338729e-03
 -6.61673200e-04  1.03909289e-02 -7.19023005e-04 -1.82545488e-03  3.60093131e-03
 -3.26088077e-06  1.05882380e-05  9.77605940e-06  5.03755868e-04  6.37764573e-04
  4.59558084e-04  7.75678390e-06  2.78732559e-04  9.88487630e-01  6.04454014e-02
 -2.48464117e-03  1.30307019e-04 -1.41250701e-03  9.54512665e-04 -7.97935964e-03
  5.44360631e-03 -7.53307956e-04  3.48307223e-03 -1.13500215e-02 -1.39849552e-03
  3.51947553e-04 -3.60431633e-04  9.29746691e-04 -1.85923599e-04  2.58677945e-03
 -8.14095150e-04  1.02165160e-03  2.09109514e-06  1.37730080e-04 -4.52482806e-05
  1.04158375e-04 -1.20275334e-02 -1.29727481e-02 -8.20314916e-03  8.29294201e-05
  4.05686825e-03 -7.35943320e-04 -1.56725097e-04 -2.09747518e-04  2.89255083e-05
 -1.28444969e-04 -1.72375610e-03 -4.11582482e-04 -1.56170115e-04  5.88733002e-05
 -3.96593867e-04 -1.69080865e-03 -4.43528125e-04 -4.37508667e-04  2.25644008e-05
  1.57070177e-05 -1.11775801e-02 -1.29617153e-02 -2.10789176e-04  9.56934750e-04
 -9.11456517e-03 -4.91669104e-04 -2.27901461e-04  1.27228219e-04  2.62868305e-05
  1.03876629e-04  2.44453836e-06  7.69705876e-05  3.09373357e-05 -7.32979012e-05
  7.92686515e-05 -2.54156493e-04 -6.04725835e-05 -6.64391758e-05 -2.97610210e-04
  3.23049092e-05  1.55169872e-05 -9.02029479e-05 -2.37899084e-05  1.15526557e-02
  6.80591384e-05 -6.95828646e-04  3.00899889e-04 -9.46926260e-04  1.05963549e-03
 -8.76984612e-03  6.15919633e-04  3.04959755e-03 -6.39147191e-03  9.88277678e-01
  6.21159577e-02  9.16333916e-05 -2.16613042e-04  3.78807295e-04 -1.26130144e-02
  1.88596427e-03 -6.40941233e-04  8.04041436e-04  3.91768873e-04 -6.14432508e-04
 -1.26971580e-02 -1.27133417e-02 -1.61919685e-03 -2.26445880e-04 -7.71793492e-04
  1.21718970e-04 -2.07503733e-04 -2.00257382e-05  2.36228603e-05 -3.88749950e-06
 -1.18865786e-06  3.41728197e-06 -5.54959494e-04 -3.07631697e-04 -1.74999335e-04
  5.68257747e-06 -5.45736937e-05 -1.11481593e-04 -1.58324602e-05 -1.14293451e-05
  9.09317647e-06 -2.13439704e-05 -7.12649021e-04 -4.45030598e-04  1.70362364e-05
 -1.67733435e-05 -3.00960804e-04 -2.09520624e-03 -2.90235278e-04  5.77640343e-04
  2.74510414e-04 -2.09237735e-05  2.40273008e-05 -2.25868438e-04 -3.39898171e-05
  5.73167633e-05 -1.07569773e-04 -5.92348179e-04 -6.51142112e-06 -1.02656345e-05
 -2.59083971e-06  2.51243807e-04 -4.42726635e-04 -8.20842377e-06 -2.19647266e-04
  5.12519906e-04  2.28616639e-05 -2.32009114e-04 -6.79079302e-05  7.60964852e-05
  5.09787741e-05 -2.60187217e-04 -1.26254670e-04 -1.41468947e-04  3.57475910e-04
  2.17680937e-03 -3.41791706e-07 -4.90538488e-04 -4.33923214e-04  2.94004331e-04
 -2.42389727e-04  8.82627156e-03 -9.82264334e-03 -6.69068366e-03  6.18031551e-04
 -4.99448156e-03 -7.27887500e-04  7.15198538e-05 -7.20737946e-04 -1.35251182e-04
 -5.29598126e-05  1.96581819e-05  4.17766780e-05  3.52050250e-05  1.11588897e-05
  4.37119389e-06 -4.39850808e-07 -3.75337670e-06  1.11012524e-04  1.60613779e-05
  4.58870547e-06 -2.99282596e-06  2.46524268e-06 -5.93778394e-04 -7.69173078e-05
 -1.66231851e-05  1.03370587e-05 -2.00921618e-05 -9.16454173e-04 -2.71656939e-05
 -1.04635759e-04 -5.48130736e-06 -6.05520321e-05  9.88177757e-01  6.34510027e-02
 -1.45272906e-04  3.61729983e-05 -5.33043185e-05  3.20622634e-05 -2.10301717e-04
  3.43492356e-04  8.79132789e-06  2.39648529e-04 -9.49491438e-06 -2.52065914e-06
  5.08844743e-06 -2.96162935e-05 -1.25645374e-02 -1.26057695e-02 -1.32414330e-06
 -1.29559635e-02  9.33755182e-05  1.05847082e-03 -6.78454333e-04  4.72267801e-05
  2.14992580e-05  1.03065336e-05  3.32012842e-05  1.14612211e-04  2.53704914e-06
 -6.86831662e-05  3.69001863e-04  5.36362935e-06  1.03774736e-04 -3.31449441e-05
  2.73410947e-05  2.84267946e-05 -3.02245268e-06 -2.89842220e-05  6.60141858e-06
  2.48026348e-05 -2.57969464e-05 -5.39345981e-05  1.57475036e-06 -1.13085960e-01
 -1.91956770e-02  7.75405942e-03 -1.11482199e-03  4.87890172e-03 -1.11427081e-01
 -1.91175305e-02  2.12992483e-05  1.20251155e-03 -9.18408902e-03  9.75353285e-01
  6.35362300e-02  2.97928017e-03  1.20931920e-04 -1.60707337e-03 -1.41385340e-02
  1.48999141e-04 -4.27319176e-04  2.91636353e-05  2.86330589e-04 -3.69189514e-03
 -1.51266339e-04  2.35829171e-04  1.97531407e-05 -2.93798063e-04 -2.02421725e-04
 -4.72186341e-06 -2.99030491e-06  4.38036840e-07 -4.19625975e-06  3.22959687e-07
 -7.66355211e-06 -2.36047581e-06 -8.20965015e-07 -5.58582331e-06  9.14126345e-04
 -1.14591121e-02  6.57439499e-05 -8.63386789e-05  3.92381941e-06  2.27509777e-06
  9.46729162e-04  9.36971678e-07 -1.73768371e-04 -9.87637303e-04  3.53119722e-04
 -7.58500862e-05  4.82049779e-04 -1.07567472e-05 -3.02714002e-05  1.69876240e-05
  1.31417246e-05 -1.22748409e-04 -1.07152072e-05  2.94856274e-05  2.59330819e-05
  1.32161949e-05 -6.81481185e-06 -7.32834731e-07 -7.31721393e-05  1.36756747e-06
 -3.20553314e-05  5.44717801e-08 -4.53467050e-05 -9.75976019e-06 -3.11789708e-06
  8.71690324e-03  4.74447712e-04  1.78575717e-04  1.84768374e-05 -3.80425820e-04
  2.00156543e-01  2.45954479e-02  8.27037981e-03 -3.94089116e-04 -4.06582694e-03
  1.06124276e-02 -1.57762965e-03 -8.92431020e-05 -1.84349936e-04  1.32634202e-03
 -9.62480945e-01 -6.36121246e-02  9.57728293e-04  2.66990519e-04 -3.63151528e-03
  9.96131606e-02  1.81396392e-02 -7.81214942e-03  1.03484225e-03 -4.42971340e-03
 -4.89010867e-04 -9.44744377e-06 -1.57919980e-05  4.73665643e-06 -8.26221663e-06
 -4.52815733e-06 -3.12784397e-06 -3.21350324e-05 -2.20718823e-05 -2.17571010e-05
  2.43336229e-05 -6.81749271e-05  1.12448049e-02 -7.58536820e-04  7.09666419e-06
  5.09322244e-06 -2.07813666e-03  7.51272740e-06  8.34924582e-03 -7.76110987e-03
  5.21806182e-03 -4.25618437e-05 -2.78550878e-03  2.15985633e-05 -1.29616269e-04
 -3.39183323e-05 -5.25079507e-05  2.20916863e-04  1.02342030e-03 -1.64513280e-05
  2.71459454e-04 -2.33151544e-04  2.24186915e-04 -3.13858586e-04  1.37005152e-04
 -2.39095256e-05  8.87815609e-05 -1.55633446e-05  1.07854455e-04 -1.52242510e-04
  3.97679898e-05  6.51431649e-01  4.09434089e-02 -6.32336806e-04  3.18022066e-04
 -1.61839362e-03 -7.29014724e-01 -4.46024042e-02 -2.38277704e-05  2.35254800e-04
 -1.70202131e-03 -9.82832134e-03  5.77532619e-04 -5.34172738e-03  1.62860615e-03
 -1.00262389e-02 -1.44032890e-01 -1.68498037e-04 -6.33645353e-03  3.70991806e-04
  2.29629161e-03  2.61029818e-02  3.38743715e-03 -1.44160086e-03  2.65939505e-04
 -1.41708443e-03  4.38277632e-04 -1.53432986e-05  2.34798275e-05 -5.13704005e-06
  1.96490051e-05 -5.20588014e-07  3.32189602e-05  1.40944943e-05 -1.03878518e-05
  1.86354579e-05 -7.60918273e-03  1.63114988e-04  1.90682698e-03 -2.67366887e-04
 -2.38154286e-06 -7.03057420e-06  9.29418715e-03 -4.73588292e-06  9.82397208e-03
 -7.60579722e-03  6.17460986e-03 -4.35745601e-06 -4.03213481e-03  4.01548796e-05
 -2.27014793e-04  3.13939969e-05 -7.51323837e-05  3.51719366e-04  1.21788769e-03
 -3.75861487e-05  3.06798009e-04 -2.75705484e-04  2.67557882e-04 -3.50219667e-04
  1.33216220e-04 -1.48977878e-05  9.40864937e-05 -7.76545579e-06  9.98742771e-05
 -1.74908748e-04  5.05903678e-05  7.33021125e-01  4.31765623e-02  1.46978578e-03
  7.67602841e-05 -7.86945500e-04  6.24393034e-01  3.57030558e-02  3.27411891e-04
  3.14157598e-05 -5.67205933e-04  1.59718005e-01 -7.27209069e-03 -5.37827641e-03
  3.05446294e-05  2.21422282e-03  1.29316864e-01  1.03852269e-03  6.10847582e-03
 -3.43827137e-04 -2.25534428e-03 -9.31834144e-02 -8.24806602e-03  1.48805673e-03
 -1.19554238e-04  2.61249909e-04  4.81896158e-04 -1.50513376e-05  2.63826345e-05
 -6.10316293e-06  2.07584919e-05 -1.36170606e-06  3.93282229e-05  2.53725332e-07
  4.01760989e-06  1.53022367e-05 -8.84978896e-03 -2.53460721e-03 -1.93387181e-03
  8.07389662e-04 -2.37645931e-06 -7.38194898e-06 -8.17146356e-03 -6.01021664e-06
  1.34534089e-02 -1.22678189e-02  2.80467314e-04 -8.81179484e-04  8.99007698e-03
  5.01239929e-05 -3.34941718e-04  3.68827245e-04  2.68427070e-05 -1.17266566e-04
  7.20517550e-04 -1.63992700e-05  2.37607429e-04 -1.10719369e-04  1.26604771e-04
 -2.26424761e-05  6.05311043e-04 -2.60616244e-04  3.75972546e-04 -3.14462854e-06
  3.57623064e-04 -1.15833650e-04  2.36313984e-05  5.11355002e-02  2.25432430e-03
 -4.28220224e-04 -8.63039715e-07  3.43162922e-04  5.82113735e-02  1.58139164e-03
 -1.12709125e-03  2.12551685e-05  8.15920459e-04  1.81463973e-02 -5.21983362e-04
 -7.37880688e-04 -1.50183764e-05  5.80923665e-04  1.15488054e-01 -5.90463789e-03
 -7.32146254e-03  1.06413244e-03 -4.71800235e-03  9.78721977e-01  5.92965038e-02
 -1.34404902e-03 -2.98550308e-04  1.50853076e-03  1.01377155e-03 -7.18282926e-05
  7.74158227e-05 -1.74678254e-05  5.87982371e-05  1.13187644e-05  4.65910025e-05
  2.03368082e-04 -1.21496050e-04  2.55913606e-05 -8.12397726e-04 -4.61988622e-04
 -1.87623754e-03 -1.15948232e-02 -9.33316736e-06 -1.37036116e-05 -9.15468444e-04
 -1.47663795e-05  1.98707551e-02 -4.74736999e-02 -1.68823409e-02  3.16695762e-03
 -1.04899450e-02  6.11850808e-02 -2.01924001e-01 -3.87503593e-02 -1.69638902e-02
  1.48224445e-02  1.60069501e-02 -4.03141090e-02 -4.05075613e-03 -9.13804372e-03
  1.90822976e-02 -5.02708408e-03  1.32925495e-01 -3.09013334e-01 -6.94325099e-05
 -6.12578273e-02  1.29195986e-01 -5.42842550e-03 -4.76260485e-03  4.65521891e-03
 -1.11422387e-02 -4.83206712e-03 -3.06303306e-04  3.33882120e-03  7.67394178e-04
 -1.79153924e-03 -5.46511558e-04  1.27123932e-04 -1.96061945e-04  1.21026830e-03
 -2.87891214e-03 -1.38929372e-03  1.62344893e-04 -4.33442090e-04  1.61512349e-03
 -3.35275434e-03 -1.29728158e-03  7.76657522e-05 -1.21688533e-03  6.94062952e-03
 -1.80311731e-02  4.39962638e-04  8.16831872e-05 -6.04635221e-03  2.19231501e-02
 -6.26393810e-02  2.89836530e-02 -6.63019120e-04  1.63516795e-02  1.85506330e-01
 -6.68451033e-01  2.68471078e-02  7.89289138e-02 -1.51859067e-01 -1.63288052e-03
 -3.81860533e-04 -5.00032881e-04 -5.23443982e-03 -6.90309744e-03 -6.33170058e-03
 -2.24677724e-04 -8.54918673e-03  9.15717150e-02 -2.31238053e-01 -5.21281008e-02
  1.03251877e-02 -3.97180657e-02  1.71211786e-01 -5.59763373e-01  2.08577649e-02
 -4.83350722e-04 -9.52516632e-03  7.62684345e-02 -2.00883965e-01 -5.67048596e-03
 -3.22460390e-02  7.16433105e-02 -3.38589994e-02  1.51681929e-02 -4.72251894e-02
  9.90397677e-02  7.66204448e-02 -1.19394434e-01 -3.45570169e-02 -3.36226363e-02
  3.82133517e-02 -9.84799392e-02 -3.01309837e-02 -1.92263584e-04  2.25774355e-02
  1.21933138e-02 -3.03013796e-02 -7.56651105e-03  1.55174619e-03 -5.12415474e-03
  1.66901836e-02 -4.23179877e-02 -1.50679588e-02  1.18342230e-03 -1.38205612e-03
  1.53824519e-02 -3.85773823e-02 -6.71766239e-03  1.69631578e-03 -1.18106579e-02
  3.31707520e-02 -8.64647126e-02  9.61359731e-03  3.77423518e-03 -3.55873166e-02
  8.96176901e-03 -2.26238505e-02  5.01100231e-03 -9.54600609e-04  4.63125555e-03
 -8.13243959e-02  2.99540750e-01  1.83296226e-04 -2.25545310e-02  4.61722915e-02
 -1.77830004e-02 -6.45828209e-03 -5.81308927e-03 -1.12149034e-02 -5.31593961e-03
 -6.49045711e-03 -4.88336902e-03 -8.94353438e-04  7.19644469e-02 -1.92131312e-01
  8.46010889e-02 -1.02959530e-02  5.14653859e-02 -5.45582616e-02  1.79368179e-01
  5.10161984e-02 -5.91662964e-03  3.70466186e-02 -3.81417365e-02  1.05036902e-01
  8.88445047e-03  1.31616515e-02 -2.75032737e-02  1.83535445e-02 -2.33452756e-02
  6.56716030e-02 -3.31620692e-02 -2.95121445e-02  4.91545591e-02  2.41511567e-02
  2.07535076e-02  9.03476064e-02 -2.32715652e-01  9.17497331e-03 -6.85287904e-03
  5.75862658e-02  1.01971827e-01 -2.63853566e-01 -5.56063299e-02  1.10220608e-02
 -3.50093602e-02  9.97804559e-02 -2.59537604e-01 -5.27193840e-02 -1.40533726e-03
  3.53845558e-02  9.73820042e-02 -2.52893229e-01  8.34677673e-03  5.31653702e-03
 -6.21128994e-02  8.86651300e-02 -2.27179435e-01  5.55002962e-02 -9.69631427e-04
 -2.08710526e-02 -1.58220693e-02  4.34156410e-02 -1.06930684e-02 -1.68647627e-04
 -5.20254463e-03  2.04222747e-02 -7.65339173e-02  9.18703464e-04  2.05471655e-03
 -3.22175499e-03 -4.25887078e-02 -4.79882519e-02 -4.59150601e-02 -4.04124087e-02
  1.01612602e-02  1.08902752e-02 -5.32342797e-02  6.94690077e-03  1.11475809e-01
 -3.01972041e-01  2.20740758e-02 -1.35451777e-03  1.84297020e-02 -2.67558599e-03
  4.13686212e-03  1.35697505e-01 -1.08584039e-02  7.61106269e-02 -3.85099955e-02
  1.10768692e-01  2.32230830e-02  3.32608982e-03 -8.24951021e-04  2.02811287e-02
 -5.32939085e-02  1.57281012e-01  4.58008404e-02 -4.10687134e-02  1.11527951e-01
  4.38086606e-02  2.85523155e-02  4.16741443e-02 -1.11888962e-01 -1.05060205e-01
  6.11384960e-03  1.02488065e-02 -1.11038719e-01  2.97519875e-01  3.07846138e-02
 -7.21309697e-03  2.57834443e-02 -6.47508879e-02  1.73947077e-01 -2.11024772e-02
  1.28395516e-02 -8.84320848e-02 -5.45286010e-02  1.46471993e-01 -9.36115811e-02
  6.38697467e-03  1.93751217e-02  5.11175156e-02 -1.37312977e-01 -3.29096288e-02
  1.26344358e-02 -9.26556152e-02 -1.05588528e-01  3.01219873e-01 -3.22559409e-02
 -2.63410500e-03 -1.21671528e-02  3.12992535e-02 -1.22631784e-01  1.88599429e-02
 -1.06997068e-03  1.30352448e-02 -2.87584739e-02  4.46272277e-02  3.68136285e-02
 -3.60708425e-02  8.21913508e-02  8.32828664e-02  8.32159215e-02  7.45263586e-02
  5.49835122e-03 -1.51846982e-02 -8.48348695e-02 -1.04903922e-02  1.36354595e-01
  6.60758742e-03 -2.22997189e-02 -3.13785491e-02 -1.93820572e-02  4.69661501e-02
 -3.03067385e-02  8.68826073e-02 -8.82849854e-03 -2.65582801e-04  1.43610509e-03
  3.02406662e-02  1.44403068e-02 -4.07934927e-02  1.17798080e-02  2.02862619e-02
 -3.42632195e-02  2.06336515e-02  2.64701384e-02 -1.19560503e-01  3.25932583e-01
 -6.59596156e-02  7.25753190e-03 -3.03144150e-02  1.58514426e-03 -4.17348415e-03
 -7.08960816e-02 -7.01047328e-03  1.14346309e-01 -1.14577919e-01  3.14744445e-01
  6.51802208e-02 -9.96701908e-03  4.69730519e-02  1.15593099e-01 -3.16886424e-01