Generated by Psi4
        SP                           RHF                         MINIX
Number of atoms                            I               24
Charge                                     I                0
Multiplicity                               I                1
Number of electrons                        I               88
Number of alpha electrons                  I               44
Number of beta electrons                   I               44
Number of basis functions                  I               72
Number of independent functions            I               72
Atomic numbers                             I   N=          24
           6           7           6           6           6           8
           6           6           6           6           6           1
           1           1           7           1           1           1
           1           1           1           1           1           1
Nuclear charges                            R   N=          24
  6.00000000e+00  7.00000000e+00  6.00000000e+00  6.00000000e+00  6.00000000e+00
  8.00000000e+00  6.00000000e+00  6.00000000e+00  6.00000000e+00  6.00000000e+00
  6.00000000e+00  1.00000000e+00  1.00000000e+00  1.00000000e+00  7.00000000e+00
  1.00000000e+00  1.00000000e+00  1.00000000e+00  1.00000000e+00  1.00000000e+00
  1.00000000e+00  1.00000000e+00  1.00000000e+00  1.00000000e+00
Current cartesian coordinates              R   N=          72
 -1.60062425e+00 -3.44553491e-01 -6.44405471e-02  7.07676209e-01 -6.75444535e-01
  1.36381446e+00  3.05131455e+00  2.22553319e-01  4.66572494e-01  5.33618241e+00
 -8.22595047e-02  2.28448903e+00  4.58988250e-01 -1.81835090e+00  3.87450459e+00
  3.37389080e+00  1.27191824e+00 -1.59360693e+00 -3.96240397e+00 -3.24522394e-01
  1.14706287e+00 -6.20494196e+00  3.31023599e-01 -2.82230685e+00 -6.22138258e+00
 -1.44183368e-02 -2.08815623e-01 -3.86924047e+00  2.30112224e-01 -4.04930603e+00
 -1.61026186e+00 -8.33933404e-02 -2.69569520e+00  2.20849670e+00 -2.73127759e+00
  4.47562647e+00 -9.83439701e-01 -3.30140796e+00  3.86524493e+00 -1.98683498e-02
 -3.39829176e-01  5.23869788e+00  7.58930287e+00  1.26700495e+00  1.32809863e+00
  5.75475674e+00 -2.10974666e+00  2.36631417e+00  4.85260149e+00  6.11458956e-01
  4.17345926e+00 -4.13380212e+00 -4.97243362e-01  3.18399866e+00 -7.99130006e+00
 -2.46228579e-02  8.29021965e-01 -3.77286443e+00  3.83935930e-01 -6.09606839e+00
  1.14302205e-01 -1.91296702e-01 -3.80042910e+00 -7.85523978e+00  6.49064506e-01
 -3.81176745e+00  8.03093186e+00  6.13726627e-01 -4.30669470e-01  9.07424966e+00
  9.61814180e-01  2.51843712e+00
Integer atomic weights                     I   N=          24
          12          14          12          12          12          16
          12          12          12          12          12           1
           1           1          14           1           1           1
           1           1           1           1           1           1
Real atomic weights                        R   N=          24
  1.20000000e+01  1.40030740e+01  1.20000000e+01  1.20000000e+01  1.20000000e+01
  1.59949146e+01  1.20000000e+01  1.20000000e+01  1.20000000e+01  1.20000000e+01
  1.20000000e+01  1.00782503e+00  1.00782503e+00  1.00782503e+00  1.40030740e+01
  1.00782503e+00  1.00782503e+00  1.00782503e+00  1.00782503e+00  1.00782503e+00
  1.00782503e+00  1.00782503e+00  1.00782503e+00  1.00782503e+00
Number of primitive shells                 I              144
Number of contracted shells                I               48
Pure/Cartesian d shells                    I                0
Pure/Cartesian f shells                    I                0
Highest angular momentum                   I                1
Largest degree of contraction              I                3
Shell types                                I   N=          48
           0           0           1           0           0           1
           0           0           1           0           0           1
           0           0           1           0           0           1
           0           0           1           0           0           1
           0           0           1           0           0           1
           0           0           1           0           0           0
           0           0           1           0           0           0
           0           0           0           0           0           0
Number of primitives per shell             I   N=          48
           3           3           3           3           3           3
           3           3           3           3           3           3
           3           3           3           3           3           3
           3           3           3           3           3           3
           3           3           3           3           3           3
           3           3           3           3           3           3
           3           3           3           3           3           3
           3           3           3           3           3           3
Shell to atom map                          I   N=          48
           1           1           1           2           2           2
           3           3           3           4           4           4
           5           5           5           6           6           6
           7           7           7           8           8           8
           9           9           9          10          10          10
          11          11          11          12          13          14
          15          15          15          16          17          18
          19          20          21          22          23          24
Primitive exponents                        R   N=         144
  1.53172260e+02  2.30730300e+01  4.92329000e+00  6.61661200e+00  5.25856000e-01
  1.69958000e-01  4.91292000e+00  9.97616000e-01  2.32685000e-01  2.18364490e+02
  3.25988900e+01  6.91739000e+00  8.91942600e+00  7.06141000e-01  2.25054000e-01
  6.55627200e+00  1.34907900e+00  3.12209000e-01  1.53172260e+02  2.30730300e+01
  4.92329000e+00  6.61661200e+00  5.25856000e-01  1.69958000e-01  4.91292000e+00
  9.97616000e-01  2.32685000e-01  1.53172260e+02  2.30730300e+01  4.92329000e+00
  6.61661200e+00  5.25856000e-01  1.69958000e-01  4.91292000e+00  9.97616000e-01
  2.32685000e-01  1.53172260e+02  2.30730300e+01  4.92329000e+00  6.61661200e+00
  5.25856000e-01  1.69958000e-01  4.91292000e+00  9.97616000e-01  2.32685000e-01
  2.81866580e+02  4.24160000e+01  9.09562000e+00  1.17893260e+01  9.12894000e-01
  2.86661000e-01  8.27414000e+00  1.71546300e+00  3.83013000e-01  1.53172260e+02
  2.30730300e+01  4.92329000e+00  6.61661200e+00  5.25856000e-01  1.69958000e-01
  4.91292000e+00  9.97616000e-01  2.32685000e-01  1.53172260e+02  2.30730300e+01
  4.92329000e+00  6.61661200e+00  5.25856000e-01  1.69958000e-01  4.91292000e+00
  9.97616000e-01  2.32685000e-01  1.53172260e+02  2.30730300e+01  4.92329000e+00
  6.61661200e+00  5.25856000e-01  1.69958000e-01  4.91292000e+00  9.97616000e-01
  2.32685000e-01  1.53172260e+02  2.30730300e+01  4.92329000e+00  6.61661200e+00
  5.25856000e-01  1.69958000e-01  4.91292000e+00  9.97616000e-01  2.32685000e-01
  1.53172260e+02  2.30730300e+01  4.92329000e+00  6.61661200e+00  5.25856000e-01
  1.69958000e-01  4.91292000e+00  9.97616000e-01  2.32685000e-01  7.03406300e+00
  1.06475600e+00  2.36559000e-01  7.03406300e+00  1.06475600e+00  2.36559000e-01
  7.03406300e+00  1.06475600e+00  2.36559000e-01  2.18364490e+02  3.25988900e+01
  6.91739000e+00  8.91942600e+00  7.06141000e-01  2.25054000e-01  6.55627200e+00
  1.34907900e+00  3.12209000e-01  7.03406300e+00  1.06475600e+00  2.36559000e-01
  7.03406300e+00  1.06475600e+00  2.36559000e-01  7.03406300e+00  1.06475600e+00
  2.36559000e-01  7.03406300e+00  1.06475600e+00  2.36559000e-01  7.03406300e+00
  1.06475600e+00  2.36559000e-01  7.03406300e+00  1.06475600e+00  2.36559000e-01
  7.03406300e+00  1.06475600e+00  2.36559000e-01  7.03406300e+00  1.06475600e+00
  2.36559000e-01  7.03406300e+00  1.06475600e+00  2.36559000e-01
Contraction coefficients                   R   N=         144
  7.07400095e-02  3.95380053e-01  6.63311089e-01 -8.13799884e-02  5.74852918e-01
  5.02412928e-01  1.09930928e-01  4.62712695e-01  6.27513586e-01  6.78700100e-02
  3.90202057e-01  6.70083099e-01 -8.08899713e-02  5.67201799e-01  5.11091818e-01
  1.15918975e-01  4.69957900e-01  6.18447868e-01  7.07400095e-02  3.95380053e-01
  6.63311089e-01 -8.13799884e-02  5.74852918e-01  5.02412928e-01  1.09930928e-01
  4.62712695e-01  6.27513586e-01  7.07400095e-02  3.95380053e-01  6.63311089e-01
 -8.13799884e-02  5.74852918e-01  5.02412928e-01  1.09930928e-01  4.62712695e-01
  6.27513586e-01  7.07400095e-02  3.95380053e-01  6.63311089e-01 -8.13799884e-02
  5.74852918e-01  5.02412928e-01  1.09930928e-01  4.62712695e-01  6.27513586e-01
  6.90600291e-02  3.93159166e-01  6.65669281e-01 -8.08199297e-02  5.82089494e-01
  4.97159568e-01  1.24271003e-01  4.76594010e-01  6.13044013e-01  7.07400095e-02
  3.95380053e-01  6.63311089e-01 -8.13799884e-02  5.74852918e-01  5.02412928e-01
  1.09930928e-01  4.62712695e-01  6.27513586e-01  7.07400095e-02  3.95380053e-01
  6.63311089e-01 -8.13799884e-02  5.74852918e-01  5.02412928e-01  1.09930928e-01
  4.62712695e-01  6.27513586e-01  7.07400095e-02  3.95380053e-01  6.63311089e-01
 -8.13799884e-02  5.74852918e-01  5.02412928e-01  1.09930928e-01  4.62712695e-01
  6.27513586e-01  7.07400095e-02  3.95380053e-01  6.63311089e-01 -8.13799884e-02
  5.74852918e-01  5.02412928e-01  1.09930928e-01  4.62712695e-01  6.27513586e-01
  7.07400095e-02  3.95380053e-01  6.63311089e-01 -8.13799884e-02  5.74852918e-01
  5.02412928e-01  1.09930928e-01  4.62712695e-01  6.27513586e-01  7.04520124e-02
  4.07826072e-01  6.47752114e-01  7.04520124e-02  4.07826072e-01  6.47752114e-01
  7.04520124e-02  4.07826072e-01  6.47752114e-01  6.78700100e-02  3.90202057e-01
  6.70083099e-01 -8.08899713e-02  5.67201799e-01  5.11091818e-01  1.15918975e-01
  4.69957900e-01  6.18447868e-01  7.04520124e-02  4.07826072e-01  6.47752114e-01
  7.04520124e-02  4.07826072e-01  6.47752114e-01  7.04520124e-02  4.07826072e-01
  6.47752114e-01  7.04520124e-02  4.07826072e-01  6.47752114e-01  7.04520124e-02
  4.07826072e-01  6.47752114e-01  7.04520124e-02  4.07826072e-01  6.47752114e-01
  7.04520124e-02  4.07826072e-01  6.47752114e-01  7.04520124e-02  4.07826072e-01
  6.47752114e-01  7.04520124e-02  4.07826072e-01  6.47752114e-01
Coordinates of each shell                  R   N=         144
 -1.60062425e+00 -3.44553491e-01 -6.44405471e-02 -1.60062425e+00 -3.44553491e-01
 -6.44405471e-02 -1.60062425e+00 -3.44553491e-01 -6.44405471e-02  7.07676209e-01
 -6.75444535e-01  1.36381446e+00  7.07676209e-01 -6.75444535e-01  1.36381446e+00
  7.07676209e-01 -6.75444535e-01  1.36381446e+00  3.05131455e+00  2.22553319e-01
  4.66572494e-01  3.05131455e+00  2.22553319e-01  4.66572494e-01  3.05131455e+00
  2.22553319e-01  4.66572494e-01  5.33618241e+00 -8.22595047e-02  2.28448903e+00
  5.33618241e+00 -8.22595047e-02  2.28448903e+00  5.33618241e+00 -8.22595047e-02
  2.28448903e+00  4.58988250e-01 -1.81835090e+00  3.87450459e+00  4.58988250e-01
 -1.81835090e+00  3.87450459e+00  4.58988250e-01 -1.81835090e+00  3.87450459e+00
  3.37389080e+00  1.27191824e+00 -1.59360693e+00  3.37389080e+00  1.27191824e+00
 -1.59360693e+00  3.37389080e+00  1.27191824e+00 -1.59360693e+00 -3.96240397e+00
 -3.24522394e-01  1.14706287e+00 -3.96240397e+00 -3.24522394e-01  1.14706287e+00
 -3.96240397e+00 -3.24522394e-01  1.14706287e+00 -6.20494196e+00  3.31023599e-01
 -2.82230685e+00 -6.20494196e+00  3.31023599e-01 -2.82230685e+00 -6.20494196e+00
  3.31023599e-01 -2.82230685e+00 -6.22138258e+00 -1.44183368e-02 -2.08815623e-01
 -6.22138258e+00 -1.44183368e-02 -2.08815623e-01 -6.22138258e+00 -1.44183368e-02
 -2.08815623e-01 -3.86924047e+00  2.30112224e-01 -4.04930603e+00 -3.86924047e+00
  2.30112224e-01 -4.04930603e+00 -3.86924047e+00  2.30112224e-01 -4.04930603e+00
 -1.61026186e+00 -8.33933404e-02 -2.69569520e+00 -1.61026186e+00 -8.33933404e-02
 -2.69569520e+00 -1.61026186e+00 -8.33933404e-02 -2.69569520e+00  2.20849670e+00
 -2.73127759e+00  4.47562647e+00 -9.83439701e-01 -3.30140796e+00  3.86524493e+00
 -1.98683498e-02 -3.39829176e-01  5.23869788e+00  7.58930287e+00  1.26700495e+00
  1.32809863e+00  7.58930287e+00  1.26700495e+00  1.32809863e+00  7.58930287e+00
  1.26700495e+00  1.32809863e+00  5.75475674e+00 -2.10974666e+00  2.36631417e+00
  4.85260149e+00  6.11458956e-01  4.17345926e+00 -4.13380212e+00 -4.97243362e-01
  3.18399866e+00 -7.99130006e+00 -2.46228579e-02  8.29021965e-01 -3.77286443e+00
  3.83935930e-01 -6.09606839e+00  1.14302205e-01 -1.91296702e-01 -3.80042910e+00
 -7.85523978e+00  6.49064506e-01 -3.81176745e+00  8.03093186e+00  6.13726627e-01
 -4.30669470e-01  9.07424966e+00  9.61814180e-01  2.51843712e+00
Total Energy                               R     -5.278938473548945e+02
Alpha Orbital Energies                     R   N=          72
 -2.03004120e+01 -1.54540092e+01 -1.53658662e+01 -1.13219177e+01 -1.12351413e+01
 -1.12185233e+01 -1.12138543e+01 -1.11759978e+01 -1.11729111e+01 -1.11688975e+01
 -1.11684340e+01 -1.11648810e+01 -1.37457741e+00 -1.24449550e+00 -1.16446700e+00
 -1.14518109e+00 -1.02407577e+00 -1.01336587e+00 -9.64365303e-01 -9.34608914e-01
 -8.32853744e-01 -8.17550800e-01 -7.48944409e-01 -6.95998701e-01 -6.95189263e-01
 -6.65983088e-01 -6.52960497e-01 -6.25355182e-01 -6.18687702e-01 -6.11251190e-01
 -5.85806471e-01 -5.73022423e-01 -5.62005882e-01 -5.55029768e-01 -5.35373547e-01
 -5.30300540e-01 -5.04437866e-01 -5.02256749e-01 -4.83705056e-01 -4.05485890e-01
 -3.97397751e-01 -3.70693883e-01 -3.42417660e-01 -3.08145082e-01  1.77697525e-01
  1.88681415e-01  2.42935450e-01  4.27623477e-01  4.49413040e-01  5.13271663e-01
  5.41053244e-01  5.55959804e-01  6.05841656e-01  6.41131187e-01  6.51540051e-01
  6.58711113e-01  6.65562800e-01  6.79796809e-01  6.87052669e-01  6.94173527e-01
  7.06115449e-01  7.14721689e-01  7.38759276e-01  7.58348148e-01  7.68927662e-01
  8.48322107e-01  8.65766397e-01  8.80258746e-01  9.17937183e-01  9.46551458e-01
  1.04910841e+00  1.11908746e+00
Alpha MO coefficients                      R   N=        5184
  4.65991001e-06  3.62274607e-05  7.86708040e-05 -6.72704309e-05  1.59832279e-04
  2.36933662e-05  3.06283311e-04  6.43926019e-04 -4.19584616e-04  1.14173023e-03
 -8.03287123e-04  1.48153161e-02  1.99329027e-03  6.56177851e-03 -1.28725018e-02
  8.88792414e-06  2.29624938e-04 -8.07587690e-04 -5.45854615e-04  6.64278235e-04
 -2.18900116e-05 -1.34573276e-04  3.42421960e-04  1.05032853e-04  2.21272479e-05
 -9.90382203e-01 -4.91473617e-02  1.60375804e-03  4.96619701e-03 -9.61618501e-03
  1.36236072e-06 -2.00436847e-05 -1.66317038e-05 -2.02882655e-06 -1.26191470e-05
  7.48023921e-07 -1.36441184e-05 -9.82613095e-06  8.79706149e-06 -1.14968951e-07
 -2.46236113e-07 -6.12683852e-07  2.99891006e-06 -1.47680928e-06 -3.50424228e-06
 -3.40327303e-06  1.26596670e-04  3.96347858e-05 -6.74563528e-05  3.96293793e-05
  2.08891148e-06 -3.12230676e-04  4.38353760e-05  2.15517488e-04  3.75385575e-04
  1.05312090e-05  1.42240506e-04 -3.83072821e-07 -1.93265895e-06  8.28317826e-05
 -1.64043972e-04 -2.23165333e-05  8.85050108e-05 -1.47628665e-04 -1.26632609e-04
  1.54081350e-05  1.48935252e-06 -3.11179258e-06  1.07100362e-03 -8.59883222e-07
  2.98672625e-04  3.47448566e-05 -5.47998334e-04  9.29264168e-03  8.04647714e-03
 -1.07788881e-03  4.88470877e-03 -9.89019649e-01 -5.85679503e-02 -2.81660516e-04
 -7.37255928e-04  2.48950845e-04 -5.79572091e-04  1.05000103e-02 -8.74926836e-03
 -3.25797513e-03  3.20076582e-03 -1.03400424e-06  2.06435831e-04  2.63961866e-04
  2.39648136e-04 -4.86056353e-04 -5.70808486e-04  9.32139679e-03  9.02778401e-04
  3.45753160e-03 -7.73860457e-03  5.31580945e-06  1.96201991e-04  9.97343500e-04
  1.59130960e-04  6.34063788e-05  8.56664623e-06  3.50852433e-04 -2.37732647e-04
  2.00964211e-04 -7.98781764e-04 -4.55393825e-06 -7.26103867e-05  5.80332103e-05
 -8.12596020e-06  3.62826968e-05 -1.01348512e-05 -1.66553162e-04  1.03649419e-04
 -1.02131099e-05 -1.53754836e-04 -1.07982883e-05 -1.45057786e-04 -7.77503268e-05
  8.71450161e-06  1.79509900e-04  7.95403739e-06  3.46893068e-04 -8.14219869e-04
 -4.08478967e-05  1.87102664e-04 -1.12554794e-04 -8.13633381e-05  1.49165325e-04
  1.98365670e-04 -6.09473036e-05 -1.55403585e-04  4.86533444e-05 -1.44043013e-04
 -9.78162574e-05 -5.79705447e-05  4.31187801e-05  1.01427371e-04  1.03414500e-04
  1.23657874e-04  5.48345054e-05  4.40389153e-05  7.37637703e-05 -1.62065550e-06
  4.90188875e-05  3.28725619e-05 -5.94828413e-06  2.66318040e-05 -2.21250305e-04
 -6.69756308e-05  1.37864513e-04 -3.57304125e-05  4.84523438e-05 -7.30143447e-06
  3.60608944e-05 -1.18873389e-04 -1.13717473e-04  3.69883065e-04 -5.74830136e-04
  9.64987973e-03  7.46386781e-03  4.08223056e-03 -3.05727700e-03 -9.43168438e-06
 -2.31063428e-05  1.60284097e-04  1.62333022e-04 -8.24368703e-05 -1.71351341e-05
  9.80753999e-05  2.77362326e-05  6.49288869e-05  8.46833830e-05  1.24166125e-07
 -3.58829900e-06  6.46398462e-07 -4.36673115e-08 -1.70963786e-06 -1.20764186e-08
 -4.45040336e-07  3.91786049e-08 -1.22442065e-09  7.06239588e-08 -1.06183870e-07
  1.15076552e-06  1.59141362e-06 -1.80701615e-08 -1.06121004e-07 -9.84382801e-08
  1.81236165e-06  7.82184199e-07 -6.68355800e-07  1.56892388e-06 -3.67663923e-09
 -1.06044880e-06  1.81627665e-08  1.63341691e-06  5.51777890e-06  2.71849787e-04
  9.02053325e-05 -1.66580540e-05 -9.89151871e-01 -5.73355920e-02 -1.64433439e-03
  7.54183088e-03 -3.65488109e-04 -9.19622732e-05 -6.66119053e-05  4.77818143e-06
  3.82058598e-07  3.79904194e-07  1.04164571e-05  2.07851690e-07  1.29579599e-02
  1.29867623e-02  2.40909161e-03  8.31876685e-04  1.15895241e-03  1.95954342e-04
  1.30970980e-04 -9.66509751e-04  8.84702157e-03  5.82821325e-03  2.31582875e-03
 -2.46561202e-03 -9.89234507e-01 -5.41987045e-02  6.61503973e-05 -1.85177506e-04
 -2.55256225e-05  9.74622111e-03  9.72965556e-03 -5.97089436e-03  1.06946389e-03
 -5.07085201e-03  1.69925658e-03  8.92775541e-04  3.99287069e-04  4.26894099e-04
 -7.07441139e-04 -6.60691071e-04  1.03923790e-02 -7.24709893e-04 -1.82789076e-03
  3.60410244e-03  1.46552081e-04  2.32672175e-04  1.03495853e-04 -6.91821458e-05
 -1.08423789e-04  1.57525840e-06 -2.24890776e-05 -5.72635489e-07 -2.24993279e-08
  4.79604616e-06  1.81109294e-05 -8.95191600e-07  1.99383002e-05  8.18364726e-06
 -7.75321275e-06  1.08085662e-04  2.31709054e-04  8.71403839e-05 -5.02677747e-05
  1.08386530e-04  4.47095688e-04 -1.50643311e-05  4.61869175e-04  4.91233247e-05
  3.51292788e-04  2.82620378e-05  9.71709392e-05  1.17647285e-06 -3.67422695e-05
 -9.31768963e-05 -2.18361000e-04  1.08576605e-04  3.00526096e-08  6.05637204e-04
  4.21154264e-04 -3.36120852e-06  1.05778535e-05  9.75077960e-06  5.03745420e-04
  7.74751333e-06  3.75925108e-04  2.70929519e-04  9.88481136e-01  6.04417356e-02
 -2.48062157e-03  1.26810756e-04 -1.41118720e-03  9.53890797e-04 -7.97483132e-03
  5.44414331e-03 -7.54852880e-04  3.48731271e-03  2.62119751e-03 -8.03309770e-04
  1.02718268e-03  1.68836899e-06  1.41701817e-04 -1.32536852e-03 -2.82002972e-04
  1.26207348e-04  2.66121359e-05  1.02841250e-04 -1.19367211e-02 -1.43540082e-03
  3.52257974e-04 -3.59979902e-04  9.29480255e-04  2.42006078e-06  7.66656196e-05
  3.09719984e-05 -7.31743173e-05  7.88380414e-05 -1.19819475e-02 -1.29684201e-02
 -8.20181056e-03  8.33850706e-05  4.05610445e-03 -7.33000995e-04 -1.56752229e-04
 -2.09751425e-04  2.89390064e-05 -1.28480921e-04 -1.71561406e-03 -4.11551666e-04
 -1.56380867e-04  5.88905732e-05 -3.96733868e-04 -1.68438798e-03 -4.43455899e-04
 -4.37605991e-04  2.25516343e-05  1.56529390e-05 -1.11589342e-02 -1.29594550e-02
 -2.11204177e-04  9.57385176e-04 -9.11359957e-03 -3.70615298e-05 -1.78353505e-04
  1.11580568e-04  2.25730979e-06 -7.79358306e-07  1.62996615e-05 -1.36129646e-06
  3.12963215e-06  4.26319674e-05  2.63938661e-05 -2.54200161e-04 -6.05598059e-05
 -6.64943352e-05 -2.97711122e-04 -9.02262067e-05 -7.39334860e-06 -7.25016146e-06
  1.21152095e-02  1.02200519e-04 -6.93281821e-04  3.01857913e-04 -9.48664970e-04
  1.05932533e-03 -8.76906069e-03  6.20209649e-04  3.05166505e-03 -6.39357643e-03
  1.74230304e-03 -4.87680356e-04  9.09208772e-04  3.82380601e-04 -5.36099163e-04
 -1.77323707e-02 -1.28461456e-03  5.81256765e-04  2.70498313e-04 -2.25709125e-05
  9.88112469e-01  6.21092733e-02  1.09411875e-04 -2.16117533e-04  3.74266385e-04
  2.35122503e-05 -2.22513640e-04 -3.92402313e-05  5.70281073e-05 -1.11308861e-04
 -1.58926125e-03 -2.30407713e-04 -7.75077889e-04  1.21323755e-04 -2.05651331e-04
 -2.04569575e-05  2.32416460e-05 -4.01896350e-06 -1.13719218e-06  3.21645635e-06
 -5.41641448e-04 -3.07265606e-04 -1.75232590e-04  5.79524057e-06 -5.49435054e-05
 -1.08940678e-04 -1.52587720e-05 -1.14032039e-05  8.94401141e-06 -2.10460247e-05
 -7.04073673e-04 -4.51820951e-04  1.85179785e-05 -1.61336413e-05 -3.05185274e-04
 -1.26899920e-02 -1.26070090e-02 -1.27096246e-02  1.76036760e-06 -1.83758766e-05
  6.77950135e-06  2.75542270e-05  8.73802018e-06  4.47242817e-04 -2.44270379e-04
 -5.92170336e-04 -6.70158409e-06 -1.03190829e-05 -2.29689491e-06 -8.25197927e-06
  1.65276819e-06  1.49110785e-06  1.54926358e-03  5.69789006e-05 -2.43453578e-04
 -6.42220026e-05  6.13667673e-05  7.03394850e-05 -4.18490765e-04 -1.27046617e-04
 -9.48717500e-05  2.59797053e-04  1.14714006e-02 -9.61349640e-03 -6.62481139e-03
  6.50843047e-04 -4.96189481e-03  9.88151036e-01  6.14538361e-02 -6.05071397e-04
 -7.97739953e-04  6.41947564e-05  1.78000217e-02  9.85220164e-04 -4.89907069e-04
 -4.40898655e-04  3.05418385e-04  3.47770136e-05 -2.44352633e-04  3.40446149e-04
  3.65061503e-06  2.10998335e-04 -2.00949148e-04 -1.14013882e-04 -7.34365614e-05
  2.20922151e-05  4.06393389e-05 -4.00328616e-06  3.83782025e-06 -7.20262148e-08
 -3.62450312e-07 -5.60518812e-07 -1.91481297e-05 -3.52788379e-06 -3.36782669e-06
 -2.23433526e-06 -1.17601011e-06 -1.04293938e-04 -5.47813592e-05 -2.27428489e-05
  1.12336774e-05 -2.25360245e-05 -2.92281439e-04 -1.17197011e-05 -1.02283678e-04
 -5.74858997e-06 -7.10570499e-05 -9.39535141e-04 -4.44272849e-04 -1.29204637e-04
  1.04214034e-03 -8.28704096e-03  5.72246265e-03  2.84830924e-03 -2.38310065e-03
 -1.25983578e-02 -1.24346461e-02 -2.59269285e-05 -1.72206052e-06 -1.35049885e-06
 -3.92823485e-05 -1.37567788e-06 -1.27851359e-03 -1.32797249e-03  7.97951356e-05
  1.06797893e-03 -6.84943163e-04  4.72805126e-05  2.46059319e-05  1.02568715e-05
  3.35258257e-05  1.14555880e-04  2.56090332e-06 -6.88961433e-05 -1.59471554e-06
 -3.08460334e-05  5.17110666e-06  2.49530550e-05 -2.69316125e-05 -1.46558451e-05
  7.30637291e-06 -3.13378316e-06  4.21387452e-07 -4.36871432e-06  3.58228865e-04
  4.79042904e-06  1.03355936e-04 -3.29360123e-05  2.71055717e-05  3.28668904e-07
 -7.75630099e-06 -2.31487332e-06 -8.05838049e-07 -5.57177225e-06 -1.13867979e-01
 -1.92428318e-02  7.75347034e-03 -1.11465405e-03  4.88024640e-03 -1.11449204e-01
 -1.91155408e-02  2.19830008e-05  1.20260409e-03 -9.18324729e-03  9.75256878e-01
  6.35395382e-02  2.98572738e-03  1.18883218e-04 -1.60363917e-03 -1.42639713e-02
  1.42192605e-04 -4.27312330e-04  2.91310529e-05  2.86675833e-04 -3.72802053e-03
 -1.51360634e-04  2.34860272e-04  1.98431453e-05 -2.93882044e-04 -5.37602686e-05
  2.88814038e-05  1.66131041e-06  1.88594032e-07 -9.94058839e-07  1.14112721e-06
  3.43200417e-07  2.22205001e-07  1.50785706e-06 -1.00485392e-07  9.23434726e-04
 -1.14571972e-02  6.74076828e-05 -8.57041518e-05  9.47162708e-04 -7.12770769e-08
 -4.55104716e-08  1.49000963e-04  1.00895721e-03 -3.52938367e-04  7.73607234e-05
 -4.98244183e-04  1.06677262e-05  3.08709286e-05 -1.74585744e-05 -1.31460212e-05
  1.22923988e-04  6.90595665e-05  3.27103236e-06  3.42584562e-05 -2.74695365e-07
  4.68269464e-05  7.04404525e-05 -1.75013203e-05  1.56604800e-05 -4.93958448e-06
  8.14049033e-06  8.49620074e-06 -2.94986681e-05 -2.60986359e-05 -1.28801091e-05
  6.51241147e-06  4.49676701e-06  3.12178827e-06  3.16452317e-05  2.22918052e-05
  2.15991454e-05 -8.78647353e-03 -4.82239017e-04 -1.74151017e-04 -1.89413103e-05
  3.81647354e-04 -1.98396744e-01 -2.44884869e-02 -8.26783087e-03  3.94312565e-04
  4.06501307e-03 -1.03140190e-02  1.57492062e-03  9.13741304e-05  1.82057991e-04
 -1.31015506e-03  9.62661995e-01  6.36225805e-02 -9.27903761e-04 -2.71310276e-04
  3.63298690e-03 -1.01394846e-01 -1.82535633e-02  7.81837725e-03 -1.03442431e-03
  4.42982967e-03  1.02440258e-05  8.69396783e-07  3.06050724e-06  2.33707147e-07
 -8.22712474e-07  1.02970228e-06  5.75468610e-07  8.63518474e-08 -1.82300970e-06
  2.99806072e-07 -2.35812731e-05  6.41401726e-05 -1.12467799e-02  7.79290053e-04
  2.05558823e-03 -5.56090239e-07 -7.99852676e-07  8.78802881e-03 -8.12375983e-03
  5.50148831e-03 -4.34671990e-05 -2.96114902e-03  2.34661069e-05 -1.39961251e-04
 -3.20771506e-05 -5.59740472e-05  2.37090632e-04  1.41987167e-04 -2.11638672e-05
  9.60152970e-05 -1.61282563e-05  1.14760198e-04  1.02545418e-04 -3.93728493e-05
  2.48448470e-05 -5.61497232e-06  2.07806869e-05  1.05633719e-03 -1.97113126e-05
  2.86025167e-04 -2.45819647e-04  2.36524123e-04 -5.77990947e-07  3.51583593e-05
  1.42647038e-05 -1.03035947e-05  1.92966902e-05  6.85047922e-01  4.29129969e-02
 -5.58584156e-04  3.19265881e-04 -1.65055920e-03 -6.99223968e-01 -4.29219400e-02
 -2.14533849e-05  2.38410522e-04 -1.72471697e-03 -1.82463333e-03  2.70755002e-04
 -5.58681936e-03  1.62858310e-03 -9.91310349e-03 -1.36359774e-01 -3.90756871e-05
 -6.05379650e-03  3.55519587e-04  2.18757977e-03  2.27545203e-02  3.04439249e-03
 -1.36100877e-03  2.58168955e-04 -1.39527401e-03 -1.59869403e-04 -3.29562701e-04
  4.24080218e-05  9.26062882e-08  5.23932760e-07  2.12485833e-07  1.70841737e-07
  7.04151449e-08  2.06639760e-06 -2.75182508e-06 -8.01561599e-03  3.78249499e-05
  1.79640899e-03 -2.42272007e-04  8.90313201e-03 -3.37950137e-07 -1.14979716e-06
  9.33447382e-03 -7.18857820e-03  5.92277686e-03  1.18066936e-06 -3.93193473e-03
  3.88120688e-05 -2.18837048e-04  3.14178049e-05 -7.26999209e-05  3.41181512e-04
  1.22060872e-04 -9.09857916e-06  9.06523427e-05 -7.22096876e-06  9.50441985e-05
  1.04755588e-04 -3.68584005e-05  2.49364081e-05 -6.01166487e-06  1.96575567e-05
  1.13999619e-03 -3.82406814e-05  2.93089615e-04 -2.63887854e-04  2.56142845e-04
 -1.39824248e-06  3.76051098e-05 -1.37601457e-06  4.94525530e-06  1.41936506e-05
  7.01439114e-01  4.11909167e-02  1.50543530e-03  5.97142107e-05 -7.09735640e-04
  6.57830790e-01  3.77686409e-02  3.44297838e-04  1.97545569e-05 -5.01347357e-04
  1.60535064e-01 -7.25242912e-03 -5.11729935e-03 -4.58049520e-05  2.68016253e-03
  1.34122958e-01  9.80299674e-04  6.42852264e-03 -3.64762779e-04 -2.34675032e-03
 -9.80227510e-02 -8.60565861e-03  1.54834772e-03 -1.28969266e-04  3.15532580e-04
 -1.66602464e-04 -3.34635634e-04  4.88804877e-05  1.75197597e-07 -6.40641885e-08
  5.33283883e-07  4.57902385e-07  5.66771222e-08  2.23517304e-06 -2.44396473e-06
 -8.47944745e-03 -2.54458912e-03 -1.99801373e-03  8.63735711e-04 -8.59623406e-03
 -2.35798171e-07 -1.20448387e-06  1.34581640e-02 -1.22856296e-02  2.96466884e-04
 -8.80568473e-04  8.97723235e-03  5.01953808e-05 -3.35078351e-04  3.68920455e-04
  2.66787210e-05 -1.16257894e-04  6.05181489e-04 -2.53010284e-04  3.81297822e-04
 -3.46270156e-06  3.61522878e-04  2.93828333e-04 -1.19006300e-04  7.74230799e-05
 -1.79264006e-05  5.85099079e-05  7.09641711e-04 -1.73463257e-05  2.38744552e-04
 -1.11168930e-04  1.27096137e-04  1.12804796e-05  4.68071819e-05  2.03288777e-04
 -1.21401620e-04  2.53775535e-05  5.30462069e-02  2.36238152e-03 -4.20898572e-04
 -1.24782548e-06  3.43239439e-04  6.13104325e-02  1.73972293e-03 -1.13935046e-03
  2.17499503e-05  8.21872152e-04  1.88565235e-02 -5.42229212e-04 -7.50792361e-04
 -1.68378337e-05  6.01150500e-04  1.17776899e-01 -5.79436272e-03 -7.28984325e-03
  1.06195122e-03 -4.72321869e-03  9.78150396e-01  5.92284453e-02 -1.32083348e-03
 -3.03955836e-04  1.51825421e-03 -1.15596193e-04 -2.32058541e-05  2.38912571e-05
  7.72826431e-07  3.64641867e-07  5.05454764e-06  6.54676924e-07  1.06046362e-06
 -2.10226799e-07 -4.31003322e-06 -8.35988151e-04 -4.73009852e-04 -1.90482389e-03
 -1.15910504e-02 -9.56574924e-04 -4.15375112e-06 -4.13708366e-06  1.96677716e-02
 -4.69828616e-02 -1.67952708e-02  3.18703608e-03 -1.04091498e-02  6.09052915e-02
 -2.01041698e-01 -3.88653441e-02 -1.67572655e-02  1.46934145e-02  1.33028580e-01
 -3.08968120e-01 -2.23364393e-03 -5.88733819e-02  1.27816764e-01  2.55787356e-02
 -7.17061276e-02  2.66909069e-02 -1.38955993e-03  1.93661604e-02  1.59816252e-02
 -4.02394755e-02 -4.10361136e-03 -9.08558449e-03  1.90064178e-02  1.84554340e-01
 -6.65034922e-01  2.63685472e-02  8.08450017e-02 -1.50451384e-01  4.58725178e-03
 -1.09791406e-02 -4.76609497e-03 -2.96719035e-04  3.30174171e-03  7.51403989e-04
 -1.75265780e-03 -5.35668562e-04  1.24834558e-04 -1.91373597e-04  1.18734635e-03
 -2.82068334e-03 -1.36636153e-03  1.60475802e-04 -4.27498620e-04  1.58710189e-03
 -3.28837400e-03 -1.27818337e-03  7.65223715e-05 -1.19690283e-03  6.85476426e-03
 -1.78042106e-02  4.29297508e-04  1.00938132e-04 -5.96845384e-03 -5.47125609e-03
 -5.01377360e-03 -4.73021868e-03  1.19459132e-02 -3.84258578e-02  6.54312018e-03
  9.13695172e-03 -1.61722323e-03 -8.11155550e-03 -7.64326380e-03 -1.60455560e-03
 -3.74523885e-04 -4.90959000e-04 -5.17366053e-03 -2.19560119e-04 -5.44415820e-03
 -4.60295461e-03  9.11779651e-02 -2.30209559e-01 -5.22004944e-02  1.05326777e-02
 -3.96953690e-02  1.71267817e-01 -5.59876526e-01  2.03077387e-02  2.46492437e-04
 -9.81976047e-03  1.52248174e-02 -4.73951480e-02  9.91064882e-02  7.66638893e-02
 -1.19946949e-01  9.40605880e-03 -2.41373051e-02  4.98348708e-03 -7.01949903e-04
  4.40966041e-03  7.65217990e-02 -2.01610834e-01 -5.93836409e-03 -3.22032518e-02
  7.18344545e-02 -8.14560790e-02  2.99972533e-01  2.12355118e-04 -2.37264900e-02
  4.58035247e-02  3.79265436e-02 -9.77348013e-02 -2.99992083e-02 -1.35381594e-04