      -----------------------------------------------------------      
     |                   =====================                   |     
     |                           x T B                           |     
     |                   =====================                   |     
     |                         S. Grimme                         |     
     |          Mulliken Center for Theoretical Chemistry        |     
     |                    University of Bonn                     |     
      -----------------------------------------------------------      

   * xtb version 6.5.0 (97a52f5) compiled by 'conda@d2599ee0d4f4' on 2022-05-15

   xtb is free software: you can redistribute it and/or modify it under
   the terms of the GNU Lesser General Public License as published by
   the Free Software Foundation, either version 3 of the License, or
   (at your option) any later version.
   
   xtb is distributed in the hope that it will be useful,
   but WITHOUT ANY WARRANTY; without even the implied warranty of
   MERCHANTABILITY or FITNESS FOR A PARTICULAR PURPOSE.  See the
   GNU Lesser General Public License for more details.
   
   Cite this work as:
   * C. Bannwarth, E. Caldeweyher, S. Ehlert, A. Hansen, P. Pracht,
     J. Seibert, S. Spicher, S. Grimme, WIREs Comput. Mol. Sci., 2020, 11,
     e01493. DOI: 10.1002/wcms.1493
   
   for GFN2-xTB:
   * C. Bannwarth, S. Ehlert and S. Grimme., J. Chem. Theory Comput., 2019,
     15, 1652-1671. DOI: 10.1021/acs.jctc.8b01176
   for GFN1-xTB:
   * S. Grimme, C. Bannwarth, P. Shushkov, J. Chem. Theory Comput., 2017,
     13, 1989-2009. DOI: 10.1021/acs.jctc.7b00118
   for GFN0-xTB:
   * P. Pracht, E. Caldeweyher, S. Ehlert, S. Grimme, ChemRxiv, 2019, preprint.
     DOI: 10.26434/chemrxiv.8326202.v1
   for GFN-FF:
   * S. Spicher and S. Grimme, Angew. Chem. Int. Ed., 2020, 59, 15665-15673.
     DOI: 10.1002/anie.202004239
   
   for ALPB and GBSA implicit solvation:
   * S. Ehlert, M. Stahn, S. Spicher, S. Grimme, J. Chem. Theory Comput.,
     2021, 17, 4250-4261. DOI: 10.1021/acs.jctc.1c00471
   
   for DFT-D4:
   * E. Caldeweyher, C. Bannwarth and S. Grimme, J. Chem. Phys., 2017,
     147, 034112. DOI: 10.1063/1.4993215
   * E. Caldeweyher, S. Ehlert, A. Hansen, H. Neugebauer, S. Spicher,
     C. Bannwarth and S. Grimme, J. Chem. Phys., 2019, 150, 154122.
     DOI: 10.1063/1.5090222
   * E. Caldeweyher, J.-M. Mewes, S. Ehlert and S. Grimme, Phys. Chem. Chem. Phys.
     2020, 22, 8499-8512. DOI: 10.1039/D0CP00502A
   
   for sTDA-xTB:
   * S. Grimme and C. Bannwarth, J. Chem. Phys., 2016, 145, 054103.
     DOI: 10.1063/1.4959605
   
   in the mass-spec context:
   * V. Asgeirsson, C. Bauer and S. Grimme, Chem. Sci., 2017, 8, 4879.
     DOI: 10.1039/c7sc00601b
   * J. Koopman and S. Grimme, ACS Omega 2019, 4, 12, 15120-15133.
     DOI: 10.1021/acsomega.9b02011
   
   for metadynamics refer to:
   * S. Grimme, J. Chem. Theory Comput., 2019, 155, 2847-2862
     DOI: 10.1021/acs.jctc.9b00143
   
   for SPH calculations refer to:
   * S. Spicher and S. Grimme, J. Chem. Theory Comput., 2021, 17, 1701-1714
     DOI: 10.1021/acs.jctc.0c01306
   
   with help from (in alphabetical order)
   P. Atkinson, C. Bannwarth, F. Bohle, G. Brandenburg, E. Caldeweyher
   M. Checinski, S. Dohm, S. Ehlert, S. Ehrlich, I. Gerasimov, C. Hölzer
   A. Katbashev, J. Koopman, C. Lavigne, S. Lehtola, F. März, M. Müller,
   F. Musil, H. Neugebauer, J. Pisarek, C. Plett, P. Pracht, F. Pultar,
   J. Seibert, P. Shushkov, S. Spicher, M. Stahn, M. Steiner, T. Strunk,
   J. Stückrath, T. Rose, and J. Unsleber
   
 * started run on 2023/11/18 at 08:06:27.838     

           -------------------------------------------------
          |                Calculation Setup                |
           -------------------------------------------------

          program call               : /home/liuchw/anaconda3/envs/xtbenv/bin/xtb --gfn 2 --chrg 0 --uhf 0 35_38_Index_0-opt-2-3-120_preQMOPTprefit_xyzformat.xyz --opt --input xtb-opt-2-3-120_constr.txt
          hostname                   : node165.bme.utexas.edu
          coordinate file            : 35_38_Index_0-opt-2-3-120_preQMOPTprefit_xyzformat.xyz
          omp threads                :                    64

   ID    Z sym.   atoms
    1    1 H      1, 5, 6, 8
    2    6 C      2, 4
    3    8 O      3, 7
constraining angle 1 2 3 4 to  120.0001308°, actual value:  120.0001308°
constraining angle 2 3 4 7 to    0.0005529°, actual value:    0.0005529°

           -------------------------------------------------
          |                 G F N 2 - x T B                 |
           -------------------------------------------------

        Reference                      10.1021/acs.jctc.8b01176
      * Hamiltonian:
        H0-scaling (s, p, d)           1.850000    2.230000    2.230000
        zeta-weighting                 0.500000
      * Dispersion:
        s8                             2.700000
        a1                             0.520000
        a2                             5.000000
        s9                             5.000000
      * Repulsion:
        kExp                           1.500000    1.000000
        rExp                           1.000000
      * Coulomb:
        alpha                          2.000000
        third order                    shell-resolved
        anisotropic                    true
        a3                             3.000000
        a5                             4.000000
        cn-shift                       1.200000
        cn-exp                         4.000000
        max-rad                        5.000000

q/qsh data taken from xtbrestart
CAMM data taken from xtbrestart

          ...................................................
          :                      SETUP                      :
          :.................................................:
          :  # basis functions                  20          :
          :  # atomic orbitals                  20          :
          :  # shells                           12          :
          :  # electrons                        24          :
          :  max. iterations                   250          :
          :  Hamiltonian                  GFN2-xTB          :
          :  restarted?                       true          :
          :  GBSA solvation                  false          :
          :  PC potential                    false          :
          :  electronic temp.          300.0000000     K    :
          :  accuracy                    1.0000000          :
          :  -> integral cutoff          0.2500000E+02      :
          :  -> integral neglect         0.1000000E-07      :
          :  -> SCF convergence          0.1000000E-05 Eh   :
          :  -> wf. convergence          0.1000000E-03 e    :
          :  Broyden damping             0.4000000          :
          ...................................................

 iter      E             dE          RMSdq      gap      omega  full diag
   1    -14.5555808 -0.145556E+02  0.119E+00    4.83       0.0  T
   2    -14.5562085 -0.627648E-03  0.708E-01    4.94       1.0  T
   3    -14.5561684  0.401099E-04  0.229E-01    4.86       1.0  T
   4    -14.5562800 -0.111650E-03  0.413E-02    4.92       1.0  T
   5    -14.5562852 -0.518413E-05  0.207E-02    4.91       1.7  T
   6    -14.5562854 -0.210764E-06  0.489E-03    4.91       7.2  T
   7    -14.5562854 -0.179908E-07  0.475E-04    4.91      74.4  T
   8    -14.5562854 -0.217542E-09  0.228E-04    4.91     155.2  T

   *** convergence criteria satisfied after 8 iterations ***

         #    Occupation            Energy/Eh            Energy/eV
      -------------------------------------------------------------
         1        2.0000           -0.7474919             -20.3403
       ...           ...                  ...                  ...
         6        2.0000           -0.5889483             -16.0261
         7        2.0000           -0.5720439             -15.5661
         8        2.0000           -0.5286357             -14.3849
         9        2.0000           -0.5216132             -14.1938
        10        2.0000           -0.4875571             -13.2671
        11        2.0000           -0.4603229             -12.5260
        12        2.0000           -0.4402730             -11.9804 (HOMO)
        13                         -0.2599438              -7.0734 (LUMO)
        14                         -0.0355649              -0.9678
        15                          0.1076372               2.9290
        16                          0.1259506               3.4273
        17                          0.1679069               4.5690
       ...                                ...                  ...
        20                          0.5753183              15.6552
      -------------------------------------------------------------
                  HL-Gap            0.1803292 Eh            4.9070 eV
             Fermi-level           -0.3501084 Eh           -9.5269 eV

 SCC (total)                   0 d,  0 h,  0 min,  1.146 sec
 SCC setup                      ...        0 min,  0.024 sec (  2.078%)
 Dispersion                     ...        0 min,  0.083 sec (  7.204%)
 classical contributions        ...        0 min,  0.038 sec (  3.294%)
 integral evaluation            ...        0 min,  0.070 sec (  6.104%)
 iterations                     ...        0 min,  0.716 sec ( 62.457%)
 molecular gradient             ...        0 min,  0.215 sec ( 18.802%)
 printout                       ...        0 min,  0.000 sec (  0.021%)

         :::::::::::::::::::::::::::::::::::::::::::::::::::::
         ::                     SUMMARY                     ::
         :::::::::::::::::::::::::::::::::::::::::::::::::::::
         :: total energy             -14.439795833798 Eh    ::
         :: gradient norm              0.058803120195 Eh/a0 ::
         :: HOMO-LUMO gap              4.907006847190 eV    ::
         ::.................................................::
         :: SCC energy               -14.556285442216 Eh    ::
         :: -> isotropic ES            0.038455211804 Eh    ::
         :: -> anisotropic ES          0.001652070850 Eh    ::
         :: -> anisotropic XC          0.001763348603 Eh    ::
         :: -> dispersion             -0.002826239092 Eh    ::
         :: repulsion energy           0.116489186385 Eh    ::
         :: add. restraining           0.000000000000 Eh    ::
         :: total charge              -0.000000000000 e     ::
         :::::::::::::::::::::::::::::::::::::::::::::::::::::

      ----------------------------------------------------------- 
     |                   =====================                   |
     |                        A N C O P T                        |
     |                   =====================                   |
     |               Approximate Normal Coordinate               |
     |                Rational Function Optimizer                |
      ----------------------------------------------------------- 

          ...................................................
          :                      SETUP                      :
          :.................................................:
          :   optimization level            normal          :
          :   max. optcycles                   200          :
          :   ANC micro-cycles                  20          :
          :   degrees of freedom                18          :
          :.................................................:
          :   RF solver                   davidson          :
          :   write xtbopt.log                true          :
          :   linear?                        false          :
          :   energy convergence         0.5000000E-05 Eh   :
          :   grad. convergence          0.1000000E-02 Eh/α :
          :   maximium RF displ.         1.0000000          :
          :   Hlow (freq-cutoff)         0.1000000E-01      :
          :   Hmax (freq-cutoff)         5.0000000          :
          :   S6 in model hess.         20.0000000          :
          ...................................................

generating ANC from model Hessian ...
Using Lindh-Hessian (1995)
 Shifting diagonal of input Hessian by    9.5644900828956853E-004
 Lowest  eigenvalues of input Hessian
    0.000000    0.000000    0.000000    0.000000    0.000000    0.000000
    0.010000    0.021302    0.054152    0.075740    0.089116    0.097579
    0.126799    0.215639    0.334179    0.474416    0.619801    0.677803
 Highest eigenvalues
    1.071440    1.157024    1.598300    2.290733    3.712037   14.103199


........................................................................
.............................. CYCLE    1 ..............................
........................................................................
   1    -14.5562854 -0.145563E+02  0.348E-05    4.91       0.0  T
   2    -14.5562854 -0.492051E-12  0.205E-05    4.91    1725.2  T
   3    -14.5562854 -0.213163E-12  0.474E-06    4.91    7466.3  T
     SCC iter.                  ...        0 min,  0.243 sec
     gradient                   ...        0 min,  0.196 sec
 * total energy  :   -14.4397958 Eh     change       -0.3229772E-10 Eh
   gradient norm :     0.0588033 Eh/α   predicted     0.0000000E+00 (-100.00%)
   displ. norm   :     0.1696822 α      lambda       -0.4997937E-02
   maximum displ.:     0.1040437 α      in ANC's #2, #4, #6, ...

........................................................................
.............................. CYCLE    2 ..............................
........................................................................
   1    -14.5691183 -0.145691E+02  0.268E-01    5.21       0.0  T
   2    -14.5692812 -0.162908E-03  0.168E-01    5.15       1.0  T
   3    -14.5692957 -0.145342E-04  0.947E-02    5.17       1.0  T
   4    -14.5692979 -0.218399E-05  0.132E-02    5.16       2.7  T
   5    -14.5692984 -0.471242E-06  0.534E-03    5.16       6.6  T
   6    -14.5692984 -0.307777E-07  0.141E-03    5.16      25.1  T
   7    -14.5692984 -0.760920E-09  0.115E-04    5.16     307.7  T
   8    -14.5692984 -0.132871E-10  0.622E-05    5.16     568.2  T
     SCC iter.                  ...        0 min,  0.627 sec
     gradient                   ...        0 min,  0.172 sec
 * total energy  :   -14.4429417 Eh     change       -0.3145859E-02 Eh
   gradient norm :     0.0225470 Eh/α   predicted    -0.2570916E-02 ( -18.28%)
   displ. norm   :     0.0502005 α      lambda       -0.7339474E-03
   maximum displ.:     0.0238757 α      in ANC's #4, #6, #8, ...

........................................................................
.............................. CYCLE    3 ..............................
........................................................................
   1    -14.5725470 -0.145725E+02  0.132E-01    5.27       0.0  T
   2    -14.5726439 -0.969325E-04  0.760E-02    5.22       1.0  T
   3    -14.5726496 -0.565908E-05  0.437E-02    5.23       1.0  T
   4    -14.5726494  0.196911E-06  0.131E-02    5.23       2.7  T
   5    -14.5726497 -0.333457E-06  0.198E-03    5.23      17.8  T
   6    -14.5726497 -0.256882E-08  0.441E-04    5.23      80.3  T
   7    -14.5726497 -0.491855E-10  0.184E-04    5.23     192.0  T
     SCC iter.                  ...        0 min,  0.466 sec
     gradient                   ...        0 min,  0.182 sec
 * total energy  :   -14.4433372 Eh     change       -0.3955160E-03 Eh
   gradient norm :     0.0085799 Eh/α   predicted    -0.3678983E-03 (  -6.98%)
   displ. norm   :     0.0198766 α      lambda       -0.5499591E-04
   maximum displ.:     0.0152753 α      in ANC's #2, #1, #14, ...

........................................................................
.............................. CYCLE    4 ..............................
........................................................................
   1    -14.5718730 -0.145719E+02  0.358E-02    5.22       0.0  T
   2    -14.5718776 -0.458702E-05  0.189E-02    5.21       1.9  T
   3    -14.5718777 -0.946960E-07  0.109E-02    5.21       3.3  T
   4    -14.5718777  0.472328E-08  0.239E-03    5.21      14.8  T
   5    -14.5718777 -0.206807E-07  0.482E-04    5.21      73.3  T
   6    -14.5718777 -0.724540E-10  0.922E-05    5.21     383.6  T
     SCC iter.                  ...        0 min,  0.422 sec
     gradient                   ...        0 min,  0.191 sec
 * total energy  :   -14.4433681 Eh     change       -0.3091423E-04 Eh
   gradient norm :     0.0077666 Eh/α   predicted    -0.2750938E-04 ( -11.01%)
   displ. norm   :     0.0365949 α      lambda       -0.3938256E-04
   maximum displ.:     0.0325012 α      in ANC's #1, #2, #4, ...

........................................................................
.............................. CYCLE    5 ..............................
........................................................................
   1    -14.5709229 -0.145709E+02  0.634E-02    5.19       0.0  T
   2    -14.5709260 -0.305921E-05  0.371E-02    5.19       1.0  T
   3    -14.5709260 -0.108041E-07  0.125E-02    5.19       2.8  T
   4    -14.5709261 -0.620945E-07  0.203E-03    5.19      17.4  T
   5    -14.5709261 -0.148998E-07  0.805E-04    5.19      43.9  T
   6    -14.5709261 -0.141167E-09  0.112E-04    5.19     315.5  T
     SCC iter.                  ...        0 min,  0.385 sec
     gradient                   ...        0 min,  0.191 sec
 * total energy  :   -14.4433513 Eh     change        0.1686138E-04 Eh
   gradient norm :     0.0135775 Eh/α   predicted    -0.1971979E-04 (-216.95%)
   displ. norm   :     0.0315504 α      lambda       -0.5337988E-04
   maximum displ.:     0.0299354 α      in ANC's #1, #2, #5, ...

........................................................................
.............................. CYCLE    6 ..............................
........................................................................
   1    -14.5713563 -0.145714E+02  0.534E-02    5.20       0.0  T
   2    -14.5713574 -0.107664E-05  0.320E-02    5.20       1.1  T
   3    -14.5713574  0.118237E-07  0.711E-03    5.20       5.0  T
   4    -14.5713574 -0.533465E-07  0.139E-03    5.20      25.5  T
   5    -14.5713574 -0.603238E-08  0.634E-04    5.20      55.7  T
   6    -14.5713574 -0.842935E-10  0.728E-05    5.20     485.7  T
     SCC iter.                  ...        0 min,  0.437 sec
     gradient                   ...        0 min,  0.182 sec
 * total energy  :   -14.4433762 Eh     change       -0.2492424E-04 Eh
   gradient norm :     0.0050785 Eh/α   predicted    -0.2671634E-04 (   7.19%)
   displ. norm   :     0.0120437 α      lambda       -0.9281717E-05
   maximum displ.:     0.0110683 α      in ANC's #1, #2, #5, ...

........................................................................
.............................. CYCLE    7 ..............................
........................................................................
   1    -14.5715813 -0.145716E+02  0.197E-02    5.20       0.0  T
   2    -14.5715814 -0.138684E-06  0.116E-02    5.21       3.0  T
   3    -14.5715814 -0.933493E-09  0.237E-03    5.20      14.9  T
   4    -14.5715814 -0.362173E-08  0.442E-04    5.20      79.9  T
   5    -14.5715814 -0.504846E-09  0.226E-04    5.20     156.3  T
     SCC iter.                  ...        0 min,  0.327 sec
     gradient                   ...        0 min,  0.211 sec
 * total energy  :   -14.4433720 Eh     change        0.4155524E-05 Eh
   gradient norm :     0.0119940 Eh/α   predicted    -0.4640429E-05 (-211.67%)
   displ. norm   :     0.0064419 α      lambda       -0.1195026E-04
   maximum displ.:     0.0058633 α      in ANC's #1, #2, #5, ...

........................................................................
.............................. CYCLE    8 ..............................
........................................................................
   1    -14.5714389 -0.145714E+02  0.109E-02    5.20       0.0  T
   2    -14.5714390 -0.987226E-07  0.627E-03    5.20       5.6  T
   3    -14.5714390 -0.306841E-09  0.226E-03    5.20      15.6  T
   4    -14.5714390 -0.197902E-08  0.347E-04    5.20     102.0  T
   5    -14.5714390 -0.484714E-09  0.131E-04    5.20     270.9  T
     SCC iter.                  ...        0 min,  0.334 sec
     gradient                   ...        0 min,  0.199 sec
 * total energy  :   -14.4433781 Eh     change       -0.6057188E-05 Eh
   gradient norm :     0.0002390 Eh/α   predicted    -0.5975111E-05 (  -1.36%)
   displ. norm   :     0.0008122 α      lambda       -0.6499347E-07
   maximum displ.:     0.0004456 α      in ANC's #8, #9, #2, ...

........................................................................
.............................. CYCLE    9 ..............................
........................................................................
   1    -14.5714491 -0.145714E+02  0.190E-03    5.20       0.0  T
   2    -14.5714491 -0.108969E-08  0.108E-03    5.20      32.9  T
   3    -14.5714491  0.907239E-10  0.313E-04    5.20     113.1  T
   4    -14.5714491 -0.195046E-09  0.366E-05    5.20     965.7  T
     SCC iter.                  ...        0 min,  0.303 sec
     gradient                   ...        0 min,  0.179 sec
 * total energy  :   -14.4433781 Eh     change       -0.5927262E-07 Eh
   gradient norm :     0.0000992 Eh/α   predicted    -0.3359126E-07 ( -43.33%)
   displ. norm   :     0.0002791 α      lambda       -0.2561756E-08
   maximum displ.:     0.0001827 α      in ANC's #2, #8, #1, ...

   *** GEOMETRY OPTIMIZATION CONVERGED AFTER 9 ITERATIONS ***

------------------------------------------------------------------------
 total energy gain   :        -0.0035823 Eh       -2.2479 kcal/mol
 total RMSD          :         0.0666040 a0        0.0352 Å
 total power (kW/mol):        -1.0450403 (step)   -1.3929 (real)
------------------------------------------------------------------------

 ANCopt (total)                0 d,  0 h,  0 min,  6.752 sec
 optimizer setup                ...        0 min,  0.000 sec (  0.006%)
 model hessian                  ...        0 min,  0.001 sec (  0.012%)
 ANC generation                 ...        0 min,  0.000 sec (  0.005%)
 coordinate transformation      ...        0 min,  0.000 sec (  0.003%)
 single point calculation       ...        0 min,  6.547 sec ( 96.965%)
 optimization log               ...        0 min,  0.010 sec (  0.147%)
 hessian update                 ...        0 min,  0.191 sec (  2.833%)
 rational function              ...        0 min,  0.001 sec (  0.014%)

================
 final structure:
================
8
 xtb: 6.5.0 (97a52f5)
H           -1.69505930186645       -1.03976260283503        0.84347489663422
C           -1.31077848815761       -0.04214502251565        0.63218309544273
O            0.11346195371550       -0.08886436931009        0.69680102581315
C            0.78913641547782        0.23730431126351       -0.38990899782425
H           -1.66321436830531        0.65830090755694        1.38886236626997
H           -1.62669073963048        0.28233655532360       -0.36069656291874
O            0.34225393653273        0.57470249001441       -1.44543923521437
H            1.86583060223382        0.14821972050230       -0.16801357820272

 Bond Distances (Angstroems)
 ---------------------------
H1-C2=1.0898         C2-H1=1.0898         C2-O3=1.4265         C2-H5=1.0897         C2-H6=1.0913         O3-C2=1.4265         
O3-C4=1.3206         C4-O3=1.3206         C4-O7=1.1949         C4-H8=1.1029         H5-C2=1.0897         H6-C2=1.0913         
O7-C4=1.1949         H8-C4=1.1029         
 C  H  Rav=1.0934 sigma=0.0055  Rmin=1.0897  Rmax=1.1029     4
 O  C  Rav=1.3140 sigma=0.0947  Rmin=1.1949  Rmax=1.4265     3

 selected bond angles (degree)
 --------------------
O3-C2-H1=108.26                H5-C2-H1=109.86                H5-C2-O3=108.21                H6-C2-H1=110.27                
H6-C2-O3=109.88                H6-C2-H5=110.31                C4-O3-C2=117.74                O7-C4-O3=127.25                
H8-C4-O3=108.30                H8-C4-O7=124.45                

 selected dihedral angles (degree)
 ---------------------------------
C4-O3-C2-H1=120.00            C4-O3-C2-H5=239.03            C4-O3-C2-H6=359.52            O7-C4-O3-C2=  0.00            
H8-C4-O3-C2=179.99            
           -------------------------------------------------
          |                Final Singlepoint                |
           -------------------------------------------------

          ...................................................
          :                      SETUP                      :
          :.................................................:
          :  # basis functions                  20          :
          :  # atomic orbitals                  20          :
          :  # shells                           12          :
          :  # electrons                        24          :
          :  max. iterations                   250          :
          :  Hamiltonian                  GFN2-xTB          :
          :  restarted?                      false          :
          :  GBSA solvation                  false          :
          :  PC potential                    false          :
          :  electronic temp.          300.0000000     K    :
          :  accuracy                    1.0000000          :
          :  -> integral cutoff          0.2500000E+02      :
          :  -> integral neglect         0.1000000E-07      :
          :  -> SCF convergence          0.1000000E-05 Eh   :
          :  -> wf. convergence          0.1000000E-03 e    :
          :  Broyden damping             0.4000000          :
          ...................................................

 iter      E             dE          RMSdq      gap      omega  full diag
   1    -14.5714491 -0.145714E+02  0.170E-05    5.20       0.0  T
   2    -14.5714491 -0.763833E-13  0.107E-05    5.20    3292.4  T
   3    -14.5714491 -0.444089E-13  0.220E-06    5.20   16096.5  T

   *** convergence criteria satisfied after 3 iterations ***

         #    Occupation            Energy/Eh            Energy/eV
      -------------------------------------------------------------
         1        2.0000           -0.7602093             -20.6863
       ...           ...                  ...                  ...
         6        2.0000           -0.6014643             -16.3667
         7        2.0000           -0.5737333             -15.6121
         8        2.0000           -0.5300060             -14.4222
         9        2.0000           -0.5203359             -14.1591
        10        2.0000           -0.4865380             -13.2394
        11        2.0000           -0.4609177             -12.5422
        12        2.0000           -0.4357391             -11.8571 (HOMO)
        13                         -0.2445851              -6.6555 (LUMO)
        14                          0.0057390               0.1562
        15                          0.1215416               3.3073
        16                          0.1478332               4.0227
        17                          0.1783795               4.8540
       ...                                ...                  ...
        20                          0.6484764              17.6459
      -------------------------------------------------------------
                  HL-Gap            0.1911541 Eh            5.2016 eV
             Fermi-level           -0.3401621 Eh           -9.2563 eV

 SCC (total)                   0 d,  0 h,  0 min,  0.589 sec
 SCC setup                      ...        0 min,  0.010 sec (  1.756%)
 Dispersion                     ...        0 min,  0.048 sec (  8.133%)
 classical contributions        ...        0 min,  0.036 sec (  6.086%)
 integral evaluation            ...        0 min,  0.066 sec ( 11.159%)
 iterations                     ...        0 min,  0.239 sec ( 40.648%)
 molecular gradient             ...        0 min,  0.189 sec ( 32.158%)
 printout                       ...        0 min,  0.000 sec (  0.022%)

         :::::::::::::::::::::::::::::::::::::::::::::::::::::
         ::                     SUMMARY                     ::
         :::::::::::::::::::::::::::::::::::::::::::::::::::::
         :: total energy             -14.443378147334 Eh    ::
         :: gradient norm              0.000099403813 Eh/a0 ::
         :: HOMO-LUMO gap              5.201566684853 eV    ::
         ::.................................................::
         :: SCC energy               -14.571449109455 Eh    ::
         :: -> isotropic ES            0.038275644390 Eh    ::
         :: -> anisotropic ES          0.001516614069 Eh    ::
         :: -> anisotropic XC          0.000752519150 Eh    ::
         :: -> dispersion             -0.002857533680 Eh    ::
         :: repulsion energy           0.128070577784 Eh    ::
         :: add. restraining           0.000000000153 Eh    ::
         :: total charge              -0.000000000000 e     ::
         :::::::::::::::::::::::::::::::::::::::::::::::::::::

           -------------------------------------------------
          |                Property Printout                |
           -------------------------------------------------

    * Orbital Energies and Occupations

         #    Occupation            Energy/Eh            Energy/eV
      -------------------------------------------------------------
         1        2.0000           -0.7602093             -20.6863
         2        2.0000           -0.7310353             -19.8925
         3        2.0000           -0.6876770             -18.7126
         4        2.0000           -0.6219440             -16.9240
         5        2.0000           -0.6044199             -16.4471
         6        2.0000           -0.6014643             -16.3667
         7        2.0000           -0.5737333             -15.6121
         8        2.0000           -0.5300060             -14.4222
         9        2.0000           -0.5203359             -14.1591
        10        2.0000           -0.4865380             -13.2394
        11        2.0000           -0.4609177             -12.5422
        12        2.0000           -0.4357391             -11.8571 (HOMO)
        13                         -0.2445851              -6.6555 (LUMO)
        14                          0.0057390               0.1562
        15                          0.1215416               3.3073
        16                          0.1478332               4.0227
        17                          0.1783795               4.8540
        18                          0.1861367               5.0650
        19                          0.2783855               7.5753
        20                          0.6484764              17.6459
      -------------------------------------------------------------
                  HL-Gap            0.1911541 Eh            5.2016 eV
             Fermi-level           -0.3401621 Eh           -9.2563 eV

     #   Z          covCN         q      C6AA      α(0)
     1   1 H        0.925     0.070     2.085     2.258
     2   6 C        3.652     0.019    20.555     6.511
     3   8 O        1.703    -0.237    17.930     5.717
     4   6 C        2.663     0.338    21.259     7.544
     5   1 H        0.925     0.070     2.083     2.257
     6   1 H        0.924     0.082     1.962     2.190
     7   8 O        0.856    -0.375    21.188     6.171
     8   1 H        0.923     0.033     2.550     2.497

 Mol. C6AA /au·bohr⁶  :        565.630240
 Mol. C8AA /au·bohr⁸  :      11876.134417
 Mol. α(0) /au        :         35.145802


Wiberg/Mayer (AO) data.
largest (>0.10) Wiberg bond orders for each atom

 ---------------------------------------------------------------------------
     #   Z sym  total        # sym  WBO       # sym  WBO       # sym  WBO
 ---------------------------------------------------------------------------
     1   1 H    0.995 --     2 C    0.977
     2   6 C    3.916 --     5 H    0.977     1 H    0.977     6 H    0.975
                             3 O    0.947
     3   8 O    2.347 --     4 C    1.181     2 C    0.947     7 O    0.198
     4   6 C    3.922 --     7 O    1.796     3 O    1.181     8 H    0.915
     5   1 H    0.995 --     2 C    0.977
     6   1 H    0.993 --     2 C    0.975
     7   8 O    2.072 --     4 C    1.796     3 O    0.198
     8   1 H    0.999 --     4 C    0.915
 ---------------------------------------------------------------------------

Topologies differ in total number of bonds
Writing topology from bond orders to xtbtopo.mol

molecular dipole:
                 x           y           z       tot (Debye)
 q only:       -0.419      -0.215       0.716
   full:       -0.334      -0.251       0.825       2.350
molecular quadrupole (traceless):
                xx          xy          yy          xz          yz          zz
 q only:        4.429       0.060      -0.475      -0.954       1.543      -3.954
  q+dip:        4.418       0.025       0.590      -0.658       2.318      -5.009
   full:        4.562       0.098       0.879      -0.878       2.572      -5.441

           -------------------------------------------------
          |                Geometry Summary                 |
           -------------------------------------------------

      molecular mass/u    :       60.0520446
   center of mass at/Å    :       -0.0352698       0.1692967      -0.1224058
  moments of inertia/u·Å² :        0.2397063E+02   0.7537358E+02   0.9613707E+02
rotational constants/cm⁻¹ :        0.7032619E+00   0.2236544E+00   0.1753500E+00

 * 7 selected distances

     #   Z          #   Z                                           value/Å
     1   1 H        2   6 C                                       1.0897509
     2   6 C        3   8 O                                       1.4264710 (max)
     3   8 O        4   6 C                                       1.3205533
     2   6 C        5   1 H                                       1.0896785 (min)
     2   6 C        6   1 H                                       1.0912832
     4   6 C        7   8 O                                       1.1948581
     4   6 C        8   1 H                                       1.1029253

 * 2 distinct bonds (by element types)

   Z      Z             #   av. dist./Å        max./Å        min./Å
   1 H    6 C           4     1.0934095     1.1029253     1.0896785
   6 C    8 O           3     1.3139608     1.4264710     1.1948581


optimized geometry written to: xtbopt.xyz


           -------------------------------------------------
          | TOTAL ENERGY              -14.443378147334 Eh   |
          | GRADIENT NORM               0.000099403813 Eh/α |
          | HOMO-LUMO GAP               5.201566684853 eV   |
           -------------------------------------------------
########################################################################
[WARNING] Runtime exception occurred
-1- restart_readRestart: Number of electron missmatch in restart file.
########################################################################

------------------------------------------------------------------------
 * finished run on 2023/11/18 at 08:06:36.640     
------------------------------------------------------------------------
 total:
 * wall-time:     0 d,  0 h,  0 min,  8.802 sec
 *  cpu-time:     0 d,  0 h,  3 min, 48.179 sec
 * ratio c/w:    25.925 speedup
 SCF:
 * wall-time:     0 d,  0 h,  0 min,  1.146 sec
 *  cpu-time:     0 d,  0 h,  0 min, 27.807 sec
 * ratio c/w:    24.260 speedup
 ANC optimizer:
 * wall-time:     0 d,  0 h,  0 min,  7.377 sec
 *  cpu-time:     0 d,  0 h,  3 min, 14.930 sec
 * ratio c/w:    26.423 speedup

