8
 energy: -14.443367210132 gnorm: 0.000334040680 xtb: 6.5.0 (97a52f5)
H           -1.60766821149767       -1.03493557221384        0.56932394469233
C           -1.30898276204423        0.01256200326730        0.63752317959870
O            0.11064243170989        0.09947221812672        0.73889328756248
C            0.78923094267771        0.18923489211095       -0.39089512051856
H           -1.71805724749804        0.45974957455207        1.54047643146183
H           -1.65428417744427        0.54442325423608       -0.25071993494946
O            0.34054648662888        0.20590272732596       -1.49806409696383
H            1.86351253746772        0.25368388259475       -0.14927470088349
