8
 energy: -14.443367446037 gnorm: 0.000532673255 xtb: 6.5.0 (97a52f5)
H           -2.19626001087900        0.84069124818015        0.04172364593533
C           -1.42833568994567        0.10296563435784        0.26270812229160
O           -0.29927831740435        0.42444382041963       -0.54666717463728
C            0.89182660410266        0.11303245410711       -0.06799923642876
H           -1.78584547868334       -0.89697449143359        0.01090538375003
H           -1.15293269911410        0.13259439273844        1.31833026370014
O            1.13022144860369       -0.41297174392082        0.97790602227920
H            1.65554314332011        0.42631167555123       -0.79964501689026
