
    -----------------------------------------------------------------------
          Psi4: An Open-Source Ab Initio Electronic Structure Package
                               Psi4 1.3.2 release

                         Git: Rev {HEAD} ecbda83 


    R. M. Parrish, L. A. Burns, D. G. A. Smith, A. C. Simmonett,
    A. E. DePrince III, E. G. Hohenstein, U. Bozkaya, A. Yu. Sokolov,
    R. Di Remigio, R. M. Richard, J. F. Gonthier, A. M. James,
    H. R. McAlexander, A. Kumar, M. Saitow, X. Wang, B. P. Pritchard,
    P. Verma, H. F. Schaefer III, K. Patkowski, R. A. King, E. F. Valeev,
    F. A. Evangelista, J. M. Turney, T. D. Crawford, and C. D. Sherrill,
    J. Chem. Theory Comput. 13(7) pp 3185--3197 (2017).
    (doi: 10.1021/acs.jctc.7b00174)


                         Additional Contributions by
    P. Kraus, H. Kruse, M. H. Lechner, M. C. Schieber, R. A. Shaw,
    A. Alenaizan, R. Galvelis, Z. L. Glick, S. Lehtola, and J. P. Misiewicz

    -----------------------------------------------------------------------


    Psi4 started on: Friday, 05 November 2021 02:50PM

    Process ID: 42826
    Host:       node44.bme.utexas.edu
    PSIDATADIR: /home/bdw2292/miniconda3/envs/amoebamdpoltype/share/psi4
    Memory:     500.0 MiB
    Threads:    1
    
  ==> Input File <==

--------------------------------------------------------------------------
molecule { 
0 1
 C   -0.620477    1.221942   -0.580677
 C   -0.750342   -0.128251   -0.336995
 N    0.382044   -0.974670   -0.165581
 C    1.784813   -0.831331    0.136077
 H    0.052746   -1.789472    0.353997
 C   -0.508247    2.279481    0.408834
 N   -0.506156    3.238790   -1.635425
 C   -0.639384    1.888767   -1.930016
 C   -0.434423    3.457190   -0.267083
 C   -2.074924   -0.785211   -0.148379
 C   -3.014835   -0.273722    0.781536
 C   -2.393584   -1.967482   -0.862879
 C   -4.242021   -0.919077    0.978812
 C   -3.620273   -2.611974   -0.660262
 C   -4.553078   -2.091126    0.259672
 C    2.576606   -2.010991    0.165308
 C    2.434092    0.396671    0.422238
 C    3.942104   -1.963066    0.476128
 C    3.802140    0.438746    0.728037
 C    4.585347   -0.738823    0.772679
 H   -0.471935    3.935749   -2.365507
 O   -0.759711    1.451768   -3.074242
 H   -2.779669    0.627299    1.349729
 H   -1.675224   -2.373713   -1.577263
 H   -4.954586   -0.509193    1.696109
 H   -3.848158   -3.520752   -1.219229
 H   -5.509989   -2.592391    0.414898
 H    2.126753   -2.981051   -0.060904
 H    1.893181    1.339826    0.415304
 H    4.509322   -2.896601    0.484513
 H    4.260582    1.408221    0.936446
 N    5.976761   -0.690891    1.084498
 H   -0.476448    2.147353    1.481058
 H   -0.332807    4.466154    0.108973
 H    6.328051   -1.545975    1.516615
 H    6.237493    0.106458    1.665613
}
set optking { 
  frozen_dihedral = ("
    1 2 3 4
    10 2 3 4
    1 2 10 11
    1 2 10 12
    3 2 10 11
    16 4 3 2
    18 20 32 35
  ")
}
set {
  geom_maxiter 400
  g_convergence GAU_LOOSE
  dynamic_level 1
}
memory 8.333333333333334GB
set_num_threads(1)
psi4_io.set_default_path("/scratch/bdw2292/Psi4-7_1_Index_0_GrowFragment_0-farH_in17")
for _ in range(1):
  try:
    set opt_coordinates both
    optimize('wb97x-d/6-311G')
    break
  except OptimizationConvergenceError:
    break
  else:
    try:
      set opt_coordinates cartesian
      optimize('wb97x-d/6-311G')
      break
    except OptimizationConvergenceError:
      pass
clean()
--------------------------------------------------------------------------

  Memory set to   7.761 GiB by Python driver.
  Threads set to 1 by Python driver.
gradient() will perform analytic gradient computation.

*** tstart() called on node44.bme.utexas.edu
*** at Fri Nov  5 14:50:00 2021

   => Loading Basis Set <=

    Name: 6-311G
    Role: ORBITAL
    Keyword: BASIS
    atoms 1-2, 4, 6, 8-20     entry C          line    92 file /home/bdw2292/miniconda3/envs/amoebamdpoltype/share/psi4/basis/6-311g.gbs 
    atoms 3, 7, 32            entry N          line   109 file /home/bdw2292/miniconda3/envs/amoebamdpoltype/share/psi4/basis/6-311g.gbs 
    atoms 5, 21, 23-31, 33-36 entry H          line    21 file /home/bdw2292/miniconda3/envs/amoebamdpoltype/share/psi4/basis/6-311g.gbs 
    atoms 22                  entry O          line   126 file /home/bdw2292/miniconda3/envs/amoebamdpoltype/share/psi4/basis/6-311g.gbs 


         ---------------------------------------------------------
                                   SCF
               by Justin Turney, Rob Parrish, Andy Simmonett
                          and Daniel G. A. Smith
                              RKS Reference
                        1 Threads,   7947 MiB Core
         ---------------------------------------------------------

  ==> Geometry <==

    Molecular point group: c1
    Full point group: C1

    Geometry (in Angstrom), charge = 0, multiplicity = 1:

       Center              X                  Y                   Z               Mass       
    ------------   -----------------  -----------------  -----------------  -----------------
         C           -0.730490044620     1.274694737387    -0.400798694790    12.000000000000
         C           -0.860355044620    -0.075498262613    -0.157116694790    12.000000000000
         N            0.272030955380    -0.921917262613     0.014297305210    14.003074004430
         C            1.674799955380    -0.778578262613     0.315955305210    12.000000000000
         H           -0.057267044620    -1.736719262613     0.533875305210     1.007825032230
         C           -0.618260044620     2.332233737387     0.588712305210    12.000000000000
         N           -0.616169044620     3.291542737387    -1.455546694790    14.003074004430
         C           -0.749397044620     1.941519737387    -1.750137694790    12.000000000000
         C           -0.544436044620     3.509942737387    -0.087204694790    12.000000000000
         C           -2.184937044620    -0.732458262613     0.031499305210    12.000000000000
         C           -3.124848044620    -0.220969262613     0.961414305210    12.000000000000
         C           -2.503597044620    -1.914729262613    -0.683000694790    12.000000000000
         C           -4.352034044620    -0.866324262613     1.158690305210    12.000000000000
         C           -3.730286044620    -2.559221262613    -0.480383694790    12.000000000000
         C           -4.663091044620    -2.038373262613     0.439550305210    12.000000000000
         C            2.466592955380    -1.958238262613     0.345186305210    12.000000000000
         C            2.324078955380     0.449423737387     0.602116305210    12.000000000000
         C            3.832090955380    -1.910313262613     0.656006305210    12.000000000000
         C            3.692126955380     0.491498737387     0.907915305210    12.000000000000
         C            4.475333955380    -0.686070262613     0.952557305210    12.000000000000
         H           -0.581948044620     3.988501737387    -2.185628694790     1.007825032230
         O           -0.869724044620     1.504520737387    -2.894363694790    15.994914619570
         H           -2.889682044620     0.680051737387     1.529607305210     1.007825032230
         H           -1.785237044620    -2.320960262613    -1.397384694790     1.007825032230
         H           -5.064599044620    -0.456440262613     1.875987305210     1.007825032230
         H           -3.958171044620    -3.467999262613    -1.039350694790     1.007825032230
         H           -5.620002044620    -2.539638262613     0.594776305210     1.007825032230
         H            2.016739955380    -2.928298262613     0.118974305210     1.007825032230
         H            1.783167955380     1.392578737387     0.595182305210     1.007825032230
         H            4.399308955380    -2.843848262613     0.664391305210     1.007825032230
         H            4.150568955380     1.460973737387     1.116324305210     1.007825032230
         N            5.866747955380    -0.638138262613     1.264376305210    14.003074004430
         H           -0.586461044620     2.200105737387     1.660936305210     1.007825032230
         H           -0.442820044620     4.518906737387     0.288851305210     1.007825032230
         H            6.218037955380    -1.493222262613     1.696493305210     1.007825032230
         H            6.127479955380     0.159210737387     1.845491305210     1.007825032230

  Running in c1 symmetry.

  Rotational constants: A =      0.01449  B =      0.00635  C =      0.00501 [cm^-1]
  Rotational constants: A =    434.27620  B =    190.40872  C =    150.11646 [MHz]
  Nuclear repulsion = 1503.987266623916639

  Charge       = 0
  Multiplicity = 1
  Electrons    = 146
  Nalpha       = 73
  Nbeta        = 73

  ==> Algorithm <==

  SCF Algorithm Type is DF.
  DIIS enabled.
  MOM disabled.
  Fractional occupation disabled.
  Guess Type is SAD.
  Energy threshold   = 1.00e-08
  Density threshold  = 1.00e-08
  Integral threshold = 0.00e+00

  ==> Primary Basis <==

  Basis Set: 6-311G
    Blend: 6-311G
    Number of shells: 192
    Number of basis function: 318
    Number of Cartesian functions: 318
    Spherical Harmonics?: true
    Max angular momentum: 1

  ==> DFT Potential <==

   => Composite Functional: WB97X-D <= 

    wB97X-D Hyb-GGA Exchange-Correlation Functional

    J.-D. Chai and M. Head-Gordon, Phys. Chem. Chem. Phys. 10, 6615 (2008)

    Deriv               =              1
    GGA                 =           TRUE
    Meta                =          FALSE

    Exchange Hybrid     =           TRUE
    MP2 Hybrid          =          FALSE

   => Exchange-Correlation Functionals <=

    1.0000   wB97D range-separated functional

   => Exact (HF) Exchange <=

    0.7780            HF,LR [omega = 0.2000]
    0.2220               HF 

   => Molecular Quadrature <=

    Radial Scheme          =       TREUTLER
    Pruning Scheme         =           FLAT
    Nuclear Scheme         =       TREUTLER

    BS radius alpha        =              1
    Pruning alpha          =              1
    Radial Points          =             75
    Spherical Points       =            302
    Total Points           =         806524
    Total Blocks           =           5766
    Max Points             =            256
    Max Functions          =            217

   => WB97X-D: Empirical Dispersion <=

    Chai and Head-Gordon Dispersion Correction
    Chai, J.-D.; Head-Gordon, M. (2010), J. Chem. Phys., 132: 6615-6620

        s6 =       1.000000

   => Loading Basis Set <=

    Name: (6-311G AUX)
    Role: JKFIT
    Keyword: DF_BASIS_SCF
    atoms 1-2, 4, 6, 8-20     entry C          line   125 file /home/bdw2292/miniconda3/envs/amoebamdpoltype/share/psi4/basis/cc-pvtz-jkfit.gbs 
    atoms 3, 7, 32            entry N          line   177 file /home/bdw2292/miniconda3/envs/amoebamdpoltype/share/psi4/basis/cc-pvtz-jkfit.gbs 
    atoms 5, 21, 23-31, 33-36 entry H          line    51 file /home/bdw2292/miniconda3/envs/amoebamdpoltype/share/psi4/basis/cc-pvtz-jkfit.gbs 
    atoms 22                  entry O          line   229 file /home/bdw2292/miniconda3/envs/amoebamdpoltype/share/psi4/basis/cc-pvtz-jkfit.gbs 

  ==> Pre-Iterations <==

   -------------------------------------------------------
    Irrep   Nso     Nmo     Nalpha   Nbeta   Ndocc  Nsocc
   -------------------------------------------------------
     A        318     318       0       0       0       0
   -------------------------------------------------------
    Total     318     318      73      73      73       0
   -------------------------------------------------------

  ==> Integral Setup <==

  ==> DiskDFJK: Density-Fitted J/K Matrices <==

    J tasked:                  Yes
    K tasked:                  Yes
    wK tasked:                 Yes
    Omega:               2.000E-01
    OpenMP threads:              1
    Integrals threads:           1
    Memory [MiB]:             2668
    Algorithm:                Core
    Integral Cache:           NONE
    Schwarz Cutoff:          1E-12
    Fitting Condition:       1E-10

   => Auxiliary Basis Set <=

  Basis Set: (6-311G AUX)
    Blend: CC-PVTZ-JKFIT
    Number of shells: 675
    Number of basis function: 2109
    Number of Cartesian functions: 2541
    Spherical Harmonics?: true
    Max angular momentum: 4

  Cached 100.0% of DFT collocation blocks in 3.215 [GiB].

  Minimum eigenvalue in the overlap matrix is 2.6304571187E-04.
  Using Symmetric Orthogonalization.

  SCF Guess: Superposition of Atomic Densities via on-the-fly atomic UHF.

  ==> Iterations <==

                           Total Energy        Delta E     RMS |[F,P]|

   @DF-RKS iter SAD:  -895.04247493091736   -8.95042e+02   0.00000e+00 
   @DF-RKS iter   1:  -895.21166284512606   -1.69188e-01   3.70055e-03 DIIS
   @DF-RKS iter   2:  -895.34488508082040   -1.33222e-01   3.56984e-03 DIIS
   @DF-RKS iter   3:  -895.82798325873887   -4.83098e-01   1.07755e-03 DIIS
   @DF-RKS iter   4:  -895.87676618869659   -4.87829e-02   1.96932e-04 DIIS
   @DF-RKS iter   5:  -895.87862133486465   -1.85515e-03   9.01794e-05 DIIS
   @DF-RKS iter   6:  -895.87922832412744   -6.06989e-04   2.81452e-05 DIIS
   @DF-RKS iter   7:  -895.87943528117648   -2.06957e-04   1.82611e-05 DIIS
   @DF-RKS iter   8:  -895.87961258972291   -1.77309e-04   1.35271e-05 DIIS
   @DF-RKS iter   9:  -895.87988626322874   -2.73674e-04   1.27411e-05 DIIS
   @DF-RKS iter  10:  -895.88007642996388   -1.90167e-04   1.11202e-05 DIIS
   @DF-RKS iter  11:  -895.88019534631599   -1.18916e-04   5.11894e-06 DIIS
   @DF-RKS iter  12:  -895.88022529573743   -2.99494e-05   4.00946e-06 DIIS
   @DF-RKS iter  13:  -895.88022905478692   -3.75905e-06   6.54845e-07 DIIS
   @DF-RKS iter  14:  -895.88022912766530   -7.28784e-08   4.91262e-07 DIIS
   @DF-RKS iter  15:  -895.88022916877969   -4.11144e-08   1.62254e-07 DIIS
   @DF-RKS iter  16:  -895.88022917638818   -7.60849e-09   9.35032e-08 DIIS
   @DF-RKS iter  17:  -895.88022917815181   -1.76362e-09   2.63817e-08 DIIS
   @DF-RKS iter  18:  -895.88022917825640   -1.04592e-10   1.32201e-08 DIIS
   @DF-RKS iter  19:  -895.88022917827107   -1.46656e-11   7.47747e-09 DIIS
  Energy and wave function converged.


  ==> Post-Iterations <==

    Orbital Energies [Eh]
    ---------------------

    Doubly Occupied:                                                      

       1A    -19.152038     2A    -14.521304     3A    -14.455784  
       4A    -14.434207     5A    -10.400474     6A    -10.361061  
       7A    -10.358875     8A    -10.349501     9A    -10.333259  
      10A    -10.322054    11A    -10.319681    12A    -10.318663  
      13A    -10.318175    14A    -10.314623    15A    -10.314064  
      16A    -10.311420    17A    -10.311402    18A    -10.307020  
      19A    -10.284952    20A    -10.265583    21A    -10.249569  
      22A     -1.102397    23A     -1.086630    24A     -1.036732  
      25A     -1.021463    26A     -0.985021    27A     -0.959394  
      28A     -0.908386    29A     -0.870770    30A     -0.868595  
      31A     -0.861273    32A     -0.846538    33A     -0.804386  
      34A     -0.756892    35A     -0.735568    36A     -0.725596  
      37A     -0.715835    38A     -0.706788    39A     -0.664111  
      40A     -0.658806    41A     -0.644334    42A     -0.627794  
      43A     -0.615584    44A     -0.601304    45A     -0.584403  
      46A     -0.569452    47A     -0.562105    48A     -0.548894  
      49A     -0.542201    50A     -0.539038    51A     -0.530741  
      52A     -0.525622    53A     -0.520074    54A     -0.505414  
      55A     -0.495771    56A     -0.487769    57A     -0.484180  
      58A     -0.481080    59A     -0.468202    60A     -0.460419  
      61A     -0.452476    62A     -0.446555    63A     -0.443542  
      64A     -0.437390    65A     -0.394325    66A     -0.371259  
      67A     -0.351385    68A     -0.349946    69A     -0.347994  
      70A     -0.305256    71A     -0.295666    72A     -0.283564  
      73A     -0.206553  

    Virtual:                                                              

      74A     -0.034542    75A      0.042488    76A      0.045108  
      77A      0.048063    78A      0.071725    79A      0.106040  
      80A      0.107368    81A      0.120266    82A      0.136035  
      83A      0.138753    84A      0.143311    85A      0.153113  
      86A      0.156350    87A      0.166679    88A      0.172514  
      89A      0.181753    90A      0.185804    91A      0.193210  
      92A      0.195312    93A      0.204220    94A      0.210378  
      95A      0.222595    96A      0.226416    97A      0.229051  
      98A      0.241208    99A      0.278004   100A      0.302034  
     101A      0.311808   102A      0.318525   103A      0.328730  
     104A      0.330294   105A      0.337342   106A      0.345123  
     107A      0.350062   108A      0.355377   109A      0.358545  
     110A      0.368817   111A      0.377283   112A      0.382921  
     113A      0.403771   114A      0.415118   115A      0.427913  
     116A      0.434937   117A      0.437041   118A      0.442094  
     119A      0.447773   120A      0.457300   121A      0.457637  
     122A      0.465359   123A      0.467857   124A      0.470128  
     125A      0.478425   126A      0.484111   127A      0.487240  
     128A      0.489634   129A      0.495060   130A      0.502628  
     131A      0.510207   132A      0.512568   133A      0.518516  
     134A      0.523843   135A      0.527314   136A      0.532738  
     137A      0.535684   138A      0.548169   139A      0.554262  
     140A      0.558347   141A      0.563554   142A      0.573564  
     143A      0.579336   144A      0.585341   145A      0.593390  
     146A      0.595174   147A      0.603888   148A      0.614222  
     149A      0.623296   150A      0.627301   151A      0.635014  
     152A      0.648599   153A      0.655069   154A      0.667964  
     155A      0.672051   156A      0.675981   157A      0.681957  
     158A      0.687328   159A      0.690082   160A      0.695308  
     161A      0.702837   162A      0.715738   163A      0.718813  
     164A      0.728376   165A      0.730302   166A      0.731157  
     167A      0.737890   168A      0.749700   169A      0.756117  
     170A      0.765281   171A      0.769910   172A      0.773716  
     173A      0.787336   174A      0.800760   175A      0.804768  
     176A      0.810985   177A      0.818184   178A      0.821890  
     179A      0.838708   180A      0.842442   181A      0.849468  
     182A      0.856840   183A      0.864286   184A      0.873959  
     185A      0.880626   186A      0.889263   187A      0.899288  
     188A      0.909186   189A      0.924259   190A      0.937019  
     191A      0.940452   192A      0.944891   193A      0.958146  
     194A      0.973046   195A      0.977973   196A      0.991857  
     197A      0.999726   198A      1.019182   199A      1.041892  
     200A      1.054118   201A      1.073316   202A      1.081619  
     203A      1.089029   204A      1.102072   205A      1.112143  
     206A      1.124750   207A      1.129490   208A      1.164117  
     209A      1.171262   210A      1.187069   211A      1.244369  
     212A      1.301851   213A      1.319135   214A      1.357406  
     215A      1.375731   216A      1.468953   217A      1.498624  
     218A      1.548669   219A      1.856971   220A      2.254791  
     221A      2.283576   222A      2.319091   223A      2.333571  
     224A      2.343458   225A      2.356033   226A      2.359587  
     227A      2.378729   228A      2.398376   229A      2.413813  
     230A      2.433567   231A      2.456637   232A      2.506691  
     233A      2.554420   234A      2.602858   235A      2.605856  
     236A      2.616918   237A      2.646274   238A      2.650271  
     239A      2.653590   240A      2.670690   241A      2.706530  
     242A      2.727673   243A      2.758557   244A      2.772425  
     245A      2.779302   246A      2.794806   247A      2.811770  
     248A      2.821582   249A      2.824596   250A      2.828490  
     251A      2.838220   252A      2.852582   253A      2.877222  
     254A      2.887280   255A      2.927450   256A      2.935610  
     257A      2.953765   258A      2.966717   259A      2.978846  
     260A      2.998580   261A      3.010500   262A      3.025662  
     263A      3.073208   264A      3.109922   265A      3.131809  
     266A      3.139037   267A      3.157954   268A      3.171721  
     269A      3.184892   270A      3.210392   271A      3.227678  
     272A      3.238483   273A      3.240875   274A      3.274671  
     275A      3.285528   276A      3.300779   277A      3.310765  
     278A      3.321366   279A      3.332709   280A      3.343505  
     281A      3.348804   282A      3.354023   283A      3.465281  
     284A      3.497555   285A      3.524652   286A      3.815208  
     287A      3.851519   288A      3.879423   289A      4.059412  
     290A      4.077711   291A      4.137895   292A      4.147256  
     293A      4.265894   294A      4.276247   295A      5.052008  
     296A      5.125542   297A      5.166899   298A     23.212831  
     299A     23.236077   300A     23.386940   301A     23.456767  
     302A     23.462595   303A     23.470763   304A     23.495360  
     305A     23.551865   306A     23.621809   307A     23.693603  
     308A     23.716684   309A     23.734256   310A     23.765928  
     311A     23.772785   312A     23.900802   313A     23.964831  
     314A     23.970946   315A     35.506253   316A     35.532469  
     317A     35.552396   318A     50.126847  

    Final Occupation by Irrep:
              A 
    DOCC [    73 ]

  @DF-RKS Final Energy:  -895.88022917827107

   => Energetics <=

    Nuclear Repulsion Energy =           1503.9872666239166392
    One-Electron Energy =               -4200.6245204210326847
    Two-Electron Energy =                1888.3469043030738703
    DFT Exchange-Correlation Energy =     -87.5652673822902017
    Empirical Dispersion Energy =          -0.0246123019387011
    VV10 Nonlocal Energy =                  0.0000000000000000
    Total Energy =                       -895.8802291782710654

Computation Completed


Properties will be evaluated at   0.000000,   0.000000,   0.000000 [a0]

Properties computed using the SCF density matrix

  Nuclear Dipole Moment: [e a0]
     X:     3.4570      Y:    -3.1728      Z:     7.3912

  Electronic Dipole Moment: [e a0]
     X:    -2.6979      Y:     1.6520      Z:    -4.4476

  Dipole Moment: [e a0]
     X:     0.7591      Y:    -1.5209      Z:     2.9436     Total:     3.3992

  Dipole Moment: [D]
     X:     1.9294      Y:    -3.8656      Z:     7.4820     Total:     8.6398


*** tstop() called on node44.bme.utexas.edu at Fri Nov  5 15:00:32 2021
Module time:
	user time   =     602.98 seconds =      10.05 minutes
	system time =      27.90 seconds =       0.46 minutes
	total time  =        632 seconds =      10.53 minutes
Total time:
	user time   =     602.98 seconds =      10.05 minutes
	system time =      27.90 seconds =       0.46 minutes
	total time  =        632 seconds =      10.53 minutes

*** tstart() called on node44.bme.utexas.edu
*** at Fri Nov  5 15:00:32 2021


         ------------------------------------------------------------
                                   SCF GRAD                          
                          Rob Parrish, Justin Turney,                
                       Andy Simmonett, and Alex Sokolov              
         ------------------------------------------------------------

  ==> Geometry <==

    Molecular point group: c1
    Full point group: C1

    Geometry (in Angstrom), charge = 0, multiplicity = 1:

       Center              X                  Y                   Z               Mass       
    ------------   -----------------  -----------------  -----------------  -----------------
         C           -0.730490044620     1.274694737387    -0.400798694790    12.000000000000
         C           -0.860355044620    -0.075498262613    -0.157116694790    12.000000000000
         N            0.272030955380    -0.921917262613     0.014297305210    14.003074004430
         C            1.674799955380    -0.778578262613     0.315955305210    12.000000000000
         H           -0.057267044620    -1.736719262613     0.533875305210     1.007825032230
         C           -0.618260044620     2.332233737387     0.588712305210    12.000000000000
         N           -0.616169044620     3.291542737387    -1.455546694790    14.003074004430
         C           -0.749397044620     1.941519737387    -1.750137694790    12.000000000000
         C           -0.544436044620     3.509942737387    -0.087204694790    12.000000000000
         C           -2.184937044620    -0.732458262613     0.031499305210    12.000000000000
         C           -3.124848044620    -0.220969262613     0.961414305210    12.000000000000
         C           -2.503597044620    -1.914729262613    -0.683000694790    12.000000000000
         C           -4.352034044620    -0.866324262613     1.158690305210    12.000000000000
         C           -3.730286044620    -2.559221262613    -0.480383694790    12.000000000000
         C           -4.663091044620    -2.038373262613     0.439550305210    12.000000000000
         C            2.466592955380    -1.958238262613     0.345186305210    12.000000000000
         C            2.324078955380     0.449423737387     0.602116305210    12.000000000000
         C            3.832090955380    -1.910313262613     0.656006305210    12.000000000000
         C            3.692126955380     0.491498737387     0.907915305210    12.000000000000
         C            4.475333955380    -0.686070262613     0.952557305210    12.000000000000
         H           -0.581948044620     3.988501737387    -2.185628694790     1.007825032230
         O           -0.869724044620     1.504520737387    -2.894363694790    15.994914619570
         H           -2.889682044620     0.680051737387     1.529607305210     1.007825032230
         H           -1.785237044620    -2.320960262613    -1.397384694790     1.007825032230
         H           -5.064599044620    -0.456440262613     1.875987305210     1.007825032230
         H           -3.958171044620    -3.467999262613    -1.039350694790     1.007825032230
         H           -5.620002044620    -2.539638262613     0.594776305210     1.007825032230
         H            2.016739955380    -2.928298262613     0.118974305210     1.007825032230
         H            1.783167955380     1.392578737387     0.595182305210     1.007825032230
         H            4.399308955380    -2.843848262613     0.664391305210     1.007825032230
         H            4.150568955380     1.460973737387     1.116324305210     1.007825032230
         N            5.866747955380    -0.638138262613     1.264376305210    14.003074004430
         H           -0.586461044620     2.200105737387     1.660936305210     1.007825032230
         H           -0.442820044620     4.518906737387     0.288851305210     1.007825032230
         H            6.218037955380    -1.493222262613     1.696493305210     1.007825032230
         H            6.127479955380     0.159210737387     1.845491305210     1.007825032230

  Nuclear repulsion = 1503.987266623916639

  ==> Basis Set <==

  Basis Set: 6-311G
    Blend: 6-311G
    Number of shells: 192
    Number of basis function: 318
    Number of Cartesian functions: 318
    Spherical Harmonics?: true
    Max angular momentum: 1

  ==> DFJKGrad: Density-Fitted SCF Gradients <==

    Gradient:                    1
    J tasked:                  Yes
    K tasked:                  Yes
    wK tasked:                 Yes
    Omega:               2.000E-01
    OpenMP threads:              1
    Integrals threads:           1
    Memory [MiB]:             5960
    Schwarz Cutoff:          0E+00
    Fitting Condition:       1E-10

   => Auxiliary Basis Set <=

  Basis Set: (6-311G AUX)
    Blend: CC-PVTZ-JKFIT
    Number of shells: 675
    Number of basis function: 2109
    Number of Cartesian functions: 2541
    Spherical Harmonics?: true
    Max angular momentum: 4

  ==> DFT Potential <==

   => Composite Functional: WB97X-D <= 

    wB97X-D Hyb-GGA Exchange-Correlation Functional

    J.-D. Chai and M. Head-Gordon, Phys. Chem. Chem. Phys. 10, 6615 (2008)

    Deriv               =              1
    GGA                 =           TRUE
    Meta                =          FALSE

    Exchange Hybrid     =           TRUE
    MP2 Hybrid          =          FALSE

   => Exchange-Correlation Functionals <=

    1.0000   wB97D range-separated functional

   => Exact (HF) Exchange <=

    0.7780            HF,LR [omega = 0.2000]
    0.2220               HF 

   => Molecular Quadrature <=

    Radial Scheme          =       TREUTLER
    Pruning Scheme         =           FLAT
    Nuclear Scheme         =       TREUTLER

    BS radius alpha        =              1
    Pruning alpha          =              1
    Radial Points          =             75
    Spherical Points       =            302
    Total Points           =         806524
    Total Blocks           =           5766
    Max Points             =            256
    Max Functions          =            217


  -Total Gradient:
     Atom            X                  Y                   Z
    ------   -----------------  -----------------  -----------------
       1        0.000108451516    -0.049106961230     0.025121904248
       2       -0.045661935492     0.038148471954    -0.005819641125
       3        0.053789075345    -0.006015025728    -0.044558050012
       4       -0.019422368653    -0.016126545993     0.007165999459
       5       -0.002563853760     0.008247230366     0.013466589683
       6       -0.020578808105     0.005688104874     0.007878802547
       7       -0.007368783308    -0.002756748481    -0.003479635169
       8        0.022888396021     0.003762492519    -0.047866327373
       9       -0.002431240607    -0.020784586826    -0.006800574995
      10        0.002014644525     0.020589826179     0.012844461359
      11       -0.004482445631    -0.002259558019     0.006469369346
      12        0.000771286126    -0.000887870629    -0.006625651316
      13       -0.002480984167     0.005959892829     0.004144834360
      14        0.003216065212    -0.003149685859    -0.004159867103
      15       -0.008035615979    -0.003740599520     0.001841094746
      16        0.002781234961    -0.007704093614    -0.000322472647
      17        0.001119739836     0.003765677176     0.003231197685
      18        0.004030406470    -0.001787517390     0.000255947381
      19        0.001046224411     0.006956904041     0.001461072101
      20       -0.000848266871    -0.002356219205     0.000573881204
      21        0.001138127365     0.005225734775    -0.006416623202
      22       -0.002445159794     0.019678098162     0.030909208515
      23        0.000586969619     0.004140476016     0.005616935202
      24        0.004608715694    -0.004012710984    -0.003218061359
      25       -0.004447920528     0.002767228791     0.004484927530
      26       -0.000404694050    -0.005891967132    -0.003125576401
      27       -0.006040656619    -0.003292252597     0.001192172184
      28       -0.001646952897    -0.006477635396    -0.000596075603
      29        0.001835681148     0.006421062581     0.001685361995
      30        0.002636211908    -0.006320369962    -0.000093607622
      31        0.002427787263     0.006475019011     0.001138457553
      32        0.018119814872     0.003165503555    -0.018675113469
      33        0.000119533290    -0.000683253969     0.002275105726
      34        0.003913701250     0.004096518750    -0.001011178839
      35        0.000877146801    -0.005079114534     0.010101096487
      36        0.000735452378     0.003266673295     0.010979247092


*** tstop() called on node44.bme.utexas.edu at Fri Nov  5 15:04:38 2021
Module time:
	user time   =     243.29 seconds =       4.05 minutes
	system time =       2.99 seconds =       0.05 minutes
	total time  =        246 seconds =       4.10 minutes
Total time:
	user time   =     846.27 seconds =      14.10 minutes
	system time =      30.89 seconds =       0.51 minutes
	total time  =        878 seconds =      14.63 minutes

			-----------------------------------------
			 OPTKING 2.0: for geometry optimizations 
			  - R.A. King,  Bethel University        
			-----------------------------------------
	At level 1: Red. Int., RFO, no backsteps, dynamic trust

	Internal coordinates to be generated automatically.
	Detected frag 1 with atoms:  1 2 3 4 5 6 7 8 9 10 11 12 13 14 15 16 17 18 19 20
	 21 22 23 24 25 26 27 28 29 30 31 32 33 34 35 36
	---Fragment 1 Bond Connectivity---
	 1 : 2 6 8
	 2 : 1 3 10
	 3 : 2 4 5
	 4 : 3 16 17
	 5 : 3
	 6 : 1 9 33
	 7 : 8 9 21
	 8 : 1 7 22
	 9 : 6 7 34
	 10 : 2 11 12
	 11 : 10 13 23
	 12 : 10 14 24
	 13 : 11 15 25
	 14 : 12 15 26
	 15 : 13 14 27
	 16 : 4 18 28
	 17 : 4 19 29
	 18 : 16 20 30
	 19 : 17 20 31
	 20 : 18 19 32
	 21 : 7
	 22 : 8
	 23 : 11
	 24 : 12
	 25 : 13
	 26 : 14
	 27 : 15
	 28 : 16
	 29 : 17
	 30 : 18
	 31 : 19
	 32 : 20 35 36
	 33 : 6
	 34 : 9
	 35 : 32
	 36 : 32

	Assuming in current code that numbering for constraints corresponds to unified fragment.
	Frozen dihedral atom list: 
	     1     2     3     4
	    10     2     3     4
	     1     2    10    11
	     1     2    10    12
	     3     2    10    11
	    16     4     3     2
	    18    20    32    35
	---Fragment 1 Geometry and Gradient---
	 C          -1.3804261217        2.4088239472       -0.7573997646
	 C          -1.6258354050       -0.1426710393       -0.2969075229
	 N           0.5140640033       -1.7421711367        0.0270179912
	 C           3.1649132306       -1.4712996836        0.5970689947
	 H          -0.1082190303       -3.2819237631        1.0088781120
	 C          -1.1683421586        4.4072830242        1.1125050235
	 N          -1.1643907413        6.2201143039       -2.7505846160
	 C          -1.4161551736        3.6689405708       -3.3072809250
	 C          -1.0288350172        6.6328304897       -0.1647929900
	 C          -4.1289326157       -1.3841455147        0.0595250600
	 C          -5.9051069880       -0.4175713885        1.8168097299
	 C          -4.7311127428       -3.6183139107       -1.2906842567
	 C          -8.2241524330       -1.6371155922        2.1896073411
	 C          -7.0492189939       -4.8362272808       -0.9077936183
	 C          -8.8119649724       -3.8519672078        0.8306296952
	 C           4.6611851487       -3.7005340047        0.6523075791
	 C           4.3918727196        0.8492877779        1.1378349125
	 C           7.2416023935       -3.6099688802        1.2396722534
	 C           6.9771087661        0.9287980047        1.7157112720
	 C           8.4571554956       -1.2964848992        1.8000724257
	 H          -1.0997224236        7.5371759346       -4.1302396451
	 O          -1.6435402491        2.8431321437       -5.4695546906
	 H          -5.4607076540        1.2851115348        2.8905388863
	 H          -3.3736090834       -4.3859792444       -2.6406743651
	 H          -9.5707051296       -0.8625470890        3.5451022217
	 H          -7.4798592320       -6.5535688096       -1.9640881615
	 H         -10.6202646888       -4.7992207741        1.1239643228
	 H           3.8110861819       -5.5336817300        0.2248288528
	 H           3.3696990714        2.6315924218        1.1247315516
	 H           8.3134890669       -5.3740943587        1.2555176070
	 H           7.8434385905        2.7608402401        2.1095472040
	 N          11.0865468828       -1.2059065465        2.3893249364
	 H          -1.1082507576        4.1575972907        3.1387147287
	 H          -0.8368086072        8.5394961201        0.5458498578
	 H          11.7503887734       -2.8217811208        3.2059077205
	 H          11.5792589549        0.3008646899        3.4874731338
	             0.0001084515       -0.0491069612        0.0251219042
	            -0.0456619355        0.0381484720       -0.0058196411
	             0.0537890753       -0.0060150257       -0.0445580500
	            -0.0194223687       -0.0161265460        0.0071659995
	            -0.0025638538        0.0082472304        0.0134665897
	            -0.0205788081        0.0056881049        0.0078788025
	            -0.0073687833       -0.0027567485       -0.0034796352
	             0.0228883960        0.0037624925       -0.0478663274
	            -0.0024312406       -0.0207845868       -0.0068005750
	             0.0020146445        0.0205898262        0.0128444614
	            -0.0044824456       -0.0022595580        0.0064693693
	             0.0007712861       -0.0008878706       -0.0066256513
	            -0.0024809842        0.0059598928        0.0041448344
	             0.0032160652       -0.0031496859       -0.0041598671
	            -0.0080356160       -0.0037405995        0.0018410947
	             0.0027812350       -0.0077040936       -0.0003224726
	             0.0011197398        0.0037656772        0.0032311977
	             0.0040304065       -0.0017875174        0.0002559474
	             0.0010462244        0.0069569040        0.0014610721
	            -0.0008482669       -0.0023562192        0.0005738812
	             0.0011381274        0.0052257348       -0.0064166232
	            -0.0024451598        0.0196780982        0.0309092085
	             0.0005869696        0.0041404760        0.0056169352
	             0.0046087157       -0.0040127110       -0.0032180614
	            -0.0044479205        0.0027672288        0.0044849275
	            -0.0004046941       -0.0058919671       -0.0031255764
	            -0.0060406566       -0.0032922526        0.0011921722
	            -0.0016469529       -0.0064776354       -0.0005960756
	             0.0018356811        0.0064210626        0.0016853620
	             0.0026362119       -0.0063203700       -0.0000936076
	             0.0024277873        0.0064750190        0.0011384576
	             0.0181198149        0.0031655036       -0.0186751135
	             0.0001195333       -0.0006832540        0.0022751057
	             0.0039137013        0.0040965188       -0.0010111788
	             0.0008771468       -0.0050791145        0.0101010965
	             0.0007354524        0.0032666733        0.0109792471

	Previous optimization step data not found.  Starting new optimization.

	---Fragment 1 Intrafragment Coordinates---
	 - Coordinate -           - BOHR/RAD -       - ANG/DEG -
	 R(1,2)           =         2.604305	       1.378139
	 R(1,6)           =         2.745061	       1.452624
	 R(1,8)           =         2.844480	       1.505234
	 R(2,3)           =         2.691189	       1.424116
	 R(2,10)          =         2.816700	       1.490533
	 R(3,4)           =         2.724946	       1.441979
	 R(3,5)           =         1.929281	       1.020931
	 R(4,16)          =         2.685399	       1.421052
	 R(4,17)          =         2.680109	       1.418253
	 R(6,9)           =         2.569828	       1.359894
	 R(6,33)          =         2.042420	       1.080802
	 R(7,8)           =         2.623315	       1.388199
	 R(7,9)           =         2.622028	       1.387517
	 R(7,21)          =         1.908476	       1.009922
	 R(8,22)          =         2.325745	       1.230731
	 R(9,34)          =         2.043835	       1.081551
	 R(10,11)         =         2.679013	       1.417673
	 R(10,12)         =         2.679029	       1.417681
	 R(11,13)         =         2.646552	       1.400495
	 R(11,23)         =         2.061435	       1.090864
	 R(12,14)         =         2.646419	       1.400425
	 R(12,24)         =         2.062668	       1.091517
	 R(13,15)         =         2.664191	       1.409829
	 R(13,25)         =         2.061681	       1.090994
	 R(14,15)         =         2.664237	       1.409853
	 R(14,26)         =         2.061667	       1.090987
	 R(15,27)         =         2.062349	       1.091348
	 R(16,18)         =         2.647971	       1.401246
	 R(16,28)         =         2.065390	       1.092957
	 R(17,19)         =         2.650228	       1.402440
	 R(17,29)         =         2.054658	       1.087278
	 R(18,20)         =         2.672794	       1.414381
	 R(18,30)         =         2.064299	       1.092380
	 R(19,20)         =         2.673862	       1.414947
	 R(19,31)         =         2.064464	       1.092467
	 R(20,32)         =         2.696131	       1.426731
	 R(32,35)         =         1.928353	       1.020440
	 R(32,36)         =         1.928485	       1.020510
	 B(1,2,3)         =         2.127805	     121.914221
	 B(1,2,10)        =         2.138780	     122.543051
	 B(1,6,9)         =         1.871409	     107.223838
	 B(1,6,33)        =         2.200685	     126.089973
	 B(1,8,7)         =         1.812527	     103.850156
	 B(1,8,22)        =         2.314954	     132.637116
	 B(2,1,6)         =         2.214410	     126.876334
	 B(2,1,8)         =         2.203521	     126.252444
	 B(2,3,4)         =         2.403314	     137.699722
	 B(2,3,5)         =         1.853685	     106.208306
	 B(2,10,11)       =         2.109662	     120.874729
	 B(2,10,12)       =         2.098487	     120.234456
	 B(3,2,10)        =         2.014656	     115.431258
	 B(3,4,16)        =         2.053100	     117.633972
	 B(3,4,17)        =         2.181731	     125.003962
	 B(4,3,5)         =         1.861519	     106.657172
	 B(4,16,18)       =         2.116645	     121.274853
	 B(4,16,28)       =         2.098089	     120.211657
	 B(4,17,19)       =         2.113610	     121.100959
	 B(4,17,29)       =         2.120042	     121.469441
	 B(6,1,8)         =         1.864076	     106.803697
	 B(6,9,7)         =         1.929483	     110.551237
	 B(6,9,34)        =         2.265539	     129.805834
	 B(7,8,22)        =         2.155541	     123.503382
	 B(7,9,34)        =         2.088162	     119.642875
	 B(8,7,9)         =         1.946917	     111.550104
	 B(8,7,21)        =         2.118791	     121.397754
	 B(9,6,33)        =         2.211010	     126.681516
	 B(9,7,21)        =         2.217477	     127.052101
	 B(10,11,13)      =         2.102604	     120.470358
	 B(10,11,23)      =         2.090632	     119.784369
	 B(10,12,14)      =         2.103383	     120.514974
	 B(10,12,24)      =         2.085522	     119.491598
	 B(11,10,12)      =         2.074246	     118.845514
	 B(11,13,15)      =         2.099675	     120.302507
	 B(11,13,25)      =         2.084950	     119.458852
	 B(12,14,15)      =         2.098949	     120.260934
	 B(12,14,26)      =         2.085398	     119.484525
	 B(13,11,23)      =         2.089945	     119.745038
	 B(13,15,14)      =         2.087460	     119.602674
	 B(13,15,27)      =         2.097569	     120.181831
	 B(14,12,24)      =         2.094278	     119.993264
	 B(14,15,27)      =         2.098156	     120.215481
	 B(15,13,25)      =         2.098555	     120.238367
	 B(15,14,26)      =         2.098837	     120.254521
	 B(16,4,17)       =         2.048276	     117.357551
	 B(16,18,20)      =         2.116824	     121.285105
	 B(16,18,30)      =         2.069716	     118.585983
	 B(17,19,20)      =         2.119828	     121.457175
	 B(17,19,31)      =         2.068682	     118.526724
	 B(18,16,28)      =         2.068442	     118.512982
	 B(18,20,19)      =         2.051051	     117.516582
	 B(18,20,32)      =         2.115814	     121.227207
	 B(19,17,29)      =         2.049531	     117.429503
	 B(19,20,32)      =         2.116194	     121.248981
	 B(20,18,30)      =         2.096644	     120.128847
	 B(20,19,31)      =         2.094674	     120.015973
	 B(20,32,35)      =         1.982455	     113.586281
	 B(20,32,36)      =         1.982171	     113.570017
	 B(35,32,36)      =         1.902471	     109.003567
	*D(1,2,3,4)       =         0.315578	      18.081268
	 D(1,2,3,5)       =         2.754306	     157.810130
	*D(1,2,10,11)     =        -0.897680	     -51.433270
	*D(1,2,10,12)     =         2.287131	     131.042928
	 D(1,6,9,7)       =         0.011552	       0.661875
	 D(1,6,9,34)      =        -3.128537	    -179.251974
	 D(1,8,7,9)       =        -0.019011	      -1.089253
	 D(1,8,7,21)      =         3.123783	     178.979578
	 D(2,1,6,9)       =        -3.114524	    -178.449103
	 D(2,1,6,33)      =         0.040086	       2.296774
	 D(2,1,8,7)       =         3.117311	     178.608771
	 D(2,1,8,22)      =        -0.004766	      -0.273076
	*D(2,3,4,16)      =        -3.105457	    -177.929567
	 D(2,3,4,17)      =         0.050025	       2.866201
	 D(2,10,11,13)    =        -3.110583	    -178.223302
	 D(2,10,11,23)    =         0.027921	       1.599728
	 D(2,10,12,14)    =         3.107887	     178.068801
	 D(2,10,12,24)    =        -0.036280	      -2.078702
	 D(3,2,1,6)       =        -1.529599	     -87.639592
	 D(3,2,1,8)       =         1.671139	      95.749230
	*D(3,2,10,11)     =         2.178054	     124.793300
	 D(3,2,10,12)     =        -0.920321	     -52.730502
	 D(3,4,16,18)     =        -3.119284	    -178.721828
	 D(3,4,16,28)     =         0.026900	       1.541244
	 D(3,4,17,19)     =         3.122203	     178.889080
	 D(3,4,17,29)     =        -0.017372	      -0.995346
	*D(4,3,2,10)      =        -2.760611	    -158.171357
	 D(4,16,18,20)    =        -0.000115	      -0.006583
	 D(4,16,18,30)    =        -3.140085	    -179.913621
	 D(4,17,19,20)    =        -0.007924	      -0.453998
	 D(4,17,19,31)    =         3.135933	     179.675703
	 D(5,3,2,10)      =        -0.321882	     -18.442495
	 D(5,3,4,16)      =         0.740961	      42.453953
	 D(5,3,4,17)      =        -2.386743	    -136.750279
	 D(6,1,2,10)      =         1.541918	      88.345384
	 D(6,1,8,7)       =         0.025133	       1.440015
	 D(6,1,8,22)      =        -3.096944	    -177.441833
	 D(6,9,7,8)       =         0.005434	       0.311358
	 D(6,9,7,21)      =        -3.137443	    -179.762258
	 D(7,9,6,33)      =         3.140027	     179.910302
	 D(8,1,2,10)      =        -1.540529	     -88.265795
	 D(8,1,6,9)       =        -0.022747	      -1.303324
	 D(8,1,6,33)      =         3.131863	     179.442553
	 D(8,7,9,34)      =        -3.137487	    -179.764790
	 D(9,7,8,22)      =         3.105365	     177.924282
	 D(10,11,13,15)   =         0.006972	       0.399458
	 D(10,11,13,25)   =        -3.137938	    -179.790575
	 D(10,12,14,15)   =        -0.001006	      -0.057643
	 D(10,12,14,26)   =         3.141471	     179.993058
	 D(11,10,12,14)   =         0.008642	       0.495123
	 D(11,10,12,24)   =        -3.135526	    -179.652380
	 D(11,13,15,14)   =         0.000825	       0.047253
	 D(11,13,15,27)   =        -3.141520	    -179.995822
	 D(12,10,11,13)   =        -0.011619	      -0.665693
	 D(12,10,11,23)   =         3.126885	     179.157337
	 D(12,14,15,13)   =        -0.003804	      -0.217947
	 D(12,14,15,27)   =         3.138541	     179.825142
	 D(13,15,14,26)   =         3.136897	     179.730959
	 D(14,15,13,25)   =        -3.137425	    -179.761225
	 D(15,13,11,23)   =        -3.131533	    -179.423642
	 D(15,14,12,24)   =        -3.140011	    -179.909400
	 D(16,4,17,19)    =        -0.005535	      -0.317148
	 D(16,4,17,29)    =         3.138075	     179.798426
	 D(16,18,20,19)   =        -0.013065	      -0.748564
	 D(16,18,20,32)   =        -3.137791	    -179.782187
	 D(17,4,16,18)    =         0.009499	       0.544269
	 D(17,4,16,28)    =        -3.127502	    -179.192658
	 D(17,19,20,18)   =         0.017061	       0.977516
	 D(17,19,20,32)   =        -3.141402	    -179.989084
	 D(18,20,19,31)   =        -3.126829	    -179.154088
	*D(18,20,32,35)   =        -0.500917	     -28.700413
	 D(18,20,32,36)   =        -2.688144	    -154.019304
	 D(19,20,18,30)   =         3.126880	     179.157055
	 D(19,20,32,35)   =         2.658173	     152.302089
	 D(19,20,32,36)   =         0.470946	      26.983198
	 D(20,18,16,28)   =         3.136962	     179.734696
	 D(20,19,17,29)   =         3.131731	     179.434941
	 D(21,7,8,22)     =        -0.035027	      -2.006887
	 D(21,7,9,34)     =         0.002820	       0.161594
	 D(23,11,13,25)   =         0.006743	       0.386325
	 D(24,12,14,26)   =         0.002466	       0.141301
	 D(25,13,15,27)   =         0.003416	       0.195701
	 D(26,14,15,27)   =        -0.003944	      -0.225952
	 D(28,16,18,30)   =        -0.003008	      -0.172342
	 D(29,17,19,31)   =        -0.007598	      -0.435359
	 D(30,18,20,32)   =         0.002154	       0.123432
	 D(31,19,20,32)   =        -0.002106	      -0.120688
	 D(33,6,9,34)     =        -0.000062	      -0.003548
	 R(1,17)          =         6.272440	       3.319232
	 R(6,11)          =         6.797956	       3.597323
	 R(6,17)          =         6.601209	       3.493209

	Current energy   :      -895.8802291783

	Generating empirical Hessian (Schlegel '84) for each fragment.
	Taking RFO optimization step.
	Going to follow RFO solution 1.
	Using RFO vector 1.

	Determining step-restricting scale parameter for RS-RFO.
	Maximum step size allowed    0.50000

	 Iter      |step|        alpha        rfo_root  
	------------------------------------------------
	    0     0.56471       1.00000           1
	    1     0.50991       1.25202           1
	    2     0.50031       1.30577           1
	    3     0.50000       1.30754           1
	------------------------------------------------
	Norm of target step-size    0.50000
	Projected energy change by RFO approximation:        -0.0359523524

	Back-transformation to cartesian coordinates...
	Could not converge backtransformation.
	Using first guess instead.

	Back-transformation to cartesian coordinates to adjust frozen coordinates...

	--- Internal Coordinate Step in ANG or DEG, aJ/ANG or AJ/DEG ---
	 ---------------------------------------------------------------------------
	   Coordinate                Previous        Force       Change         New 
	   ----------                --------       ------       ------       ------
	    1 R(1,2)          =      1.378139     0.285545     0.047013     1.425152
	    2 R(1,6)          =      1.452624    -0.002964     0.013646     1.466270
	    3 R(1,8)          =      1.505234    -0.243916    -0.018154     1.487080
	    4 R(2,3)          =      1.424116    -0.380307    -0.043717     1.380399
	    5 R(2,10)         =      1.490533    -0.129223    -0.016982     1.473551
	    6 R(3,4)          =      1.441979    -0.037094    -0.006941     1.435038
	    7 R(3,5)          =      1.020931    -0.009033     0.014405     1.035336
	    8 R(4,16)         =      1.421052    -0.159752    -0.007257     1.413795
	    9 R(4,17)         =      1.418253    -0.152077    -0.015722     1.402530
	   10 R(6,9)          =      1.359894     0.000782     0.018392     1.378286
	   11 R(6,33)         =      1.080802    -0.019244     0.011977     1.092779
	   12 R(7,8)          =      1.388199     0.093796     0.023572     1.411771
	   13 R(7,9)          =      1.387517     0.008950     0.019243     1.406760
	   14 R(7,21)         =      1.009922    -0.068300     0.005936     1.015858
	   15 R(8,22)         =      1.230731     0.292291     0.032911     1.263642
	   16 R(9,34)         =      1.081551    -0.031603     0.003843     1.085394
	   17 R(10,11)        =      1.417673    -0.167237    -0.009867     1.407805
	   18 R(10,12)        =      1.417681    -0.107463    -0.004465     1.413216
	   19 R(11,13)        =      1.400495    -0.085319    -0.006569     1.393926
	   20 R(11,23)        =      1.090864    -0.053343    -0.000413     1.090452
	   21 R(12,14)        =      1.400425    -0.078818    -0.005926     1.394499
	   22 R(12,24)        =      1.091517    -0.054655     0.001080     1.092597
	   23 R(13,15)        =      1.409829    -0.105894    -0.004012     1.405817
	   24 R(13,25)        =      1.090994    -0.056784     0.000550     1.091545
	   25 R(14,15)        =      1.409853    -0.118842    -0.002646     1.407207
	   26 R(14,26)        =      1.090987    -0.054304    -0.001148     1.089839
	   27 R(15,27)        =      1.091348    -0.057461    -0.006166     1.085182
	   28 R(16,18)        =      1.401246    -0.129616    -0.013396     1.387850
	   29 R(16,28)        =      1.092957    -0.053944    -0.001944     1.091014
	   30 R(17,19)        =      1.402440    -0.115221    -0.011768     1.390673
	   31 R(17,29)        =      1.087278    -0.038281     0.004653     1.091932
	   32 R(18,20)        =      1.414381    -0.109394    -0.006791     1.407591
	   33 R(18,30)        =      1.092380    -0.055767     0.001947     1.094327
	   34 R(19,20)        =      1.414947    -0.122285    -0.001117     1.413830
	   35 R(19,31)        =      1.092467    -0.057547    -0.002903     1.089564
	   36 R(20,32)        =      1.426731    -0.163308    -0.019877     1.406854
	   37 R(32,35)        =      1.020440    -0.072796     0.000777     1.021218
	   38 R(32,36)        =      1.020510    -0.074120    -0.000450     1.020060
	   39 B(1,2,3)        =    121.914221     0.000829     2.305442   124.219663
	   40 B(1,2,10)       =    122.543051     0.000809     2.162796   124.705847
	   41 B(1,6,9)        =    107.223838     0.000384     0.686939   107.910777
	   42 B(1,6,33)       =    126.089973    -0.000160    -0.273775   125.816199
	   43 B(1,8,7)        =    103.850156    -0.000198    -0.748680   103.101476
	   44 B(1,8,22)       =    132.637116    -0.000513    -1.059299   131.577818
	   45 B(2,1,6)        =    126.876334     0.000089     0.499427   127.375761
	   46 B(2,1,8)        =    126.252444    -0.000538    -1.671859   124.580585
	   47 B(2,3,4)        =    137.699722    -0.000380    -1.334661   136.365061
	   48 B(2,3,5)        =    106.208306     0.000434     2.714130   108.922436
	   49 B(2,10,11)      =    120.874729    -0.001382    -3.909209   116.965519
	   50 B(2,10,12)      =    120.234456     0.000923     2.476336   122.710792
	   51 B(3,2,10)       =    115.431258    -0.001639    -4.472038   110.959220
	   52 B(3,4,16)       =    117.633972    -0.001160    -2.733341   114.900631
	   53 B(3,4,17)       =    125.003962     0.000805     1.381532   126.385494
	   54 B(4,3,5)        =    106.657172     0.000126     1.165009   107.822181
	   55 B(4,16,18)      =    121.274853    -0.000030    -0.375250   120.899603
	   56 B(4,16,28)      =    120.211657    -0.000090     0.035037   120.246695
	   57 B(4,17,19)      =    121.100959    -0.000165    -0.675834   120.425126
	   58 B(4,17,29)      =    121.469441    -0.000313    -0.864055   120.605386
	   59 B(6,1,8)        =    106.803697     0.000444     1.011969   107.815666
	   60 B(6,9,7)        =    110.551237    -0.001005    -2.293723   108.257514
	   61 B(6,9,34)       =    129.805834     0.000318     0.519640   130.325473
	   62 B(7,8,22)       =    123.503382     0.000716     1.763737   125.267119
	   63 B(7,9,34)       =    119.642875     0.000686     1.773498   121.416373
	   64 B(8,7,9)        =    111.550104     0.000372     1.257709   112.807814
	   65 B(8,7,21)       =    121.397754    -0.000144    -0.748239   120.649515
	   66 B(9,6,33)       =    126.681516    -0.000222    -0.411157   126.270359
	   67 B(9,7,21)       =    127.052101    -0.000228    -0.536192   126.515909
	   68 B(10,11,13)     =    120.470358    -0.000271    -1.078692   119.391667
	   69 B(10,11,23)     =    119.784369    -0.000006     0.097684   119.882053
	   70 B(10,12,14)     =    120.514974    -0.000207    -0.487649   120.027324
	   71 B(10,12,24)     =    119.491598     0.000043     0.250134   119.741732
	   72 B(11,10,12)     =    118.845514     0.000459     1.431664   120.277178
	   73 B(11,13,15)     =    120.302507     0.000033     0.137623   120.440129
	   74 B(11,13,25)     =    119.458852    -0.000004    -0.272927   119.185925
	   75 B(12,14,15)     =    120.260934    -0.000154    -0.645614   119.615321
	   76 B(12,14,26)     =    119.484525     0.000134     0.433083   119.917609
	   77 B(13,11,23)     =    119.745038     0.000278     0.980974   120.726012
	   78 B(13,15,14)     =    119.602674     0.000140     0.642367   120.245041
	   79 B(13,15,27)     =    120.181831    -0.000066    -0.142991   120.038840
	   80 B(14,12,24)     =    119.993264     0.000163     0.227386   120.220650
	   81 B(14,15,27)     =    120.215481    -0.000075    -0.500137   119.715345
	   82 B(15,13,25)     =    120.238367    -0.000029     0.134658   120.373025
	   83 B(15,14,26)     =    120.254521     0.000020     0.212383   120.466903
	   84 B(16,4,17)      =    117.357551     0.000354     1.354607   118.712157
	   85 B(16,18,20)     =    121.285105    -0.000228    -0.761756   120.523349
	   86 B(16,18,30)     =    118.585983     0.000195     0.441933   119.027916
	   87 B(17,19,20)     =    121.457175    -0.000141    -0.474032   120.983143
	   88 B(17,19,31)     =    118.526724     0.000117     0.171783   118.698507
	   89 B(18,16,28)     =    118.512982     0.000120     0.338814   118.851796
	   90 B(18,20,19)     =    117.516582     0.000209     0.924106   118.440688
	   91 B(18,20,32)     =    121.227207    -0.000140    -0.569826   120.657381
	   92 B(19,17,29)     =    117.429503     0.000478     1.539785   118.969288
	   93 B(19,20,32)     =    121.248981    -0.000072    -0.402373   120.846608
	   94 B(20,18,30)     =    120.128847     0.000033     0.318035   120.446882
	   95 B(20,19,31)     =    120.015973     0.000023     0.302360   120.318333
	   96 B(20,32,35)     =    113.586281     0.000198     1.379832   114.966113
	   97 B(20,32,36)     =    113.570017     0.000154     1.089003   114.659020
	   98 B(35,32,36)     =    109.003567     0.000155     1.730271   110.733839
	   99 *D(1,2,3,4)     =     18.081268     0.000000    -0.001037    18.080231
	  100 D(1,2,3,5)      =    157.810130     0.000117     6.206981   164.017112
	  101 *D(1,2,10,11)   =    -51.433270    -0.000000    -0.001074   -51.434343
	  102 *D(1,2,10,12)   =    131.042928    -0.000000     0.000039   131.042967
	  103 D(1,6,9,7)      =      0.661875    -0.000032    -1.175336    -0.513461
	  104 D(1,6,9,34)     =   -179.251974    -0.000036    -1.555279  -180.807253
	  105 D(1,8,7,9)      =     -1.089253    -0.000037    -2.260375    -3.349629
	  106 D(1,8,7,21)     =    178.979578    -0.000004    -0.566348   178.413229
	  107 D(2,1,6,9)      =   -178.449103     0.000032     2.247548  -176.201555
	  108 D(2,1,6,33)     =      2.296774     0.000005     0.936712     3.233487
	  109 D(2,1,8,7)      =    178.608771    -0.000005    -0.867434   177.741338
	  110 D(2,1,8,22)     =     -0.273076    -0.000074    -4.608626    -4.881702
	  111 *D(2,3,4,16)    =   -177.929567    -0.000000    -0.000013  -177.929579
	  112 D(2,3,4,17)     =      2.866201     0.000009    -0.309524     2.556677
	  113 D(2,10,11,13)   =   -178.223302     0.000005     0.369946  -177.853356
	  114 D(2,10,11,23)   =      1.599728     0.000014     0.734031     2.333759
	  115 D(2,10,12,14)   =    178.068801    -0.000006     0.033259   178.102060
	  116 D(2,10,12,24)   =     -2.078702    -0.000026    -0.983635    -3.062336
	  117 D(3,2,1,6)      =    -87.639592     0.000193     5.511525   -82.128067
	  118 D(3,2,1,8)      =     95.749230     0.000217     8.289377   104.038607
	  119 *D(3,2,10,11)   =    124.793300     0.000000     0.001046   124.794346
	  120 D(3,2,10,12)    =    -52.730502     0.000000     0.002159   -52.728344
	  121 D(3,4,16,18)    =   -178.721828     0.000006    -0.035519  -178.757347
	  122 D(3,4,16,28)    =      1.541244     0.000013     0.209392     1.750637
	  123 D(3,4,17,19)    =    178.889080    -0.000008     0.140983   179.030062
	  124 D(3,4,17,29)    =     -0.995346    -0.000015    -0.138947    -1.134293
	  125 *D(4,3,2,10)    =   -158.171357     0.000000     0.000968  -158.170389
	  126 D(4,16,18,20)   =     -0.006583     0.000003    -0.010680    -0.017264
	  127 D(4,16,18,30)   =   -179.913621     0.000011     0.389333  -179.524288
	  128 D(4,17,19,20)   =     -0.453998    -0.000008    -0.182786    -0.636784
	  129 D(4,17,19,31)   =    179.675703    -0.000010    -0.359462   179.316241
	  130 D(5,3,2,10)     =    -18.442495     0.000117     6.208987   -12.233509
	  131 D(5,3,4,16)     =     42.453953    -0.000135    -6.566341    35.887612
	  132 D(5,3,4,17)     =   -136.750279    -0.000126    -6.875852  -143.626132
	  133 D(6,1,2,10)     =     88.345384     0.000172     5.266618    93.612001
	  134 D(6,1,8,7)      =      1.440015     0.000016     1.445615     2.885630
	  135 D(6,1,8,22)     =   -177.441833    -0.000052    -2.295577  -179.737410
	  136 D(6,9,7,8)      =      0.311358     0.000044     2.248764     2.560122
	  137 D(6,9,7,21)     =   -179.762258     0.000009     0.435307  -179.326951
	  138 D(7,9,6,33)     =    179.910302    -0.000005     0.144464   180.054765
	  139 D(8,1,2,10)     =    -88.265795     0.000196     8.044470   -80.221325
	  140 D(8,1,6,9)      =     -1.303324     0.000005    -0.228563    -1.531887
	  141 D(8,1,6,33)     =    179.442553    -0.000022    -1.539399   177.903154
	  142 D(8,7,9,34)     =   -179.764790     0.000047     2.587369  -177.177421
	  143 D(9,7,8,22)     =    177.924282     0.000020     1.129203   179.053485
	  144 D(10,11,13,15)  =      0.399458    -0.000013    -0.576872    -0.177414
	  145 D(10,11,13,25)  =   -179.790575    -0.000001    -0.039015  -179.829590
	  146 D(10,12,14,15)  =     -0.057643    -0.000012    -0.540434    -0.598077
	  147 D(10,12,14,26)  =    179.993058    -0.000015    -0.739220   179.253838
	  148 D(11,10,12,14)  =      0.495123     0.000005     0.163711     0.658834
	  149 D(11,10,12,24)  =   -179.652380    -0.000016    -0.853182  -180.505562
	  150 D(11,13,15,14)  =      0.047253     0.000005     0.188460     0.235713
	  151 D(11,13,15,27)  =   -179.995822     0.000012     0.552687  -179.443135
	  152 D(12,10,11,13)  =     -0.665693     0.000008     0.398711    -0.266982
	  153 D(12,10,11,23)  =    179.157337     0.000016     0.762796   179.920133
	  154 D(12,14,15,13)  =     -0.217947     0.000007     0.373887     0.155940
	  155 D(12,14,15,27)  =    179.825142     0.000001     0.010686   179.835827
	  156 D(13,15,14,26)  =    179.730959     0.000011     0.573895   180.304854
	  157 D(14,15,13,25)  =   -179.761225    -0.000007    -0.355035  -180.116260
	  158 D(15,13,11,23)  =   -179.423642    -0.000022    -0.942505  -180.366147
	  159 D(15,14,12,24)  =   -179.909400     0.000009     0.481349  -179.428051
	  160 D(16,4,17,19)   =     -0.317148     0.000004    -0.149903    -0.467051
	  161 D(16,4,17,29)   =    179.798426    -0.000004    -0.429833   179.368594
	  162 D(16,18,20,19)  =     -0.748564    -0.000008    -0.319878    -1.068442
	  163 D(16,18,20,32)  =   -179.782187     0.000032     1.396049  -178.386138
	  164 D(17,4,16,18)   =      0.544269    -0.000001     0.252047     0.796316
	  165 D(17,4,16,28)   =   -179.192658     0.000006     0.496959  -178.695700
	  166 D(17,19,20,18)  =      0.977516     0.000010     0.423183     1.400699
	  167 D(17,19,20,32)  =   -179.989084    -0.000030    -1.297801  -181.286884
	  168 D(18,20,19,31)  =   -179.154088     0.000012     0.602520  -178.551568
	  169 *D(18,20,32,35) =    -28.700413    -0.000000     0.000021   -28.700393
	  170 D(18,20,32,36)  =   -154.019304    -0.000117    -4.730459  -158.749763
	  171 D(19,20,18,30)  =    179.157055    -0.000015    -0.725497   178.431558
	  172 D(19,20,32,35)  =    152.302089     0.000041     1.744754   154.046843
	  173 D(19,20,32,36)  =     26.983198    -0.000077    -2.985726    23.997472
	  174 D(20,18,16,28)  =    179.734696    -0.000004    -0.252980   179.481716
	  175 D(20,19,17,29)  =    179.434941    -0.000001     0.089966   179.524907
	  176 D(21,7,8,22)    =     -2.006887     0.000053     2.823230     0.816343
	  177 D(21,7,9,34)    =      0.161594     0.000012     0.773912     0.935506
	  178 D(23,11,13,25)  =      0.386325    -0.000010    -0.404648    -0.018323
	  179 D(24,12,14,26)  =      0.141301     0.000005     0.282563     0.423863
	  180 D(25,13,15,27)  =      0.195701    -0.000000     0.009192     0.204893
	  181 D(26,14,15,27)  =     -0.225952     0.000004     0.210694    -0.015259
	  182 D(28,16,18,30)  =     -0.172342     0.000004     0.147034    -0.025308
	  183 D(29,17,19,31)  =     -0.435359    -0.000003    -0.086710    -0.522069
	  184 D(30,18,20,32)  =      0.123432     0.000025     0.990430     1.113861
	  185 D(31,19,20,32)  =     -0.120688    -0.000028    -1.118463    -1.239151
	  186 D(33,6,9,34)    =     -0.003548    -0.000009    -0.235478    -0.239026
	  187 R(1,17)         =      3.319232    -0.061038     0.001845     3.321077
	  188 R(6,11)         =      3.597323     0.041051     0.060741     3.658064
	  189 R(6,17)         =      3.493209    -0.041898    -0.052010     3.441200
	 ---------------------------------------------------------------------------
	Successfully symmetrized geometry.

  ==> Convergence Check <==

  Measures of convergence in internal coordinates in au.
  Criteria marked as inactive (o), active & met (*), and active & unmet ( ).
  --------------------------------------------------------------------------------------------- ~
   Step     Total Energy     Delta E     MAX Force     RMS Force      MAX Disp      RMS Disp    ~
  --------------------------------------------------------------------------------------------- ~
    Convergence Criteria             o    2.50e-03 *    1.70e-03 *    1.00e-02 *    6.70e-03 *  ~
  --------------------------------------------------------------------------------------------- ~
      1    -895.88022918   -8.96e+02 o    4.62e-02      8.28e-03      1.45e-01      3.52e-02    ~
  ---------------------------------------------------------------------------------------------

	Writing optimization data to binary file.
	Structure for next step:
	Cartesian Geometry (in Angstrom)
	    C    -0.6923345260   1.4409599620  -0.2559072396
	    C    -0.8249885678   0.0244289198  -0.1728282787
	    N     0.2388157522  -0.8513793661  -0.0904815697
	    C     1.6302869937  -0.7662134339   0.2499443669
	    H    -0.1091737107  -1.7734196265   0.2267979189
	    C    -0.4817892404   2.3815490486   0.8490407695
	    N    -0.6966629542   3.5641242125  -1.0611613234
	    C    -0.8773300716   2.2344757093  -1.4998991951
	    C    -0.4971644120   3.6575604802   0.3282429067
	    C    -2.1078620756  -0.6936942116  -0.0733944552
	    C    -3.0005783102  -0.2699952517   0.9293284484
	    C    -2.4325341881  -1.7948740937  -0.8975116446
	    C    -4.2095768991  -0.9430189354   1.0978258592
	    C    -3.6473407106  -2.4585119152  -0.7288208650
	    C    -4.5389902986  -2.0328742616   0.2731903618
	    C     2.3457329016  -1.9805368071   0.1387168364
	    C     2.3132084461   0.3813426978   0.6786919056
	    C     3.6938131886  -2.0456871778   0.4620775219
	    C     3.6656254217   0.3185051941   0.9964815573
	    C     4.3781024553  -0.8995098395   0.9085496049
	    H    -0.7442958222   4.3373000653  -1.7183505021
	    O    -1.0907043408   1.8830660824  -2.6947942907
	    H    -2.7429550588   0.5796516378   1.5624279266
	    H    -1.7369417903  -2.1111073012  -1.6784832389
	    H    -4.9004760515  -0.6099110107   1.8744645560
	    H    -3.9011984931  -3.2998445589  -1.3733861631
	    H    -5.4859431229  -2.5464452851   0.4041305197
	    H     1.8443875386  -2.8835732235  -0.2126938726
	    H     1.7933578163   1.3376330800   0.7657461889
	    H     4.2195490822  -2.9997010811   0.3571445160
	    H     4.1709354297   1.2294756234   1.3157688997
	    N     5.7523033529  -0.9543845511   1.2048583234
	    H    -0.3470861819   2.1137772660   1.8999071485
	    H    -0.3886744474   4.6186174892   0.8208677457
	    H     6.0895630558  -1.8658587530   1.5184762119
	    H     6.0842142218  -0.2141762226   1.8232835001
			--------------------------
			 OPTKING Finished Execution 
			--------------------------

    Structure for next step:
    Molecular point group: c1
    Full point group: C1

    Geometry (in Angstrom), charge = 0, multiplicity = 1:

    C           -0.682099493365     1.407511693803    -0.272839810608
    C           -0.814753535701    -0.009019354002    -0.189760849367
    N            0.249050788450    -0.884827643328    -0.107414140022
    C            1.640522035438    -0.799661710819     0.233011797936
    H           -0.098938675803    -1.806867907387     0.209865349786
    C           -0.471554206956     2.348100784102     0.832108202828
    N           -0.686427921576     3.530675952588    -1.078093897585
    C           -0.867095039742     2.201027444148    -1.516831770945
    C           -0.486929378624     3.624112220668     0.311310338007
    C           -2.097627048574    -0.727142488190    -0.090327025464
    C           -2.990343286643    -0.303443526666     0.912395882069
    C           -2.422299162345    -1.828322374621    -0.914444218062
    C           -4.199341880272    -0.976467213001     1.080893293569
    C           -3.637105689645    -2.491960198748    -0.745753437888
    C           -4.528755281086    -2.066322543518     0.256257792904
    C            2.355967946164    -2.013985088783     0.121784266957
    C            2.323443490562     0.347894425378     0.661759338284
    C            3.704048238504    -2.079135459702     0.445144953782
    C            3.675860471460     0.285056921450     0.979548991201
    C            4.388337507893    -0.932958116903     0.891617038485
    H           -0.734060789792     4.303851808458    -1.735283078794
    O           -1.080469309769     1.849617815876    -2.711726871304
    H           -2.732720034262     0.546203366182     1.545495362714
    H           -1.726706761768    -2.144555583393    -1.695415815459
    H           -4.890241035427    -0.643359286964     1.857531993350
    H           -3.890963473057    -3.333292845778    -1.390318738530
    H           -5.475708109086    -2.579893568985     0.387197951320
    H            1.854622581207    -2.917021508741    -0.229626443400
    H            1.803592858648     1.304184811352     0.748813621969
    H            4.229784134141    -3.033149366807     0.340211947427
    H            4.181170481431     1.196027354289     1.298836334866
    N            5.762538410895    -0.987832828745     1.187925758122
    H           -0.336851147936     2.080329000412     1.882974585956
    H           -0.378439413637     4.585169233430     0.803935178976
    H            6.099798115089    -1.899307034210     1.501543647866
    H            6.094449281043    -0.247624497368     1.806350937272

gradient() will perform analytic gradient computation.

*** tstart() called on node44.bme.utexas.edu
*** at Fri Nov  5 15:04:40 2021

   => Loading Basis Set <=

    Name: 6-311G
    Role: ORBITAL
    Keyword: BASIS
    atoms 1-2, 4, 6, 8-20     entry C          line    92 file /home/bdw2292/miniconda3/envs/amoebamdpoltype/share/psi4/basis/6-311g.gbs 
    atoms 3, 7, 32            entry N          line   109 file /home/bdw2292/miniconda3/envs/amoebamdpoltype/share/psi4/basis/6-311g.gbs 
    atoms 5, 21, 23-31, 33-36 entry H          line    21 file /home/bdw2292/miniconda3/envs/amoebamdpoltype/share/psi4/basis/6-311g.gbs 
    atoms 22                  entry O          line   126 file /home/bdw2292/miniconda3/envs/amoebamdpoltype/share/psi4/basis/6-311g.gbs 


         ---------------------------------------------------------
                                   SCF
               by Justin Turney, Rob Parrish, Andy Simmonett
                          and Daniel G. A. Smith
                              RKS Reference
                        1 Threads,   7947 MiB Core
         ---------------------------------------------------------

  ==> Geometry <==

    Molecular point group: c1
    Full point group: C1

    Geometry (in Angstrom), charge = 0, multiplicity = 1:

       Center              X                  Y                   Z               Mass       
    ------------   -----------------  -----------------  -----------------  -----------------
         C           -0.682099493365     1.407511693803    -0.272839810608    12.000000000000
         C           -0.814753535701    -0.009019354002    -0.189760849367    12.000000000000
         N            0.249050788450    -0.884827643328    -0.107414140022    14.003074004430
         C            1.640522035438    -0.799661710819     0.233011797936    12.000000000000
         H           -0.098938675803    -1.806867907387     0.209865349786     1.007825032230
         C           -0.471554206956     2.348100784102     0.832108202828    12.000000000000
         N           -0.686427921576     3.530675952588    -1.078093897585    14.003074004430
         C           -0.867095039742     2.201027444148    -1.516831770945    12.000000000000
         C           -0.486929378624     3.624112220668     0.311310338007    12.000000000000
         C           -2.097627048574    -0.727142488190    -0.090327025464    12.000000000000
         C           -2.990343286643    -0.303443526666     0.912395882069    12.000000000000
         C           -2.422299162345    -1.828322374621    -0.914444218062    12.000000000000
         C           -4.199341880272    -0.976467213001     1.080893293569    12.000000000000
         C           -3.637105689645    -2.491960198748    -0.745753437888    12.000000000000
         C           -4.528755281086    -2.066322543518     0.256257792904    12.000000000000
         C            2.355967946164    -2.013985088783     0.121784266957    12.000000000000
         C            2.323443490562     0.347894425378     0.661759338284    12.000000000000
         C            3.704048238504    -2.079135459702     0.445144953782    12.000000000000
         C            3.675860471460     0.285056921450     0.979548991201    12.000000000000
         C            4.388337507893    -0.932958116903     0.891617038485    12.000000000000
         H           -0.734060789792     4.303851808458    -1.735283078794     1.007825032230
         O           -1.080469309769     1.849617815876    -2.711726871304    15.994914619570
         H           -2.732720034262     0.546203366182     1.545495362714     1.007825032230
         H           -1.726706761768    -2.144555583393    -1.695415815459     1.007825032230
         H           -4.890241035427    -0.643359286964     1.857531993350     1.007825032230
         H           -3.890963473057    -3.333292845778    -1.390318738530     1.007825032230
         H           -5.475708109086    -2.579893568985     0.387197951320     1.007825032230
         H            1.854622581207    -2.917021508741    -0.229626443400     1.007825032230
         H            1.803592858648     1.304184811352     0.748813621969     1.007825032230
         H            4.229784134141    -3.033149366807     0.340211947427     1.007825032230
         H            4.181170481431     1.196027354289     1.298836334866     1.007825032230
         N            5.762538410895    -0.987832828745     1.187925758122    14.003074004430
         H           -0.336851147936     2.080329000412     1.882974585956     1.007825032230
         H           -0.378439413637     4.585169233430     0.803935178976     1.007825032230
         H            6.099798115089    -1.899307034210     1.501543647866     1.007825032230
         H            6.094449281043    -0.247624497368     1.806350937272     1.007825032230

  Running in c1 symmetry.

  Rotational constants: A =      0.01397  B =      0.00660  C =      0.00509 [cm^-1]
  Rotational constants: A =    418.78927  B =    197.99637  C =    152.51382 [MHz]
  Nuclear repulsion = 1508.824121805917457

  Charge       = 0
  Multiplicity = 1
  Electrons    = 146
  Nalpha       = 73
  Nbeta        = 73

  ==> Algorithm <==

  SCF Algorithm Type is DF.
  DIIS enabled.
  MOM disabled.
  Fractional occupation disabled.
  Guess Type is READ.
  Energy threshold   = 1.00e-08
  Density threshold  = 1.00e-08
  Integral threshold = 0.00e+00

  ==> Primary Basis <==

  Basis Set: 6-311G
    Blend: 6-311G
    Number of shells: 192
    Number of basis function: 318
    Number of Cartesian functions: 318
    Spherical Harmonics?: true
    Max angular momentum: 1

  ==> DFT Potential <==

   => Composite Functional: WB97X-D <= 

    wB97X-D Hyb-GGA Exchange-Correlation Functional

    J.-D. Chai and M. Head-Gordon, Phys. Chem. Chem. Phys. 10, 6615 (2008)

    Deriv               =              1
    GGA                 =           TRUE
    Meta                =          FALSE

    Exchange Hybrid     =           TRUE
    MP2 Hybrid          =          FALSE

   => Exchange-Correlation Functionals <=

    1.0000   wB97D range-separated functional

   => Exact (HF) Exchange <=

    0.7780            HF,LR [omega = 0.2000]
    0.2220               HF 

   => Molecular Quadrature <=

    Radial Scheme          =       TREUTLER
    Pruning Scheme         =           FLAT
    Nuclear Scheme         =       TREUTLER

    BS radius alpha        =              1
    Pruning alpha          =              1
    Radial Points          =             75
    Spherical Points       =            302
    Total Points           =         806529
    Total Blocks           =           5744
    Max Points             =            256
    Max Functions          =            216

   => WB97X-D: Empirical Dispersion <=

    Chai and Head-Gordon Dispersion Correction
    Chai, J.-D.; Head-Gordon, M. (2010), J. Chem. Phys., 132: 6615-6620

        s6 =       1.000000

   => Loading Basis Set <=

    Name: (6-311G AUX)
    Role: JKFIT
    Keyword: DF_BASIS_SCF
    atoms 1-2, 4, 6, 8-20     entry C          line   125 file /home/bdw2292/miniconda3/envs/amoebamdpoltype/share/psi4/basis/cc-pvtz-jkfit.gbs 
    atoms 3, 7, 32            entry N          line   177 file /home/bdw2292/miniconda3/envs/amoebamdpoltype/share/psi4/basis/cc-pvtz-jkfit.gbs 
    atoms 5, 21, 23-31, 33-36 entry H          line    51 file /home/bdw2292/miniconda3/envs/amoebamdpoltype/share/psi4/basis/cc-pvtz-jkfit.gbs 
    atoms 22                  entry O          line   229 file /home/bdw2292/miniconda3/envs/amoebamdpoltype/share/psi4/basis/cc-pvtz-jkfit.gbs 

   => Loading Basis Set <=

    Name: 6-311G
    Role: ORBITAL
    Keyword: BASIS
    atoms 1-2, 4, 6, 8-20     entry C          line    92 file /home/bdw2292/miniconda3/envs/amoebamdpoltype/share/psi4/basis/6-311g.gbs 
    atoms 3, 7, 32            entry N          line   109 file /home/bdw2292/miniconda3/envs/amoebamdpoltype/share/psi4/basis/6-311g.gbs 
    atoms 5, 21, 23-31, 33-36 entry H          line    21 file /home/bdw2292/miniconda3/envs/amoebamdpoltype/share/psi4/basis/6-311g.gbs 
    atoms 22                  entry O          line   126 file /home/bdw2292/miniconda3/envs/amoebamdpoltype/share/psi4/basis/6-311g.gbs 

  Reading orbitals from file 180, no projection.

  ==> Pre-Iterations <==

   -------------------------------------------------------
    Irrep   Nso     Nmo     Nalpha   Nbeta   Ndocc  Nsocc
   -------------------------------------------------------
     A        318     318       0       0       0       0
   -------------------------------------------------------
    Total     318     318      73      73      73       0
   -------------------------------------------------------

  ==> Integral Setup <==

  ==> DiskDFJK: Density-Fitted J/K Matrices <==

    J tasked:                  Yes
    K tasked:                  Yes
    wK tasked:                 Yes
    Omega:               2.000E-01
    OpenMP threads:              1
    Integrals threads:           1
    Memory [MiB]:             2643
    Algorithm:                Core
    Integral Cache:           NONE
    Schwarz Cutoff:          1E-12
    Fitting Condition:       1E-10

   => Auxiliary Basis Set <=

  Basis Set: (6-311G AUX)
    Blend: CC-PVTZ-JKFIT
    Number of shells: 675
    Number of basis function: 2109
[...]
	  132 D(5,3,4,17)     =   -150.668036    -0.000000     0.017138  -150.650898
	  133 D(6,1,2,10)     =   -157.162210    -0.000001    -0.054668  -157.216879
	  134 D(6,1,8,7)      =     -1.110628     0.000002     0.249034    -0.861594
	  135 D(6,1,8,22)     =   -177.642146    -0.000001    -0.209756  -177.851902
	  136 D(6,9,7,8)      =     -1.740062     0.000001     0.173516    -1.566547
	  137 D(6,9,7,21)     =    177.821113    -0.000000    -0.080065   177.741048
	  138 D(7,9,6,33)     =    174.770527    -0.000000    -0.032257   174.738270
	  139 D(8,1,2,10)     =      6.343076     0.000001     0.164723     6.507799
	  140 D(8,1,6,9)      =      0.122380    -0.000002    -0.155855    -0.033476
	  141 D(8,1,6,33)     =   -173.631863    -0.000001    -0.124587  -173.756450
	  142 D(8,7,9,34)     =    176.229200     0.000001     0.120737   176.349938
	  143 D(9,7,8,22)     =    178.682769     0.000001     0.143119   178.825888
	  144 D(10,11,13,15)  =     -0.332514    -0.000000    -0.008222    -0.340736
	  145 D(10,11,13,25)  =   -179.926233    -0.000000    -0.009577  -179.935810
	  146 D(10,12,14,15)  =     -0.236401    -0.000000    -0.031069    -0.267469
	  147 D(10,12,14,26)  =    179.092660    -0.000000    -0.032045   179.060615
	  148 D(11,10,12,14)  =     -0.204199     0.000000     0.032448    -0.171751
	  149 D(11,10,12,24)  =    177.145159    -0.000000    -0.030207   177.114952
	  150 D(11,13,15,14)  =     -0.112006     0.000000     0.009808    -0.102198
	  151 D(11,13,15,27)  =   -179.617916     0.000000     0.000227  -179.617689
	  152 D(12,10,11,13)  =      0.485490    -0.000000    -0.012701     0.472789
	  153 D(12,10,11,23)  =   -178.178289    -0.000000    -0.022879  -178.201168
	  154 D(12,14,15,13)  =      0.394117    -0.000000     0.009737     0.403854
	  155 D(12,14,15,27)  =    179.900347     0.000000     0.019294   179.919641
	  156 D(13,15,14,26)  =   -178.930991     0.000000     0.010703  -178.920288
	  157 D(14,15,13,25)  =    179.478102     0.000000     0.011159   179.489261
	  158 D(15,13,11,23)  =    178.331440    -0.000000     0.001848   178.333288
	  159 D(15,14,12,24)  =   -177.600569     0.000000     0.031242  -177.569327
	  160 D(16,4,17,19)   =      4.900949    -0.000000     0.028408     4.929357
	  161 D(16,4,17,29)   =   -173.340292    -0.000000    -0.015805  -173.356097
	  162 D(16,18,20,19)  =      0.395069    -0.000000    -0.003212     0.391858
	  163 D(16,18,20,32)  =   -177.822525     0.000000    -0.004502  -177.827027
	  164 D(17,4,16,18)   =     -5.427394     0.000000    -0.027551    -5.454945
	  165 D(17,4,16,28)   =    176.692935     0.000000    -0.004651   176.688285
	  166 D(17,19,20,18)  =     -0.872605     0.000000     0.004037    -0.868568
	  167 D(17,19,20,32)  =    177.333711     0.000000     0.005554   177.339265
	  168 D(18,20,19,31)  =    177.589187     0.000000    -0.000347   177.588840
	  169 *D(18,20,32,35) =    -28.700378    -0.000000     0.000000   -28.700378
	  170 D(18,20,32,36)  =    178.587890    -0.000000    -0.000733   178.587157
	  171 D(19,20,18,30)  =   -179.440463     0.000000     0.000240  -179.440223
	  172 D(19,20,32,35)  =    153.147559     0.000000    -0.001394   153.146165
	  173 D(19,20,32,36)  =      0.435827    -0.000000    -0.002127     0.433700
	  174 D(20,18,16,28)  =   -179.280926     0.000000    -0.006796  -179.287722
	  175 D(20,19,17,29)  =    176.423413     0.000000     0.026145   176.449558
	  176 D(21,7,8,22)    =     -0.904133     0.000002     0.381789    -0.522343
	  177 D(21,7,9,34)    =     -4.209624    -0.000001    -0.132844    -4.342468
	  178 D(23,11,13,25)  =     -1.262279    -0.000000     0.000492    -1.261787
	  179 D(24,12,14,26)  =      1.728492     0.000000     0.030266     1.758758
	  180 D(25,13,15,27)  =     -0.027808     0.000000     0.001579    -0.026230
	  181 D(26,14,15,27)  =      0.575239     0.000000     0.020260     0.595499
	  182 D(28,16,18,30)  =      0.554749    -0.000000    -0.010240     0.544508
	  183 D(29,17,19,31)  =     -2.047935     0.000000     0.030407    -2.017528
	  184 D(30,18,20,32)  =      2.341942     0.000000    -0.001050     2.340892
	  185 D(31,19,20,32)  =     -4.204497     0.000000     0.001170    -4.203327
	  186 D(33,6,9,34)    =     -2.972037     0.000000     0.026217    -2.945819
	  187 R(1,17)         =      3.240041     0.000863     0.000864     3.240905
	  188 R(4,6)          =      3.248045     0.000730     0.000271     3.248316
	  189 R(6,17)         =      2.981386     0.000487     0.000366     2.981752
	  190 R(8,11)         =      3.255148    -0.000276     0.000146     3.255294
	  191 R(10,22)        =      3.168113     0.000314     0.000789     3.168902
	  192 R(11,22)        =      2.785755     0.001296     0.000906     2.786661
	  193 R(1,X)          =     -0.553883    -0.000703    -0.000469    -0.554351
	  194 R(1,Y)          =      1.341488    -0.000139    -0.000058     1.341430
	  195 R(1,Z)          =     -0.489852     0.000037    -0.000608    -0.490460
	  196 R(2,X)          =     -0.683927    -0.000382    -0.000239    -0.684166
	  197 R(2,Y)          =     -0.023866     0.000385     0.000062    -0.023804
	  198 R(2,Z)          =     -0.363768     0.000059    -0.000240    -0.364008
	  199 R(3,X)          =      0.368558     0.000194     0.000010     0.368568
	  200 R(3,Y)          =     -0.902326     0.000279     0.000154    -0.902171
	  201 R(3,Z)          =     -0.235953     0.000123    -0.000013    -0.235966
	  202 R(4,X)          =      1.735288     0.000096     0.000099     1.735387
	  203 R(4,Y)          =     -0.756104    -0.000473    -0.000145    -0.756249
	  204 R(4,Z)          =      0.125843    -0.000098    -0.000156     0.125687
	  205 R(5,X)          =      0.074775     0.000037     0.000023     0.074797
	  206 R(5,Y)          =     -1.864962     0.000035     0.000095    -1.864867
	  207 R(5,Z)          =     -0.223336     0.000157     0.000085    -0.223252
	  208 R(6,X)          =      0.603419    -0.000295    -0.000117     0.603301
	  209 R(6,Y)          =      2.049480     0.000379     0.000224     2.049703
	  210 R(6,Z)          =     -1.056261     0.000292     0.000182    -1.056079
	  211 R(7,X)          =     -1.073121    -0.000735    -0.000425    -1.073546
	  212 R(7,Y)          =      3.525826    -0.000165    -0.000163     3.525663
	  213 R(7,Z)          =     -0.884567     0.000024    -0.000755    -0.885322
	  214 R(8,X)          =     -1.638992    -0.000561     0.000512    -1.638480
	  215 R(8,Y)          =      2.349395     0.000268     0.000725     2.350120
	  216 R(8,Z)          =     -0.411159     0.001338     0.002364    -0.408794
	  217 R(9,X)          =      0.250619     0.000119     0.000000     0.250619
	  218 R(9,Y)          =      3.329823    -0.000226     0.000083     3.329906
	  219 R(9,Z)          =     -1.285504     0.000033     0.000065    -1.285439
	  220 R(10,X)         =     -1.987443     0.000126     0.000033    -1.987410
	  221 R(10,Y)         =     -0.755645     0.000355    -0.000048    -0.755693
	  222 R(10,Z)         =     -0.254342     0.000094    -0.000012    -0.254354
	  223 R(11,X)         =     -2.979264    -0.000022    -0.000079    -2.979342
	  224 R(11,Y)         =     -0.413886    -0.000323    -0.000166    -0.414052
	  225 R(11,Z)         =      0.667701    -0.000340    -0.000215     0.667486
	  226 R(12,X)         =     -2.189624     0.000105     0.000219    -2.189405
	  227 R(12,Y)         =     -1.867587    -0.000025    -0.000324    -1.867911
	  228 R(12,Z)         =     -1.088980     0.000015     0.000274    -1.088706
	  229 R(13,X)         =     -4.141577     0.000005    -0.000055    -4.141632
	  230 R(13,Y)         =     -1.176605    -0.000172    -0.000106    -1.176711
	  231 R(13,Z)         =      0.756529    -0.000175    -0.000110     0.756419
	  232 R(14,X)         =     -3.354370     0.000067     0.000059    -3.354311
	  233 R(14,Y)         =     -2.622009    -0.000000    -0.000098    -2.622107
	  234 R(14,Z)         =     -1.000173     0.000003     0.000040    -1.000133
	  235 R(15,X)         =     -4.334326    -0.000062    -0.000058    -4.334384
	  236 R(15,Y)         =     -2.279140    -0.000104    -0.000077    -2.279217
	  237 R(15,Z)         =     -0.071013    -0.000084    -0.000091    -0.071103
	  238 R(16,X)         =      2.513743    -0.000218    -0.000062     2.513681
	  239 R(16,Y)         =     -1.921854     0.000090    -0.000085    -1.921939
	  240 R(16,Z)         =      0.094556    -0.000100     0.000063     0.094619
	  241 R(17,X)         =      2.276869     0.000261     0.000138     2.277007
	  242 R(17,Y)         =      0.370718    -0.000189    -0.000215     0.370503
	  243 R(17,Z)         =      0.752049     0.000052     0.000142     0.752191
	  244 R(18,X)         =      3.817797     0.000067     0.000015     3.817811
	  245 R(18,Y)         =     -1.936542     0.000015    -0.000056    -1.936598
	  246 R(18,Z)         =      0.561806     0.000001     0.000002     0.561808
	  247 R(19,X)         =      3.582318    -0.000109     0.000058     3.582376
	  248 R(19,Y)         =      0.355857    -0.000086    -0.000099     0.355758
	  249 R(19,Z)         =      1.230656    -0.000037     0.000035     1.230691
	  250 R(20,X)         =      4.382492     0.000081     0.000064     4.382556
	  251 R(20,Y)         =     -0.789352    -0.000285    -0.000125    -0.789477
	  252 R(20,Z)         =      1.138819    -0.000035     0.000001     1.138820
	  253 R(21,X)         =     -1.586956    -0.000164    -0.000099    -1.587055
	  254 R(21,Y)         =      4.384805    -0.000575    -0.000102     4.384703
	  255 R(21,Z)         =     -0.909914    -0.000025     0.000028    -0.909886
	  256 R(22,X)         =     -2.809005     0.001095    -0.000221    -2.809226
	  257 R(22,Y)         =      2.291326     0.000972     0.000737     2.292063
	  258 R(22,Z)         =      0.024839    -0.000212    -0.000376     0.024463
	  259 R(23,X)         =     -2.855173    -0.000029    -0.000028    -2.855201
	  260 R(23,Y)         =      0.451163    -0.000165    -0.000143     0.451020
	  261 R(23,Z)         =      1.294581    -0.000228    -0.000178     1.294403
	  262 R(24,X)         =     -1.451262     0.000010     0.000029    -1.451233
	  263 R(24,Y)         =     -2.118836    -0.000045    -0.000089    -2.118924
	  264 R(24,Z)         =     -1.841243    -0.000046     0.000013    -1.841229
	  265 R(25,X)         =     -4.900812     0.000047     0.000012    -4.900799
	  266 R(25,Y)         =     -0.898747    -0.000091    -0.000081    -0.898828
	  267 R(25,Z)         =      1.474422    -0.000066    -0.000036     1.474386
	  268 R(26,X)         =     -3.499208     0.000026    -0.000009    -3.499217
	  269 R(26,Y)         =     -3.465903     0.000011     0.000010    -3.465893
	  270 R(26,Z)         =     -1.660933    -0.000065    -0.000084    -1.661017
	  271 R(27,X)         =     -5.242720    -0.000004    -0.000028    -5.242748
	  272 R(27,Y)         =     -2.861763    -0.000094    -0.000086    -2.861849
	  273 R(27,Z)         =      0.000881    -0.000084    -0.000069     0.000812
	  274 R(28,X)         =      2.099959    -0.000035     0.000007     2.099965
	  275 R(28,Y)         =     -2.826548    -0.000048    -0.000073    -2.826622
	  276 R(28,Z)         =     -0.335836    -0.000095    -0.000038    -0.335874
	  277 R(29,X)         =      1.682528    -0.000047     0.000139     1.682668
	  278 R(29,Y)         =      1.256257     0.000283     0.000036     1.256294
	  279 R(29,Z)         =      0.898003    -0.000181    -0.000227     0.897776
	  280 R(30,X)         =      4.404735    -0.000059    -0.000027     4.404708
	  281 R(30,Y)         =     -2.842439    -0.000057    -0.000069    -2.842508
	  282 R(30,Z)         =      0.483014    -0.000068    -0.000034     0.482980
	  283 R(31,X)         =      3.975711    -0.000066    -0.000006     3.975705
	  284 R(31,Y)         =      1.245508     0.000024    -0.000039     1.245469
	  285 R(31,Z)         =      1.706335     0.000021     0.000041     1.706376
	  286 R(32,X)         =      5.704404     0.000016     0.000038     5.704442
	  287 R(32,Y)         =     -0.785562    -0.000044    -0.000039    -0.785601
	  288 R(32,Z)         =      1.568098     0.000044     0.000030     1.568128
	  289 R(33,X)         =      1.538136     0.000549     0.000137     1.538274
	  290 R(33,Y)         =      1.606518    -0.000117     0.000088     1.606606
	  291 R(33,Z)         =     -1.343492     0.000185     0.000284    -1.343208
	  292 R(34,X)         =      0.817283     0.000103    -0.000006     0.817278
	  293 R(34,Y)         =      4.126429    -0.000237    -0.000075     4.126354
	  294 R(34,Z)         =     -1.733788    -0.000304    -0.000249    -1.734037
	  295 R(35,X)         =      6.126883     0.000064     0.000047     6.126930
	  296 R(35,Y)         =     -1.641409    -0.000050    -0.000032    -1.641441
	  297 R(35,Z)         =      1.873917     0.000075     0.000049     1.873966
	  298 R(36,X)         =      6.086194    -0.000015     0.000007     6.086201
	  299 R(36,Y)         =      0.055743     0.000007    -0.000012     0.055731
	  300 R(36,Z)         =      1.956891     0.000048     0.000021     1.956912
	 ---------------------------------------------------------------------------
	Successfully symmetrized geometry.

  ==> Convergence Check <==

  Measures of convergence in internal coordinates in au.
  Criteria marked as inactive (o), active & met (*), and active & unmet ( ).
  --------------------------------------------------------------------------------------------- ~
   Step     Total Energy     Delta E     MAX Force     RMS Force      MAX Disp      RMS Disp    ~
  --------------------------------------------------------------------------------------------- ~
    Convergence Criteria             o    2.50e-03 *    1.70e-03 *    1.00e-02 *    6.70e-03 *  ~
  --------------------------------------------------------------------------------------------- ~
      1    -895.96234182   -8.96e+02 o    2.58e-04 *    3.86e-05 *    6.86e-03 *    9.29e-04 *  ~
  ---------------------------------------------------------------------------------------------


  **** Optimization is complete! (in 1 steps) ****

  ==> Optimization Summary <==

  Measures of convergence in internal coordinates in au.
  --------------------------------------------------------------------------------------------------------------- ~
   Step         Total Energy             Delta E       MAX Force       RMS Force        MAX Disp        RMS Disp  ~
  --------------------------------------------------------------------------------------------------------------- ~
      1    -895.962341816732   -895.962341816732      0.00025763      0.00003859      0.00686062      0.00092897  ~
  --------------------------------------------------------------------------------------------------------------- ~

	Writing optimization data to binary file.
	Final energy is   -895.9623418167317
	Final (previous) structure:
	Cartesian Geometry (in Angstrom)
	    C    -0.5538826024   1.3414881544  -0.4898519306
	    C    -0.6839270495  -0.0238663637  -0.3637679378
	    N     0.3685584051  -0.9023255741  -0.2359525105
	    C     1.7352880821  -0.7561041261   0.1258426860
	    H     0.0747745764  -1.8649623791  -0.2233362040
	    C     0.6034186075   2.0494798264  -1.0562607027
	    N    -1.0731209167   3.5258263242  -0.8845669243
	    C    -1.6389919167   2.3493948989  -0.4111585904
	    C     0.2506186548   3.3298229000  -1.2855040827
	    C    -1.9874425483  -0.7556453944  -0.2543416481
	    C    -2.9792635300  -0.4138859660   0.6677012511
	    C    -2.1896240806  -1.8675868554  -1.0889804869
	    C    -4.1415769779  -1.1766051828   0.7565286361
	    C    -3.3543699074  -2.6220090678  -1.0001725096
	    C    -4.3343258838  -2.2791403224  -0.0710125343
	    C     2.5137432463  -1.9218538613   0.0945563753
	    C     2.2768690215   0.3707184831   0.7520492091
	    C     3.8177969737  -1.9365418290   0.5618055374
	    C     3.5823182157   0.3558569621   1.2306561435
	    C     4.3824920602  -0.7893522912   1.1388193125
	    H    -1.5869559669   4.3848048314  -0.9099143831
	    O    -2.8090048872   2.2913258455   0.0248387128
	    H    -2.8551729256   0.4511626773   1.2945811250
	    H    -1.4512617995  -2.1188357207  -1.8412427854
	    H    -4.9008115136  -0.8987468933   1.4744220788
	    H    -3.4992080587  -3.4659030206  -1.6609330139
	    H    -5.2427199584  -2.8617633221   0.0008814047
	    H     2.0999585418  -2.8265484881  -0.3358360216
	    H     1.6825284672   1.2562574111   0.8980027406
	    H     4.4047351736  -2.8424391775   0.4830137893
	    H     3.9757105350   1.2455075377   1.7063349979
	    N     5.7044037736  -0.7855619151   1.5680977455
	    H     1.5381361375   1.6065177112  -1.3434922994
	    H     0.8172832341   4.1264292397  -1.7337883497
	    H     6.1268829276  -1.6414085530   1.8739168460
	    H     6.0861938254   0.0557434502   1.9568908939
	Saving final (previous) structure.
			--------------------------
			 OPTKING Finished Execution 
			--------------------------

    Final optimized geometry and variables:
    Molecular point group: c1
    Full point group: C1

    Geometry (in Angstrom), charge = 0, multiplicity = 1:

    C           -0.553882604601     1.341488159698    -0.489851932534
    C           -0.683927052147    -0.023866363756    -0.363767939199
    N            0.368558406502    -0.902325577612    -0.235952511398
    C            1.735288088961    -0.756104129105     0.125842686513
    H            0.074774576741    -1.864962386435    -0.223336204855
    C            0.603418609883     2.049479834407    -1.056260706853
    N           -1.073120920889     3.525826338096    -0.884566927814
    C           -1.638991923119     2.349394908145    -0.411158591982
    C            0.250618655758     3.329822913106    -1.285504087772
    C           -1.987442556133    -0.755645397408    -0.254341649051
    C           -2.979263541664    -0.413885967669     0.667701253749
    C           -2.189624089245    -1.867586862705    -1.088980491193
    C           -4.141576994175    -1.176605187409     0.756528639097
    C           -3.354369920624    -2.622009078128    -1.000172513578
    C           -4.334325900875    -2.279140331376    -0.071012534612
    C            2.513743256166    -1.921853868832     0.094556375713
    C            2.276869030455     0.370718484551     0.752049212081
    C            3.817796988734    -1.936541836595     0.561805539604
    C            3.582318229754     0.355856963501     1.230656148305
    C            4.382492077379    -0.789352294259     1.138819316938
    H           -1.586955973176     4.384804848653    -0.909914386679
    O           -2.809004898263     2.291325854524     0.024838712932
    H           -2.855172936836     0.451162679036     1.294581130056
    H           -1.451261805206    -2.118835729033    -1.841242792645
    H           -4.900811532826    -0.898746896810     1.474422084548
    H           -3.499208072410    -3.465903034246    -1.660933020400
    H           -5.242719979011    -2.861763333380     0.000881404748
    H            2.099958550056    -2.826548499188    -0.335836022916
    H            1.682528473853     1.256257416017     0.898002744121
    H            4.404735190875    -2.842439188681     0.483013791237
    H            3.975710550674     1.245507542568     1.706335004645
    N            5.704403796062    -0.785561918237     1.568097751679
    H            1.538136143505     1.606517717524    -1.343492304636
    H            0.817283237314     4.126429255916    -1.733788356514
    H            6.126882951727    -1.641408559424     1.873916853325
    H            6.086193849315     0.055743450445     1.956890901593

	Removing binary optimization data file.
	Cleaning optimization helper files.

    Psi4 stopped on: Friday, 05 November 2021 08:52PM
    Psi4 wall time for execution: 6:02:20.14

*** Psi4 exiting successfully. Buy a developer a beer!
