
    -----------------------------------------------------------------------
          Psi4: An Open-Source Ab Initio Electronic Structure Package
                               Psi4 1.3.2 release

                         Git: Rev {HEAD} ecbda83 


    R. M. Parrish, L. A. Burns, D. G. A. Smith, A. C. Simmonett,
    A. E. DePrince III, E. G. Hohenstein, U. Bozkaya, A. Yu. Sokolov,
    R. Di Remigio, R. M. Richard, J. F. Gonthier, A. M. James,
    H. R. McAlexander, A. Kumar, M. Saitow, X. Wang, B. P. Pritchard,
    P. Verma, H. F. Schaefer III, K. Patkowski, R. A. King, E. F. Valeev,
    F. A. Evangelista, J. M. Turney, T. D. Crawford, and C. D. Sherrill,
    J. Chem. Theory Comput. 13(7) pp 3185--3197 (2017).
    (doi: 10.1021/acs.jctc.7b00174)


                         Additional Contributions by
    P. Kraus, H. Kruse, M. H. Lechner, M. C. Schieber, R. A. Shaw,
    A. Alenaizan, R. Galvelis, Z. L. Glick, S. Lehtola, and J. P. Misiewicz

    -----------------------------------------------------------------------


    Psi4 started on: Sunday, 07 November 2021 01:23AM

    Process ID: 62649
    Host:       node44.bme.utexas.edu
    PSIDATADIR: /home/bdw2292/miniconda3/envs/amoebamdpoltype/share/psi4
    Memory:     500.0 MiB
    Threads:    1
    
  ==> Input File <==

--------------------------------------------------------------------------
molecule { 
0 1
 C   -0.743237    1.625851    0.060544
 C   -0.766715    0.277654    0.354362
 N    0.281680   -0.317027    1.100442
 C    1.634899   -0.627125    0.730102
 H    0.195746   -0.102408    2.094278
 C   -1.027747    2.717006    0.975880
 N   -0.584946    3.610257   -1.051205
 C   -0.452808    2.248240   -1.278742
 C   -0.917961    3.874230    0.269986
 C   -1.887437   -0.637026    0.028215
 C   -3.219306   -0.319634    0.394367
 C   -1.626085   -1.884108   -0.592308
 C   -4.261899   -1.214589    0.121756
 C   -2.670639   -2.776323   -0.863004
 C   -3.995329   -2.446473   -0.510307
 C    2.249055   -1.759322    1.319515
 C    2.389494    0.131132   -0.197818
 C    3.571000   -2.105557    1.008230
 C    3.711315   -0.219805   -0.506030
 C    4.336418   -1.338238    0.097059
 H   -0.446191    4.285550   -1.789219
 O   -0.141809    1.769673   -2.368853
 H   -3.432596    0.627242    0.892907
 H   -0.601357   -2.146893   -0.859713
 H   -5.282572   -0.952460    0.404485
 H   -2.452275   -3.729189   -1.347481
 H   -4.809135   -3.141867   -0.722999
 H    1.691602   -2.379969    2.024993
 H    1.959068    0.997322   -0.698386
 H    4.005950   -2.987930    1.483061
 H    4.256632    0.389517   -1.230285
 N    5.681293   -1.693921   -0.219921
 H   -1.281017    2.623358    2.022241
 H   -1.052468    4.897970    0.591777
 H    6.163119   -2.183575    0.534608
 H    6.252022   -0.902922   -0.519899
}
set optking { 
  frozen_dihedral = ("
    16 4 3 2
    1 2 10 11
    1 2 10 12
    3 2 10 11
    1 2 3 4
    10 2 3 4
    18 20 32 35
  ")
}
set {
  geom_maxiter 400
  g_convergence GAU_LOOSE
  dynamic_level 1
}
memory 8.333333333333334GB
set_num_threads(1)
psi4_io.set_default_path("/scratch/bdw2292/Psi4-7_1_Index_0_GrowFragment_0-farH_in17")
for _ in range(1):
  try:
    set opt_coordinates both
    optimize('wb97x-d/6-311G')
    break
  except OptimizationConvergenceError:
    break
  else:
    try:
      set opt_coordinates cartesian
      optimize('wb97x-d/6-311G')
      break
    except OptimizationConvergenceError:
      pass
clean()
--------------------------------------------------------------------------

  Memory set to   7.761 GiB by Python driver.
  Threads set to 1 by Python driver.
gradient() will perform analytic gradient computation.

*** tstart() called on node44.bme.utexas.edu
*** at Sun Nov  7 01:23:04 2021

   => Loading Basis Set <=

    Name: 6-311G
    Role: ORBITAL
    Keyword: BASIS
    atoms 1-2, 4, 6, 8-20     entry C          line    92 file /home/bdw2292/miniconda3/envs/amoebamdpoltype/share/psi4/basis/6-311g.gbs 
    atoms 3, 7, 32            entry N          line   109 file /home/bdw2292/miniconda3/envs/amoebamdpoltype/share/psi4/basis/6-311g.gbs 
    atoms 5, 21, 23-31, 33-36 entry H          line    21 file /home/bdw2292/miniconda3/envs/amoebamdpoltype/share/psi4/basis/6-311g.gbs 
    atoms 22                  entry O          line   126 file /home/bdw2292/miniconda3/envs/amoebamdpoltype/share/psi4/basis/6-311g.gbs 


         ---------------------------------------------------------
                                   SCF
               by Justin Turney, Rob Parrish, Andy Simmonett
                          and Daniel G. A. Smith
                              RKS Reference
                        1 Threads,   7947 MiB Core
         ---------------------------------------------------------

  ==> Geometry <==

    Molecular point group: c1
    Full point group: C1

    Geometry (in Angstrom), charge = 0, multiplicity = 1:

       Center              X                  Y                   Z               Mass       
    ------------   -----------------  -----------------  -----------------  -----------------
         C           -0.866373811787     1.652882873886     0.134284616657    12.000000000000
         C           -0.889851811787     0.304685873886     0.428102616657    12.000000000000
         N            0.158543188213    -0.289995126114     1.174182616657    14.003074004430
         C            1.511762188213    -0.600093126114     0.803842616657    12.000000000000
         H            0.072609188213    -0.075376126114     2.168018616657     1.007825032230
         C           -1.150883811787     2.744037873886     1.049620616657    12.000000000000
         N           -0.708082811787     3.637288873886    -0.977464383343    14.003074004430
         C           -0.575944811787     2.275271873886    -1.205001383343    12.000000000000
         C           -1.041097811787     3.901261873886     0.343726616657    12.000000000000
         C           -2.010573811787    -0.609994126114     0.101955616657    12.000000000000
         C           -3.342442811787    -0.292602126114     0.468107616657    12.000000000000
         C           -1.749221811787    -1.857076126114    -0.518567383343    12.000000000000
         C           -4.385035811787    -1.187557126114     0.195496616657    12.000000000000
         C           -2.793775811787    -2.749291126114    -0.789263383343    12.000000000000
         C           -4.118465811787    -2.419441126114    -0.436566383343    12.000000000000
         C            2.125918188213    -1.732290126114     1.393255616657    12.000000000000
         C            2.266357188213     0.158163873886    -0.124077383343    12.000000000000
         C            3.447863188213    -2.078525126114     1.081970616657    12.000000000000
         C            3.588178188213    -0.192773126114    -0.432289383343    12.000000000000
         C            4.213281188213    -1.311206126114     0.170799616657    12.000000000000
         H           -0.569327811787     4.312581873886    -1.715478383343     1.007825032230
         O           -0.264945811787     1.796704873886    -2.295112383343    15.994914619570
         H           -3.555732811787     0.654273873886     0.966647616657     1.007825032230
         H           -0.724493811787    -2.119861126114    -0.785972383343     1.007825032230
         H           -5.405708811787    -0.925428126114     0.478225616657     1.007825032230
         H           -2.575411811787    -3.702157126114    -1.273740383343     1.007825032230
         H           -4.932271811787    -3.114835126114    -0.649258383343     1.007825032230
         H            1.568465188213    -2.352937126114     2.098733616657     1.007825032230
         H            1.835931188213     1.024353873886    -0.624645383343     1.007825032230
         H            3.882813188213    -2.960898126114     1.556801616657     1.007825032230
         H            4.133495188213     0.416548873886    -1.156544383343     1.007825032230
         N            5.558156188213    -1.666889126114    -0.146180383343    14.003074004430
         H           -1.404153811787     2.650389873886     2.095981616657     1.007825032230
         H           -1.175604811787     4.925001873886     0.665517616657     1.007825032230
         H            6.039982188213    -2.156543126114     0.608348616657     1.007825032230
         H            6.128885188213    -0.875890126114    -0.446158383343     1.007825032230

  Running in c1 symmetry.

  Rotational constants: A =      0.01311  B =      0.00718  C =      0.00529 [cm^-1]
  Rotational constants: A =    392.89586  B =    215.39606  C =    158.52880 [MHz]
  Nuclear repulsion = 1516.003898165348119

  Charge       = 0
  Multiplicity = 1
  Electrons    = 146
  Nalpha       = 73
  Nbeta        = 73

  ==> Algorithm <==

  SCF Algorithm Type is DF.
  DIIS enabled.
  MOM disabled.
  Fractional occupation disabled.
  Guess Type is SAD.
  Energy threshold   = 1.00e-08
  Density threshold  = 1.00e-08
  Integral threshold = 0.00e+00

  ==> Primary Basis <==

  Basis Set: 6-311G
    Blend: 6-311G
    Number of shells: 192
    Number of basis function: 318
    Number of Cartesian functions: 318
    Spherical Harmonics?: true
    Max angular momentum: 1

  ==> DFT Potential <==

   => Composite Functional: WB97X-D <= 

    wB97X-D Hyb-GGA Exchange-Correlation Functional

    J.-D. Chai and M. Head-Gordon, Phys. Chem. Chem. Phys. 10, 6615 (2008)

    Deriv               =              1
    GGA                 =           TRUE
    Meta                =          FALSE

    Exchange Hybrid     =           TRUE
    MP2 Hybrid          =          FALSE

   => Exchange-Correlation Functionals <=

    1.0000   wB97D range-separated functional

   => Exact (HF) Exchange <=

    0.7780            HF,LR [omega = 0.2000]
    0.2220               HF 

   => Molecular Quadrature <=

    Radial Scheme          =       TREUTLER
    Pruning Scheme         =           FLAT
    Nuclear Scheme         =       TREUTLER

    BS radius alpha        =              1
    Pruning alpha          =              1
    Radial Points          =             75
    Spherical Points       =            302
    Total Points           =         806667
    Total Blocks           =           5745
    Max Points             =            256
    Max Functions          =            224

   => WB97X-D: Empirical Dispersion <=

    Chai and Head-Gordon Dispersion Correction
    Chai, J.-D.; Head-Gordon, M. (2010), J. Chem. Phys., 132: 6615-6620

        s6 =       1.000000

   => Loading Basis Set <=

    Name: (6-311G AUX)
    Role: JKFIT
    Keyword: DF_BASIS_SCF
    atoms 1-2, 4, 6, 8-20     entry C          line   125 file /home/bdw2292/miniconda3/envs/amoebamdpoltype/share/psi4/basis/cc-pvtz-jkfit.gbs 
    atoms 3, 7, 32            entry N          line   177 file /home/bdw2292/miniconda3/envs/amoebamdpoltype/share/psi4/basis/cc-pvtz-jkfit.gbs 
    atoms 5, 21, 23-31, 33-36 entry H          line    51 file /home/bdw2292/miniconda3/envs/amoebamdpoltype/share/psi4/basis/cc-pvtz-jkfit.gbs 
    atoms 22                  entry O          line   229 file /home/bdw2292/miniconda3/envs/amoebamdpoltype/share/psi4/basis/cc-pvtz-jkfit.gbs 

  ==> Pre-Iterations <==

   -------------------------------------------------------
    Irrep   Nso     Nmo     Nalpha   Nbeta   Ndocc  Nsocc
   -------------------------------------------------------
     A        318     318       0       0       0       0
   -------------------------------------------------------
    Total     318     318      73      73      73       0
   -------------------------------------------------------

  ==> Integral Setup <==

  ==> DiskDFJK: Density-Fitted J/K Matrices <==

    J tasked:                  Yes
    K tasked:                  Yes
    wK tasked:                 Yes
    Omega:               2.000E-01
    OpenMP threads:              1
    Integrals threads:           1
    Memory [MiB]:             2636
    Algorithm:                Core
    Integral Cache:           NONE
    Schwarz Cutoff:          1E-12
    Fitting Condition:       1E-10

   => Auxiliary Basis Set <=

  Basis Set: (6-311G AUX)
    Blend: CC-PVTZ-JKFIT
    Number of shells: 675
    Number of basis function: 2109
    Number of Cartesian functions: 2541
    Spherical Harmonics?: true
    Max angular momentum: 4

  Cached 100.0% of DFT collocation blocks in 3.246 [GiB].

  Minimum eigenvalue in the overlap matrix is 2.5136492513E-04.
  Using Symmetric Orthogonalization.

  SCF Guess: Superposition of Atomic Densities via on-the-fly atomic UHF.

  ==> Iterations <==

                           Total Energy        Delta E     RMS |[F,P]|

   @DF-RKS iter SAD:  -895.01931795570385   -8.95019e+02   0.00000e+00 
   @DF-RKS iter   1:  -895.18369262306260   -1.64375e-01   3.72488e-03 DIIS
   @DF-RKS iter   2:  -895.31584872688063   -1.32156e-01   3.64612e-03 DIIS
   @DF-RKS iter   3:  -895.79978342712695   -4.83935e-01   1.13316e-03 DIIS
   @DF-RKS iter   4:  -895.85705506709189   -5.72716e-02   2.17375e-04 DIIS
   @DF-RKS iter   5:  -895.85966429088489   -2.60922e-03   9.11331e-05 DIIS
   @DF-RKS iter   6:  -895.86033279026560   -6.68499e-04   3.73860e-05 DIIS
   @DF-RKS iter   7:  -895.86062209597208   -2.89306e-04   2.04561e-05 DIIS
   @DF-RKS iter   8:  -895.86075296055776   -1.30865e-04   1.33627e-05 DIIS
   @DF-RKS iter   9:  -895.86079516707855   -4.22065e-05   5.28985e-06 DIIS
   @DF-RKS iter  10:  -895.86079880348166   -3.63640e-06   1.91325e-06 DIIS
   @DF-RKS iter  11:  -895.86079977126735   -9.67786e-07   7.76757e-07 DIIS
   @DF-RKS iter  12:  -895.86079996315402   -1.91887e-07   3.69354e-07 DIIS
   @DF-RKS iter  13:  -895.86080002862616   -6.54721e-08   1.51279e-07 DIIS
   @DF-RKS iter  14:  -895.86080003655593   -7.92977e-09   1.16617e-07 DIIS
   @DF-RKS iter  15:  -895.86080004019323   -3.63730e-09   3.68276e-08 DIIS
   @DF-RKS iter  16:  -895.86080004088069   -6.87464e-10   2.30360e-08 DIIS
   @DF-RKS iter  17:  -895.86080004101450   -1.33809e-10   1.10815e-08 DIIS
   @DF-RKS iter  18:  -895.86080004107021   -5.57066e-11   6.44187e-09 DIIS
  Energy and wave function converged.


  ==> Post-Iterations <==

    Orbital Energies [Eh]
    ---------------------

    Doubly Occupied:                                                      

       1A    -19.208611     2A    -14.469490     3A    -14.439434  
       4A    -14.435245     5A    -10.391182     6A    -10.361648  
       7A    -10.334504     8A    -10.332038     9A    -10.330308  
      10A    -10.314121    11A    -10.308211    12A    -10.307984  
      13A    -10.303444    14A    -10.302759    15A    -10.301953  
      16A    -10.301027    17A    -10.292523    18A    -10.291578  
      19A    -10.288634    20A    -10.287367    21A    -10.286446  
      22A     -1.148991    23A     -1.063637    24A     -1.039997  
      25A     -1.015756    26A     -0.969102    27A     -0.937247  
      28A     -0.903277    29A     -0.870663    30A     -0.856950  
      31A     -0.845129    32A     -0.830339    33A     -0.811506  
      34A     -0.764275    35A     -0.713296    36A     -0.710808  
      37A     -0.703196    38A     -0.693604    39A     -0.690282  
      40A     -0.649474    41A     -0.621522    42A     -0.615277  
      43A     -0.602264    44A     -0.593706    45A     -0.585330  
      46A     -0.571729    47A     -0.562020    48A     -0.540567  
      49A     -0.533934    50A     -0.525857    51A     -0.524234  
      52A     -0.521653    53A     -0.517898    54A     -0.513033  
      55A     -0.505960    56A     -0.501549    57A     -0.486636  
      58A     -0.475193    59A     -0.463050    60A     -0.458716  
      61A     -0.447371    62A     -0.434650    63A     -0.426752  
      64A     -0.410377    65A     -0.398809    66A     -0.347521  
      67A     -0.343068    68A     -0.336988    69A     -0.335020  
      70A     -0.326399    71A     -0.321188    72A     -0.261222  
      73A     -0.246285  

    Virtual:                                                              

      74A     -0.052815    75A      0.056482    76A      0.061445  
      77A      0.068354    78A      0.082655    79A      0.115296  
      80A      0.118727    81A      0.122730    82A      0.130692  
      83A      0.137897    84A      0.145076    85A      0.154637  
      86A      0.156422    87A      0.160346    88A      0.166359  
      89A      0.176652    90A      0.185470    91A      0.196138  
      92A      0.206498    93A      0.209722    94A      0.214578  
      95A      0.224516    96A      0.229226    97A      0.244467  
      98A      0.278621    99A      0.286818   100A      0.302704  
     101A      0.312361   102A      0.323552   103A      0.328773  
     104A      0.334432   105A      0.345351   106A      0.351278  
     107A      0.355235   108A      0.366071   109A      0.374721  
     110A      0.378946   111A      0.386455   112A      0.388956  
     113A      0.397047   114A      0.416509   115A      0.424049  
     116A      0.434078   117A      0.438691   118A      0.450763  
     119A      0.456311   120A      0.461944   121A      0.468621  
     122A      0.477358   123A      0.482082   124A      0.483867  
     125A      0.486044   126A      0.489764   127A      0.494258  
     128A      0.500113   129A      0.501764   130A      0.507669  
     131A      0.515010   132A      0.519182   133A      0.521963  
     134A      0.531569   135A      0.536898   136A      0.537738  
     137A      0.545409   138A      0.551208   139A      0.555552  
     140A      0.557665   141A      0.568985   142A      0.587673  
     143A      0.590702   144A      0.594960   145A      0.597507  
     146A      0.603499   147A      0.609635   148A      0.620155  
     149A      0.625155   150A      0.634930   151A      0.639890  
     152A      0.645060   153A      0.656539   154A      0.664328  
     155A      0.669583   156A      0.681633   157A      0.689554  
     158A      0.697608   159A      0.698835   160A      0.708460  
     161A      0.709868   162A      0.719755   163A      0.723163  
     164A      0.726937   165A      0.734419   166A      0.738186  
     167A      0.744636   168A      0.749195   169A      0.757502  
     170A      0.759687   171A      0.766457   172A      0.770494  
     173A      0.779084   174A      0.783605   175A      0.796460  
     176A      0.805645   177A      0.833224   178A      0.839469  
     179A      0.842803   180A      0.851442   181A      0.860574  
     182A      0.862760   183A      0.868183   184A      0.882349  
     185A      0.885853   186A      0.904018   187A      0.909160  
     188A      0.925207   189A      0.935787   190A      0.939101  
     191A      0.951288   192A      0.964569   193A      0.972218  
     194A      0.984649   195A      0.988023   196A      0.997712  
     197A      1.007442   198A      1.021183   199A      1.034822  
     200A      1.043966   201A      1.056609   202A      1.061499  
     203A      1.078985   204A      1.088782   205A      1.105614  
     206A      1.121644   207A      1.134739   208A      1.155323  
     209A      1.157955   210A      1.185769   211A      1.226288  
     212A      1.239957   213A      1.291876   214A      1.353481  
     215A      1.372437   216A      1.443268   217A      1.482818  
     218A      1.633627   219A      1.851786   220A      2.271639  
     221A      2.298633   222A      2.321381   223A      2.343807  
     224A      2.355900   225A      2.361899   226A      2.373482  
     227A      2.377096   228A      2.401812   229A      2.416946  
     230A      2.448855   231A      2.454787   232A      2.470475  
     233A      2.576859   234A      2.615045   235A      2.624178  
     236A      2.638203   237A      2.653266   238A      2.662644  
     239A      2.673851   240A      2.676892   241A      2.700615  
     242A      2.723631   243A      2.767313   244A      2.777027  
     245A      2.795132   246A      2.798006   247A      2.811904  
     248A      2.829064   249A      2.833575   250A      2.838950  
     251A      2.844683   252A      2.852764   253A      2.858156  
     254A      2.876241   255A      2.920655   256A      2.945271  
     257A      2.955057   258A      2.963482   259A      2.968938  
     260A      3.010918   261A      3.020470   262A      3.047086  
     263A      3.069593   264A      3.107040   265A      3.138682  
     266A      3.145410   267A      3.166700   268A      3.174761  
     269A      3.201220   270A      3.207001   271A      3.235980  
     272A      3.245351   273A      3.265020   274A      3.278484  
     275A      3.285558   276A      3.303650   277A      3.316718  
     278A      3.334005   279A      3.343217   280A      3.357750  
     281A      3.358263   282A      3.362481   283A      3.435580  
     284A      3.507384   285A      3.532073   286A      3.824386  
     287A      3.836675   288A      4.002819   289A      4.078792  
     290A      4.097518   291A      4.102582   292A      4.166455  
     293A      4.226147   294A      4.285567   295A      5.004207  
     296A      5.084415   297A      5.115815   298A     23.239189  
     299A     23.243915   300A     23.353817   301A     23.469111  
     302A     23.477101   303A     23.487175   304A     23.509060  
     305A     23.531169   306A     23.613215   307A     23.708716  
     308A     23.722959   309A     23.741568   310A     23.755439  
     311A     23.794599   312A     23.856269   313A     23.983298  
     314A     23.992142   315A     35.509356   316A     35.540854  
     317A     35.624178   318A     50.089538  

    Final Occupation by Irrep:
              A 
    DOCC [    73 ]

  @DF-RKS Final Energy:  -895.86080004107021

   => Energetics <=

    Nuclear Repulsion Energy =           1516.0038981653481187
    One-Electron Energy =               -4225.2804388139920775
    Two-Electron Energy =                1901.0246314146077111
    DFT Exchange-Correlation Energy =     -87.5840379647986822
    Empirical Dispersion Energy =          -0.0248528422351023
    VV10 Nonlocal Energy =                  0.0000000000000000
    Total Energy =                       -895.8608000410702061

Computation Completed


Properties will be evaluated at   0.000000,   0.000000,   0.000000 [a0]

Properties computed using the SCF density matrix

  Nuclear Dipole Moment: [e a0]
     X:     3.0961      Y:    -4.0281      Z:     3.7260

  Electronic Dipole Moment: [e a0]
     X:    -3.1035      Y:     4.6107      Z:    -2.0889

  Dipole Moment: [e a0]
     X:    -0.0074      Y:     0.5826      Z:     1.6371     Total:     1.7377

  Dipole Moment: [D]
     X:    -0.0189      Y:     1.4809      Z:     4.1612     Total:     4.4169


*** tstop() called on node44.bme.utexas.edu at Sun Nov  7 01:32:59 2021
Module time:
	user time   =     577.46 seconds =       9.62 minutes
	system time =      17.70 seconds =       0.29 minutes
	total time  =        595 seconds =       9.92 minutes
Total time:
	user time   =     577.46 seconds =       9.62 minutes
	system time =      17.70 seconds =       0.29 minutes
	total time  =        595 seconds =       9.92 minutes

*** tstart() called on node44.bme.utexas.edu
*** at Sun Nov  7 01:32:59 2021


         ------------------------------------------------------------
                                   SCF GRAD                          
                          Rob Parrish, Justin Turney,                
                       Andy Simmonett, and Alex Sokolov              
         ------------------------------------------------------------

  ==> Geometry <==

    Molecular point group: c1
    Full point group: C1

    Geometry (in Angstrom), charge = 0, multiplicity = 1:

       Center              X                  Y                   Z               Mass       
    ------------   -----------------  -----------------  -----------------  -----------------
         C           -0.866373811787     1.652882873886     0.134284616657    12.000000000000
         C           -0.889851811787     0.304685873886     0.428102616657    12.000000000000
         N            0.158543188213    -0.289995126114     1.174182616657    14.003074004430
         C            1.511762188213    -0.600093126114     0.803842616657    12.000000000000
         H            0.072609188213    -0.075376126114     2.168018616657     1.007825032230
         C           -1.150883811787     2.744037873886     1.049620616657    12.000000000000
         N           -0.708082811787     3.637288873886    -0.977464383343    14.003074004430
         C           -0.575944811787     2.275271873886    -1.205001383343    12.000000000000
         C           -1.041097811787     3.901261873886     0.343726616657    12.000000000000
         C           -2.010573811787    -0.609994126114     0.101955616657    12.000000000000
         C           -3.342442811787    -0.292602126114     0.468107616657    12.000000000000
         C           -1.749221811787    -1.857076126114    -0.518567383343    12.000000000000
         C           -4.385035811787    -1.187557126114     0.195496616657    12.000000000000
         C           -2.793775811787    -2.749291126114    -0.789263383343    12.000000000000
         C           -4.118465811787    -2.419441126114    -0.436566383343    12.000000000000
         C            2.125918188213    -1.732290126114     1.393255616657    12.000000000000
         C            2.266357188213     0.158163873886    -0.124077383343    12.000000000000
         C            3.447863188213    -2.078525126114     1.081970616657    12.000000000000
         C            3.588178188213    -0.192773126114    -0.432289383343    12.000000000000
         C            4.213281188213    -1.311206126114     0.170799616657    12.000000000000
         H           -0.569327811787     4.312581873886    -1.715478383343     1.007825032230
         O           -0.264945811787     1.796704873886    -2.295112383343    15.994914619570
         H           -3.555732811787     0.654273873886     0.966647616657     1.007825032230
         H           -0.724493811787    -2.119861126114    -0.785972383343     1.007825032230
         H           -5.405708811787    -0.925428126114     0.478225616657     1.007825032230
         H           -2.575411811787    -3.702157126114    -1.273740383343     1.007825032230
         H           -4.932271811787    -3.114835126114    -0.649258383343     1.007825032230
         H            1.568465188213    -2.352937126114     2.098733616657     1.007825032230
         H            1.835931188213     1.024353873886    -0.624645383343     1.007825032230
         H            3.882813188213    -2.960898126114     1.556801616657     1.007825032230
         H            4.133495188213     0.416548873886    -1.156544383343     1.007825032230
         N            5.558156188213    -1.666889126114    -0.146180383343    14.003074004430
         H           -1.404153811787     2.650389873886     2.095981616657     1.007825032230
         H           -1.175604811787     4.925001873886     0.665517616657     1.007825032230
         H            6.039982188213    -2.156543126114     0.608348616657     1.007825032230
         H            6.128885188213    -0.875890126114    -0.446158383343     1.007825032230

  Nuclear repulsion = 1516.003898165348119

  ==> Basis Set <==

  Basis Set: 6-311G
    Blend: 6-311G
    Number of shells: 192
    Number of basis function: 318
    Number of Cartesian functions: 318
    Spherical Harmonics?: true
    Max angular momentum: 1

  ==> DFJKGrad: Density-Fitted SCF Gradients <==

    Gradient:                    1
    J tasked:                  Yes
    K tasked:                  Yes
    wK tasked:                 Yes
    Omega:               2.000E-01
    OpenMP threads:              1
    Integrals threads:           1
    Memory [MiB]:             5960
    Schwarz Cutoff:          0E+00
    Fitting Condition:       1E-10

   => Auxiliary Basis Set <=

  Basis Set: (6-311G AUX)
    Blend: CC-PVTZ-JKFIT
    Number of shells: 675
    Number of basis function: 2109
    Number of Cartesian functions: 2541
    Spherical Harmonics?: true
    Max angular momentum: 4

  ==> DFT Potential <==

   => Composite Functional: WB97X-D <= 

    wB97X-D Hyb-GGA Exchange-Correlation Functional

    J.-D. Chai and M. Head-Gordon, Phys. Chem. Chem. Phys. 10, 6615 (2008)

    Deriv               =              1
    GGA                 =           TRUE
    Meta                =          FALSE

    Exchange Hybrid     =           TRUE
    MP2 Hybrid          =          FALSE

   => Exchange-Correlation Functionals <=

    1.0000   wB97D range-separated functional

   => Exact (HF) Exchange <=

    0.7780            HF,LR [omega = 0.2000]
    0.2220               HF 

   => Molecular Quadrature <=

    Radial Scheme          =       TREUTLER
    Pruning Scheme         =           FLAT
    Nuclear Scheme         =       TREUTLER

    BS radius alpha        =              1
    Pruning alpha          =              1
    Radial Points          =             75
    Spherical Points       =            302
    Total Points           =         806667
    Total Blocks           =           5745
    Max Points             =            256
    Max Functions          =            224


  -Total Gradient:
     Atom            X                  Y                   Z
    ------   -----------------  -----------------  -----------------
       1        0.010087556707    -0.025598794048     0.014510695022
       2       -0.002291427156     0.032618821462     0.012567396968
       3        0.003903846832    -0.004525196784    -0.045326117304
       4       -0.009499187481    -0.007330335486     0.014582728805
       5        0.000335753142     0.015605126750     0.001081717344
       6       -0.036263923445     0.001794355142    -0.001970349221
       7       -0.010013548098    -0.009897864796    -0.001759872978
       8        0.046169194381    -0.001965530581    -0.016191091685
       9        0.001538911267    -0.013142819859    -0.000435423808
      10       -0.008463641429     0.003535529429     0.015287425599
      11       -0.003629191901    -0.002635212323     0.008007899043
      12        0.005502331817     0.003978752991    -0.004274748035
      13       -0.002793189438     0.006432054603     0.001623091436
      14        0.001269783760    -0.003626609324    -0.002120217781
      15       -0.005180443155    -0.007237788239    -0.002441818862
      16        0.000723577227    -0.006598245079     0.004738591392
      17        0.000041444988     0.006702727380    -0.004234192355
      18       -0.001124829980    -0.004938613061     0.002092245457
      19        0.000671403986     0.005933314137    -0.002319888760
      20        0.004688668932    -0.001293163590    -0.000620081977
      21        0.001700310971     0.004074163913    -0.006338677474
      22       -0.012501917896     0.015090939662     0.013562462715
      23       -0.002567988721     0.004466547115     0.003904614920
      24        0.006205521580    -0.003134717021    -0.001943684790
      25       -0.006022236684     0.002217304699     0.001507453997
      26        0.002088772661    -0.005772212341    -0.002472968405
      27       -0.004978972293    -0.004441779393    -0.001333021951
      28       -0.001409794104    -0.005238361041     0.005522364636
      29        0.000287886695     0.005250191252    -0.004202536531
      30        0.001179192817    -0.005188992167     0.003485908677
      31        0.002006761095     0.004523097228    -0.004236716727
      32        0.000962197188    -0.013840620609    -0.016888581741
      33       -0.000835108262     0.000239198681     0.003580106985
      34        0.005617126780     0.004502410931     0.000602767612
      35        0.006063725112     0.001201224372     0.008966817738
      36        0.006634141524     0.008124370791     0.003490288931


*** tstop() called on node44.bme.utexas.edu at Sun Nov  7 01:37:10 2021
Module time:
	user time   =     247.65 seconds =       4.13 minutes
	system time =       2.97 seconds =       0.05 minutes
	total time  =        251 seconds =       4.18 minutes
Total time:
	user time   =     825.11 seconds =      13.75 minutes
	system time =      20.67 seconds =       0.34 minutes
	total time  =        846 seconds =      14.10 minutes

			-----------------------------------------
			 OPTKING 2.0: for geometry optimizations 
			  - R.A. King,  Bethel University        
			-----------------------------------------
	At level 1: Red. Int., RFO, no backsteps, dynamic trust

	Internal coordinates to be generated automatically.
	Detected frag 1 with atoms:  1 2 3 4 5 6 7 8 9 10 11 12 13 14 15 16 17 18 19 20
	 21 22 23 24 25 26 27 28 29 30 31 32 33 34 35 36
	---Fragment 1 Bond Connectivity---
	 1 : 2 6 8
	 2 : 1 3 10
	 3 : 2 4 5
	 4 : 3 16 17
	 5 : 3
	 6 : 1 9 33
	 7 : 8 9 21
	 8 : 1 7 22
	 9 : 6 7 34
	 10 : 2 11 12
	 11 : 10 13 23
	 12 : 10 14 24
	 13 : 11 15 25
	 14 : 12 15 26
	 15 : 13 14 27
	 16 : 4 18 28
	 17 : 4 19 29
	 18 : 16 20 30
	 19 : 17 20 31
	 20 : 18 19 32
	 21 : 7
	 22 : 8
	 23 : 11
	 24 : 12
	 25 : 13
	 26 : 14
	 27 : 15
	 28 : 16
	 29 : 17
	 30 : 18
	 31 : 19
	 32 : 20 35 36
	 33 : 6
	 34 : 9
	 35 : 32
	 36 : 32

	Assuming in current code that numbering for constraints corresponds to unified fragment.
	Frozen dihedral atom list: 
	    16     4     3     2
	     1     2    10    11
	     1     2    10    12
	     3     2    10    11
	     1     2     3     4
	    10     2     3     4
	    18    20    32    35
	---Fragment 1 Geometry and Gradient---
	 C          -1.6372092265        3.1234959491        0.2537611483
	 C          -1.6815762165        0.5757728559        0.8089966991
	 N           0.2996032048       -0.5480113661        2.2188835668
	 C           2.8568165025       -1.1340116581        1.5190423935
	 H           0.1372114799       -0.1424402348        4.0969614204
	 C          -2.1748552065        5.1854800595        1.9834955011
	 N          -1.3380825884        6.8734798108       -1.8471399819
	 C          -1.0883779577        4.2996407026       -2.2771225953
	 C          -1.9673897341        7.3723164853        0.6495491675
	 C          -3.7994338593       -1.1527218365        0.1926681924
	 C          -6.3163015043       -0.5529378821        0.8845951927
	 C          -3.3055501570       -3.5093652725       -0.9799503321
	 C          -8.2865167346       -2.2441577267        0.3694350639
	 C          -5.2794711402       -5.1954072675       -1.4914916354
	 C          -7.7827724413       -4.5720811050       -0.8249909001
	 C           4.0174031409       -3.2735539082        2.6328715382
	 C           4.2827943882        0.2988864046       -0.2344722729
	 C           6.5155171438       -3.9278432332        2.0446281413
	 C           6.7806740651       -0.3642884127       -0.8169085415
	 C           7.9619475353       -2.4778204724        0.3227644978
	 H          -1.0758736399        8.1495986353       -3.2417843187
	 O          -0.5006750224        3.3952801399       -4.3371338317
	 H          -6.7193611896        1.2363984327        1.8266992553
	 H          -1.3690948839       -4.0059569524       -1.4852725467
	 H         -10.2153091683       -1.7488057072        0.9037154417
	 H          -4.8668229845       -6.9960630418       -2.4070204795
	 H          -9.3206429006       -5.8861853143       -1.2269205292
	 H           2.9639696430       -4.4464067588        3.9660317458
	 H           3.4694071309        1.9357482772       -1.1804087001
	 H           7.3374535220       -5.5952865437        2.9419286872
	 H           7.8111738466        0.7871632895       -2.1855521365
	 N          10.5033929582       -3.1499639299       -0.2762408894
	 H          -2.6534661423        5.0085109873        3.9608312195
	 H          -2.2215711260        9.3069047090        1.2576460271
	 H          11.4139121384       -4.0752758861        1.1496122743
	 H          11.5819144601       -1.6551924543       -0.8431171531
	             0.0100875567       -0.0255987940        0.0145106950
	            -0.0022914272        0.0326188215        0.0125673970
	             0.0039038468       -0.0045251968       -0.0453261173
	            -0.0094991875       -0.0073303355        0.0145827288
	             0.0003357531        0.0156051268        0.0010817173
	            -0.0362639234        0.0017943551       -0.0019703492
	            -0.0100135481       -0.0098978648       -0.0017598730
	             0.0461691944       -0.0019655306       -0.0161910917
	             0.0015389113       -0.0131428199       -0.0004354238
	            -0.0084636414        0.0035355294        0.0152874256
	            -0.0036291919       -0.0026352123        0.0080078990
	             0.0055023318        0.0039787530       -0.0042747480
	            -0.0027931894        0.0064320546        0.0016230914
	             0.0012697838       -0.0036266093       -0.0021202178
	            -0.0051804432       -0.0072377882       -0.0024418189
	             0.0007235772       -0.0065982451        0.0047385914
	             0.0000414450        0.0067027274       -0.0042341924
	            -0.0011248300       -0.0049386131        0.0020922455
	             0.0006714040        0.0059333141       -0.0023198888
	             0.0046886689       -0.0012931636       -0.0006200820
	             0.0017003110        0.0040741639       -0.0063386775
	            -0.0125019179        0.0150909397        0.0135624627
	            -0.0025679887        0.0044665471        0.0039046149
	             0.0062055216       -0.0031347170       -0.0019436848
	            -0.0060222367        0.0022173047        0.0015074540
	             0.0020887727       -0.0057722123       -0.0024729684
	            -0.0049789723       -0.0044417794       -0.0013330220
	            -0.0014097941       -0.0052383610        0.0055223646
	             0.0002878867        0.0052501913       -0.0042025365
	             0.0011791928       -0.0051889922        0.0034859087
	             0.0020067611        0.0045230972       -0.0042367167
	             0.0009621972       -0.0138406206       -0.0168885817
	            -0.0008351083        0.0002391987        0.0035801070
	             0.0056171268        0.0045024109        0.0006027676
	             0.0060637251        0.0012012244        0.0089668177
	             0.0066341415        0.0081243708        0.0034902889

	Previous optimization step data not found.  Starting new optimization.

	---Fragment 1 Intrafragment Coordinates---
	 - Coordinate -           - BOHR/RAD -       - ANG/DEG -
	 R(1,2)           =         2.607901	       1.380042
	 R(1,6)           =         2.744599	       1.452379
	 R(1,8)           =         2.844276	       1.505126
	 R(2,3)           =         2.678758	       1.417538
	 R(2,10)          =         2.802298	       1.482912
	 R(3,4)           =         2.715237	       1.436842
	 R(3,5)           =         1.928221	       1.020370
	 R(4,16)          =         2.676792	       1.416498
	 R(4,17)          =         2.676084	       1.416122
	 R(6,9)           =         2.569963	       1.359966
	 R(6,33)          =         2.042117	       1.080642
	 R(7,8)           =         2.621428	       1.387200
	 R(7,9)           =         2.622656	       1.387850
	 R(7,21)          =         1.908472	       1.009920
	 R(8,22)          =         2.325276	       1.230483
	 R(9,34)          =         2.043776	       1.081520
	 R(10,11)         =         2.678269	       1.417279
	 R(10,12)         =         2.678194	       1.417239
	 R(11,13)         =         2.647142	       1.400807
	 R(11,23)         =         2.061975	       1.091150
	 R(12,14)         =         2.645898	       1.400149
	 R(12,24)         =         2.061992	       1.091159
	 R(13,15)         =         2.664515	       1.410000
	 R(13,25)         =         2.061812	       1.091064
	 R(14,15)         =         2.664447	       1.409964
	 R(14,26)         =         2.061755	       1.091034
	 R(15,27)         =         2.062393	       1.091371
	 R(16,18)         =         2.648528	       1.401540
	 R(16,28)         =         2.064612	       1.092546
	 R(17,19)         =         2.649233	       1.401914
	 R(17,29)         =         2.058084	       1.089091
	 R(18,20)         =         2.675732	       1.415936
	 R(18,30)         =         2.064242	       1.092350
	 R(19,20)         =         2.676057	       1.416108
	 R(19,31)         =         2.064208	       1.092332
	 R(20,32)         =         2.696206	       1.426771
	 R(32,35)         =         1.928291	       1.020407
	 R(32,36)         =         1.928445	       1.020489
	 B(1,2,3)         =         2.105180	     120.617923
	 B(1,2,10)        =         2.175614	     124.653478
	 B(1,6,9)         =         1.871665	     107.238478
	 B(1,6,33)        =         2.203149	     126.231157
	 B(1,8,7)         =         1.814885	     103.985273
	 B(1,8,22)        =         2.313458	     132.551379
	 B(2,1,6)         =         2.209854	     126.615322
	 B(2,1,8)         =         2.210179	     126.633935
	 B(2,3,4)         =         2.280262	     130.649370
	 B(2,3,5)         =         1.941325	     111.229738
	 B(2,10,11)       =         2.112108	     121.014870
	 B(2,10,12)       =         2.094032	     119.979191
	 B(3,2,10)        =         1.999776	     114.578749
	 B(3,4,16)        =         2.064163	     118.267802
	 B(3,4,17)        =         2.159373	     123.722948
	 B(4,3,5)         =         1.956007	     112.070949
	 B(4,16,18)       =         2.110625	     120.929899
	 B(4,16,28)       =         2.096153	     120.100746
	 B(4,17,19)       =         2.108819	     120.826409
	 B(4,17,29)       =         2.113474	     121.093140
	 B(6,1,8)         =         1.862854	     106.733656
	 B(6,9,7)         =         1.930125	     110.587988
	 B(6,9,34)        =         2.266577	     129.865271
	 B(7,8,22)        =         2.154664	     123.453160
	 B(7,9,34)        =         2.086479	     119.546441
	 B(8,7,9)         =         1.945240	     111.454017
	 B(8,7,21)        =         2.121831	     121.571985
	 B(9,6,33)        =         2.208370	     126.530280
	 B(9,7,21)        =         2.216114	     126.973988
	 B(10,11,13)      =         2.101424	     120.402748
	 B(10,11,23)      =         2.089857	     119.739991
	 B(10,12,14)      =         2.103420	     120.517103
	 B(10,12,24)      =         2.085638	     119.498279
	 B(11,10,12)      =         2.075409	     118.912181
	 B(11,13,15)      =         2.099837	     120.311821
	 B(11,13,25)      =         2.085572	     119.494494
	 B(12,14,15)      =         2.098412	     120.230143
	 B(12,14,26)      =         2.086408	     119.542387
	 B(13,11,23)      =         2.091903	     119.857202
	 B(13,15,14)      =         2.087648	     119.613420
	 B(13,15,27)      =         2.097945	     120.203409
	 B(14,12,24)      =         2.094127	     119.984616
	 B(14,15,27)      =         2.097589	     120.182976
	 B(15,13,25)      =         2.097773	     120.193518
	 B(15,14,26)      =         2.098364	     120.227415
	 B(16,4,17)       =         2.059633	     118.008295
	 B(16,18,20)      =         2.116389	     121.260141
	 B(16,18,30)      =         2.069824	     118.592182
	 B(17,19,20)      =         2.117977	     121.351124
	 B(17,19,31)      =         2.067845	     118.478814
	 B(18,16,28)      =         2.076400	     118.968947
	 B(18,20,19)      =         2.052667	     117.609134
	 B(18,20,32)      =         2.114625	     121.159069
	 B(19,17,29)      =         2.060860	     118.078584
	 B(19,20,32)      =         2.115728	     121.222278
	 B(20,18,30)      =         2.096970	     120.147526
	 B(20,19,31)      =         2.097359	     120.169797
	 B(20,32,35)      =         1.982787	     113.605304
	 B(20,32,36)      =         1.981489	     113.530942
	 B(35,32,36)      =         1.902050	     108.979459
	*D(1,2,3,4)       =        -1.272586	     -72.913822
	 D(1,2,3,5)       =         1.343067	      76.952061
	*D(1,2,10,11)     =        -0.895404	     -51.302863
	*D(1,2,10,12)     =         2.308306	     132.256218
	 D(1,6,9,7)       =         0.004285	       0.245512
	 D(1,6,9,34)      =        -3.140864	    -179.958236
	 D(1,8,7,9)       =         0.002265	       0.129764
	 D(1,8,7,21)      =        -3.138729	    -179.835919
	 D(2,1,6,9)       =        -3.119434	    -178.730395
	 D(2,1,6,33)      =         0.020396	       1.168616
	 D(2,1,8,7)       =         3.116961	     178.588704
	 D(2,1,8,22)      =        -0.045004	      -2.578560
	*D(2,3,4,16)      =        -2.582483	    -147.965390
	 D(2,3,4,17)      =         0.552772	      31.671490
	 D(2,10,11,13)    =        -3.102212	    -177.743646
	 D(2,10,11,23)    =         0.037831	       2.167568
	 D(2,10,12,14)    =         3.102659	     177.769280
	 D(2,10,12,24)    =        -0.039158	      -2.243589
	 D(3,2,1,6)       =        -1.314030	     -75.288384
	 D(3,2,1,8)       =         1.857343	     106.417887
	*D(3,2,10,11)     =         2.168627	     124.253182
	 D(3,2,10,12)     =        -0.910848	     -52.187738
	 D(3,4,16,18)     =        -3.130753	    -179.378923
	 D(3,4,16,28)     =         0.014938	       0.855905
	 D(3,4,17,19)     =         3.131498	     179.421591
	 D(3,4,17,29)     =        -0.018937	      -1.085024
	*D(4,3,2,10)      =         1.943139	     111.333658
	 D(4,16,18,20)    =         0.000259	       0.014816
	 D(4,16,18,30)    =        -3.138872	    -179.844119
	 D(4,17,19,20)    =        -0.001034	      -0.059252
	 D(4,17,19,31)    =         3.137296	     179.753841
	 D(5,3,2,10)      =        -1.724393	     -98.800459
	 D(5,3,4,16)      =         1.088445	      62.363317
	 D(5,3,4,17)      =        -2.059485	    -117.999802
	 D(6,1,2,10)      =         1.745592	     100.015071
	 D(6,1,8,7)       =         0.000327	       0.018754
	 D(6,1,8,22)      =         3.121547	     178.851490
	 D(6,9,7,8)       =        -0.004276	      -0.244975
	 D(6,9,7,21)      =         3.136678	     179.718429
	 D(7,9,6,33)      =        -3.135538	    -179.653110
	 D(8,1,2,10)      =        -1.366220	     -78.278657
	 D(8,1,6,9)       =        -0.002794	      -0.160100
	 D(8,1,6,33)      =         3.137036	     179.738912
	 D(8,7,9,34)      =         3.140455	     179.934791
	 D(9,7,8,22)      =        -3.121340	    -178.839626
	 D(10,11,13,15)   =         0.009250	       0.529970
	 D(10,11,13,25)   =        -3.134932	    -179.618356
	 D(10,12,14,15)   =        -0.008804	      -0.504439
	 D(10,12,14,26)   =         3.134282	     179.581149
	 D(11,10,12,14)   =         0.021882	       1.253748
	 D(11,10,12,24)   =        -3.119935	    -178.759121
	 D(11,13,15,14)   =         0.004151	       0.237852
	 D(11,13,15,27)   =        -3.140242	    -179.922598
	 D(12,10,11,13)   =        -0.022086	      -1.265457
	 D(12,10,11,23)   =         3.117957	     178.645757
	 D(12,14,15,13)   =        -0.004378	      -0.250835
	 D(12,14,15,27)   =         3.140015	     179.909582
	 D(13,15,14,26)   =         3.135711	     179.662987
	 D(14,15,13,25)   =        -3.134834	    -179.612780
	 D(15,13,11,23)   =        -3.130792	    -179.381140
	 D(15,14,12,24)   =         3.133014	     179.508492
	 D(16,4,17,19)    =        -0.016417	      -0.940649
	 D(16,4,17,29)    =         3.116333	     178.552735
	 D(16,18,20,19)   =        -0.017569	      -1.006629
	 D(16,18,20,32)   =        -3.139804	    -179.897527
	 D(17,4,16,18)    =         0.016810	       0.963159
	 D(17,4,16,28)    =        -3.120684	    -178.802013
	 D(17,19,20,18)   =         0.017964	       1.029234
	 D(17,19,20,32)   =         3.140186	     179.919390
	 D(18,20,19,31)   =        -3.120312	    -178.780734
	*D(18,20,32,35)   =        -0.500852	     -28.696695
	 D(18,20,32,36)   =        -2.687203	    -153.965412
	 D(19,20,18,30)   =         3.121524	     178.850134
	 D(19,20,32,35)   =         2.660799	     152.452576
	 D(19,20,32,36)   =         0.474448	      27.183859
	 D(20,18,16,28)   =         3.137798	     179.782602
	 D(20,19,17,29)   =        -3.134045	    -179.567551
	 D(21,7,8,22)     =         0.020851	       1.194691
	 D(21,7,9,34)     =        -0.001777	      -0.101806
	 D(23,11,13,25)   =         0.008212	       0.470534
	 D(24,12,14,26)   =        -0.007085	      -0.405919
	 D(25,13,15,27)   =         0.003958	       0.226770
	 D(26,14,15,27)   =        -0.003082	      -0.176597
	 D(28,16,18,30)   =        -0.001332	      -0.076333
	 D(29,17,19,31)   =         0.004286	       0.245542
	 D(30,18,20,32)   =        -0.000711	      -0.040763
	 D(31,19,20,32)   =         0.001910	       0.109422
	 D(33,6,9,34)     =         0.002498	       0.143142
	 R(1,17)          =         6.577479	       3.480652
	 R(4,12)          =         7.061305	       3.736682
	 R(6,11)          =         7.161606	       3.789759
	 R(8,17)          =         7.001996	       3.705297

	Current energy   :      -895.8608000411

	Generating empirical Hessian (Schlegel '84) for each fragment.
	Taking RFO optimization step.
	Going to follow RFO solution 1.
	Using RFO vector 1.

	Determining step-restricting scale parameter for RS-RFO.
	Maximum step size allowed    0.50000

	 Iter      |step|        alpha        rfo_root  
	------------------------------------------------
	    0     0.72480       1.00000           1
	    1     0.57115       1.70735           1
	    2     0.51143       2.17890           1
	    3     0.50039       2.28600           1
	    4     0.50000       2.28988           1
	------------------------------------------------
	Norm of target step-size    0.50000
	Projected energy change by RFO approximation:        -0.0377678678

	Back-transformation to cartesian coordinates...
	Could not converge backtransformation.
	Using first guess instead.

	Back-transformation to cartesian coordinates to adjust frozen coordinates...

	--- Internal Coordinate Step in ANG or DEG, aJ/ANG or AJ/DEG ---
	 ---------------------------------------------------------------------------
	   Coordinate                Previous        Force       Change         New 
	   ----------                --------       ------       ------       ------
	    1 R(1,2)          =      1.380042     0.211509     0.020430     1.400472
	    2 R(1,6)          =      1.452379    -0.044446     0.002071     1.454450
	    3 R(1,8)          =      1.505126    -0.123362    -0.005788     1.499338
	    4 R(2,3)          =      1.417538     0.101097     0.018457     1.435995
	    5 R(2,10)         =      1.482912    -0.143917    -0.023609     1.459303
	    6 R(3,4)          =      1.436842    -0.011874     0.005429     1.442271
	    7 R(3,5)          =      1.020370    -0.035497     0.002485     1.022855
	    8 R(4,16)         =      1.416498    -0.147852    -0.014184     1.402314
	    9 R(4,17)         =      1.416122    -0.108843    -0.006328     1.409795
	   10 R(6,9)          =      1.359966     0.017829     0.007720     1.367686
	   11 R(6,33)         =      1.080642    -0.029997     0.009942     1.090584
	   12 R(7,8)          =      1.387200     0.081206     0.013745     1.400945
	   13 R(7,9)          =      1.387850    -0.012296     0.015256     1.403105
	   14 R(7,21)         =      1.009920    -0.062551    -0.000877     1.009043
	   15 R(8,22)         =      1.230483     0.173387     0.022944     1.253428
	   16 R(9,34)         =      1.081520    -0.030859    -0.002784     1.078736
	   17 R(10,11)        =      1.417279    -0.128521    -0.009651     1.407628
	   18 R(10,12)        =      1.417239    -0.087655    -0.011044     1.406195
	   19 R(11,13)        =      1.400807    -0.074295    -0.003723     1.397084
	   20 R(11,23)        =      1.091150    -0.050790    -0.006170     1.084980
	   21 R(12,14)        =      1.400149    -0.095278    -0.005869     1.394280
	   22 R(12,24)        =      1.091159    -0.058131    -0.002543     1.088616
	   23 R(13,15)        =      1.410000    -0.119060    -0.012784     1.397217
	   24 R(13,25)        =      1.091064    -0.054048    -0.001905     1.089159
	   25 R(14,15)        =      1.409964    -0.096485    -0.002957     1.407007
	   26 R(14,26)        =      1.091034    -0.054001    -0.006904     1.084130
	   27 R(15,27)        =      1.091371    -0.056047    -0.004146     1.087225
	   28 R(16,18)        =      1.401540    -0.092418    -0.004168     1.397373
	   29 R(16,28)        =      1.092546    -0.059815    -0.003991     1.088555
	   30 R(17,19)        =      1.401914    -0.093376    -0.004169     1.397745
	   31 R(17,29)        =      1.089091    -0.049412    -0.003427     1.085664
	   32 R(18,20)        =      1.415936    -0.132708    -0.009543     1.406393
	   33 R(18,30)        =      1.092350    -0.050851    -0.004087     1.088263
	   34 R(19,20)        =      1.416108    -0.134914    -0.012023     1.404085
	   35 R(19,31)        =      1.092332    -0.052190    -0.002661     1.089671
	   36 R(20,32)        =      1.426771    -0.123378    -0.008751     1.418020
	   37 R(32,35)        =      1.020407    -0.073441    -0.003523     1.016885
	   38 R(32,36)        =      1.020489    -0.074012    -0.004357     1.016132
	   39 B(1,2,3)        =    120.617923    -0.000125    -0.604120   120.013804
	   40 B(1,2,10)       =    124.653478    -0.000107    -0.531641   124.121838
	   41 B(1,6,9)        =    107.238478     0.000403     0.158682   107.397160
	   42 B(1,6,33)       =    126.231157    -0.000246    -0.015884   126.215274
	   43 B(1,8,7)        =    103.985273     0.000093    -0.567908   103.417365
	   44 B(1,8,22)       =    132.551379    -0.000763    -1.288003   131.263377
	   45 B(2,1,6)        =    126.615322     0.000371     0.141506   126.756828
	   46 B(2,1,8)        =    126.633935    -0.000434    -1.047757   125.586178
	   47 B(2,3,4)        =    130.649370    -0.001521    -4.439728   126.209642
	   48 B(2,3,5)        =    111.229738     0.001105     3.639256   114.868994
	   49 B(2,10,11)      =    121.014870    -0.000919    -3.121589   117.893281
	   50 B(2,10,12)      =    119.979191     0.000697     2.059718   122.038908
	   51 B(3,2,10)       =    114.578749     0.000232     1.137152   115.715901
	   52 B(3,4,16)       =    118.267802    -0.000903    -1.764106   116.503696
	   53 B(3,4,17)       =    123.722948     0.000962     1.812172   125.535120
	   54 B(4,3,5)        =    112.070949     0.000436     1.740869   113.811818
	   55 B(4,16,18)      =    120.929899     0.000113     0.192128   121.122027
	   56 B(4,16,28)      =    120.100746    -0.000259    -0.732465   119.368281
	   57 B(4,17,19)      =    120.826409     0.000039     0.068356   120.894766
	   58 B(4,17,29)      =    121.093140    -0.000259    -0.757152   120.335988
	   59 B(6,1,8)        =    106.733656     0.000067     0.922374   107.656030
	   60 B(6,9,7)        =    110.587988    -0.000491    -0.884010   109.703978
	   61 B(6,9,34)       =    129.865271     0.000087    -0.287244   129.578027
	   62 B(7,8,22)       =    123.453160     0.000663     1.728485   125.181645
	   63 B(7,9,34)       =    119.546441     0.000404     1.171251   120.717693
	   64 B(8,7,9)        =    111.454017    -0.000071     0.322119   111.776137
	   65 B(8,7,21)       =    121.571985     0.000136    -0.210725   121.361260
	   66 B(9,6,33)       =    126.530280    -0.000158    -0.165185   126.365095
	   67 B(9,7,21)       =    126.973988    -0.000064    -0.128796   126.845192
	   68 B(10,11,13)     =    120.402748    -0.000115    -0.537597   119.865151
	   69 B(10,11,23)     =    119.739991    -0.000066    -0.080888   119.659103
	   70 B(10,12,14)     =    120.517103    -0.000136    -0.634106   119.882997
	   71 B(10,12,24)     =    119.498279    -0.000047    -0.053343   119.444936
	   72 B(11,10,12)     =    118.912181     0.000221     1.060001   119.972182
	   73 B(11,13,15)     =    120.311821    -0.000057    -0.187065   120.124756
	   74 B(11,13,25)     =    119.494494     0.000070     0.235565   119.730059
	   75 B(12,14,15)     =    120.230143    -0.000080    -0.189426   120.040717
	   76 B(12,14,26)     =    119.542387     0.000097     0.257926   119.800312
	   77 B(13,11,23)     =    119.857202     0.000181     0.617971   120.475173
	   78 B(13,15,14)     =    119.613420     0.000167     0.493444   120.106865
	   79 B(13,15,27)     =    120.203409    -0.000094    -0.306062   119.897347
	   80 B(14,12,24)     =    119.984616     0.000183     0.687417   120.672033
	   81 B(14,15,27)     =    120.182976    -0.000074    -0.187240   119.995736
	   82 B(15,13,25)     =    120.193518    -0.000013    -0.048396   120.145122
	   83 B(15,14,26)     =    120.227415    -0.000017    -0.068603   120.158812
	   84 B(16,4,17)      =    118.008295    -0.000059    -0.050502   117.957792
	   85 B(16,18,20)     =    121.260141    -0.000137    -0.319121   120.941019
	   86 B(16,18,30)     =    118.592182     0.000188     0.516551   119.108734
	   87 B(17,19,20)     =    121.351124    -0.000136    -0.328119   121.023005
	   88 B(17,19,31)     =    118.478814     0.000187     0.545369   119.024183
	   89 B(18,16,28)     =    118.968947     0.000146     0.540312   119.509259
	   90 B(18,20,19)     =    117.609134     0.000180     0.429125   118.038259
	   91 B(18,20,32)     =    121.159069    -0.000100    -0.218893   120.940175
	   92 B(19,17,29)     =    118.078584     0.000220     0.684417   118.763001
	   93 B(19,20,32)     =    121.222278    -0.000083    -0.237594   120.984684
	   94 B(20,18,30)     =    120.147526    -0.000051    -0.200232   119.947294
	   95 B(20,19,31)     =    120.169797    -0.000051    -0.217061   119.952737
	   96 B(20,32,35)     =    113.605304     0.000129     0.740659   114.345962
	   97 B(20,32,36)     =    113.530942     0.000127     0.799286   114.330229
	   98 B(35,32,36)     =    108.979459     0.000172     1.042704   110.022163
	   99 *D(1,2,3,4)     =    -72.913822     0.000000    -0.000211   -72.914033
	  100 D(1,2,3,5)      =     76.952061     0.000078     3.118917    80.070978
	  101 *D(1,2,10,11)   =    -51.302863    -0.000000    -0.000193   -51.303056
	  102 *D(1,2,10,12)   =    132.256218     0.000000     0.000001   132.256219
	  103 D(1,6,9,7)      =      0.245512    -0.000076    -2.360372    -2.114859
	  104 D(1,6,9,34)     =   -179.958236    -0.000063    -1.954059  -181.912295
	  105 D(1,8,7,9)      =      0.129764    -0.000047    -1.613565    -1.483801
	  106 D(1,8,7,21)     =   -179.835919    -0.000004    -0.228925  -180.064844
	  107 D(2,1,6,9)      =   -178.730395     0.000007     0.258944  -178.471451
	  108 D(2,1,6,33)     =      1.168616    -0.000041    -1.281128    -0.112512
	  109 D(2,1,8,7)      =    178.588704     0.000043     1.251124   179.839828
	  110 D(2,1,8,22)     =     -2.578560    -0.000045    -1.779293    -4.357853
	  111 *D(2,3,4,16)    =   -147.965390    -0.000000    -0.000004  -147.965394
	  112 D(2,3,4,17)     =     31.671490    -0.000002    -0.323473    31.348017
	  113 D(2,10,11,13)   =   -177.743646     0.000013     0.567478  -177.176168
	  114 D(2,10,11,23)   =      2.167568     0.000007     0.382166     2.549734
	  115 D(2,10,12,14)   =    177.769280    -0.000013    -0.372246   177.397034
	  116 D(2,10,12,24)   =     -2.243589    -0.000015    -0.425277    -2.668865
	  117 D(3,2,1,6)      =    -75.288384     0.000442    11.430387   -63.857997
	  118 D(3,2,1,8)      =    106.417887     0.000394    10.126071   116.543958
	  119 *D(3,2,10,11)   =    124.253182    -0.000000     0.000194   124.253376
	  120 D(3,2,10,12)    =    -52.187738     0.000000     0.000388   -52.187350
	  121 D(3,4,16,18)    =   -179.378923     0.000006     0.030851  -179.348072
	  122 D(3,4,16,28)    =      0.855905     0.000007     0.036604     0.892509
	  123 D(3,4,17,19)    =    179.421591     0.000011     0.473171   179.894763
	  124 D(3,4,17,29)    =     -1.085024    -0.000003     0.059372    -1.025652
	  125 *D(4,3,2,10)    =    111.333658     0.000000     0.000207   111.333864
	  126 D(4,16,18,20)   =      0.014816    -0.000011    -0.396395    -0.381578
	  127 D(4,16,18,30)   =   -179.844119     0.000004     0.087993  -179.756126
	  128 D(4,17,19,20)   =     -0.059252    -0.000019    -0.538771    -0.598023
	  129 D(4,17,19,31)   =    179.753841    -0.000016    -0.451949   179.301892
	  130 D(5,3,2,10)     =    -98.800459     0.000078     3.119335   -95.681124
	  131 D(5,3,4,16)     =     62.363317    -0.000113    -3.556285    58.807033
	  132 D(5,3,4,17)     =   -117.999802    -0.000115    -3.879754  -121.879555
	  133 D(6,1,2,10)     =    100.015071     0.000446    11.503104   111.518175
	  134 D(6,1,8,7)      =      0.018754     0.000001     0.159033     0.177787
	  135 D(6,1,8,22)     =    178.851490    -0.000087    -2.871384   175.980106
	  136 D(6,9,7,8)      =     -0.244975     0.000081     2.599770     2.354795
	  137 D(6,9,7,21)     =    179.718429     0.000035     1.122271   180.840699
	  138 D(7,9,6,33)     =   -179.653110    -0.000028    -0.817533  -180.470643
	  139 D(8,1,2,10)     =    -78.278657     0.000398    10.198788   -68.079869
	  140 D(8,1,6,9)      =     -0.160100     0.000045     1.345603     1.185503
	  141 D(8,1,6,33)     =    179.738912    -0.000003    -0.194470   179.544442
	  142 D(8,7,9,34)     =    179.934791     0.000070     2.238396   182.173187
	  143 D(9,7,8,22)     =   -178.839626     0.000035     1.215836  -177.623789
	  144 D(10,11,13,15)  =      0.529970    -0.000019    -0.591506    -0.061536
	  145 D(10,11,13,25)  =   -179.618356    -0.000010    -0.351989  -179.970344
	  146 D(10,12,14,15)  =     -0.504439    -0.000008    -0.173370    -0.677809
	  147 D(10,12,14,26)  =    179.581149    -0.000005    -0.114015   179.467135
	  148 D(11,10,12,14)  =      1.253748    -0.000004    -0.225225     1.028523
	  149 D(11,10,12,24)  =   -178.759121    -0.000005    -0.278256  -179.037377
	  150 D(11,13,15,14)  =      0.237852     0.000006     0.175831     0.413683
	  151 D(11,13,15,27)  =   -179.922598     0.000009     0.253045  -179.669552
	  152 D(12,10,11,13)  =     -1.265457     0.000017     0.606450    -0.659007
	  153 D(12,10,11,23)  =    178.645757     0.000011     0.421138   179.066895
	  154 D(12,14,15,13)  =     -0.250835     0.000007     0.208495    -0.042340
	  155 D(12,14,15,27)  =    179.909582     0.000005     0.131396   180.040978
	  156 D(13,15,14,26)  =    179.662987     0.000005     0.149206   179.812193
	  157 D(14,15,13,25)  =   -179.612780    -0.000002    -0.065109  -179.677890
	  158 D(15,13,11,23)  =   -179.381140    -0.000013    -0.404029  -179.785169
	  159 D(15,14,12,24)  =    179.508492    -0.000006    -0.119579   179.388913
	  160 D(16,4,17,19)   =     -0.940649     0.000008     0.139797    -0.800852
	  161 D(16,4,17,29)   =    178.552735    -0.000006    -0.274002   178.278733
	  162 D(16,18,20,19)  =     -1.006629    -0.000001    -0.006951    -1.013581
	  163 D(16,18,20,32)  =   -179.897527     0.000036     1.071563  -178.825964
	  164 D(17,4,16,18)   =      0.963159     0.000007     0.321306     1.284465
	  165 D(17,4,16,28)   =   -178.802013     0.000008     0.327059  -178.474954
	  166 D(17,19,20,18)  =      1.029234     0.000016     0.466504     1.495738
	  167 D(17,19,20,32)  =    179.919390    -0.000021    -0.612290   179.307101
	  168 D(18,20,19,31)  =   -178.780734     0.000012     0.377478  -178.403256
	  169 *D(18,20,32,35) =    -28.696695    -0.000000    -0.000000   -28.696695
	  170 D(18,20,32,36)  =   -153.965412    -0.000104    -2.830416  -156.795828
	  171 D(19,20,18,30)  =    178.850134    -0.000016    -0.494374   178.355760
	  172 D(19,20,32,35)  =    152.452576     0.000038     1.103012   153.555588
	  173 D(19,20,32,36)  =     27.183859    -0.000066    -1.727404    25.456455
	  174 D(20,18,16,28)  =    179.782602    -0.000012    -0.405096   179.377506
	  175 D(20,19,17,29)  =   -179.567551    -0.000005    -0.124274  -179.691825
	  176 D(21,7,8,22)    =      1.194691     0.000078     2.600476     3.795167
	  177 D(21,7,9,34)    =     -0.101806     0.000024     0.760897     0.659091
	  178 D(23,11,13,25)  =      0.470534    -0.000005    -0.164511     0.306023
	  179 D(24,12,14,26)  =     -0.405919    -0.000003    -0.060224    -0.466144
	  180 D(25,13,15,27)  =      0.226770     0.000000     0.012105     0.238874
	  181 D(26,14,15,27)  =     -0.176597     0.000002     0.072107    -0.104489
	  182 D(28,16,18,30)  =     -0.076333     0.000003     0.079292     0.002959
	  183 D(29,17,19,31)  =      0.245542    -0.000002    -0.037451     0.208091
	  184 D(30,18,20,32)  =     -0.040763     0.000021     0.584140     0.543377
	  185 D(31,19,20,32)  =      0.109422    -0.000025    -0.701315    -0.591893
	  186 D(33,6,9,34)    =      0.143142    -0.000015    -0.411220    -0.268078
	  187 R(1,17)         =      3.480652    -0.103993    -0.059966     3.420686
	  188 R(4,12)         =      3.736682     0.000775     0.024754     3.761436
	  189 R(6,11)         =      3.789759     0.025353     0.055400     3.845159
	  190 R(8,17)         =      3.705297     0.030980     0.053629     3.758926
	 ---------------------------------------------------------------------------
	Successfully symmetrized geometry.

  ==> Convergence Check <==

  Measures of convergence in internal coordinates in au.
  Criteria marked as inactive (o), active & met (*), and active & unmet ( ).
  --------------------------------------------------------------------------------------------- ~
   Step     Total Energy     Delta E     MAX Force     RMS Force      MAX Disp      RMS Disp    ~
  --------------------------------------------------------------------------------------------- ~
    Convergence Criteria             o    2.50e-03 *    1.70e-03 *    1.00e-02 *    6.70e-03 *  ~
  --------------------------------------------------------------------------------------------- ~
      1    -895.86080004   -8.96e+02 o    2.57e-02      7.08e-03      2.01e-01      3.64e-02    ~
  ---------------------------------------------------------------------------------------------

	Writing optimization data to binary file.
	Structure for next step:
	Cartesian Geometry (in Angstrom)
	    C    -0.8354450856   1.6262502163   0.1362133873
	    C    -0.8794146630   0.2658966790   0.4661012690
	    N     0.1659274233  -0.3145159140   1.2613762505
	    C     1.5110790544  -0.5977900803   0.8249501014
	    H     0.0847660397  -0.1468658864   2.2671291204
	    C    -0.9020454854   2.7482853245   1.0592668494
	    N    -0.7202714767   3.5701358731  -1.0442577237
	    C    -0.7182931213   2.1844424222  -1.2504052904
	    C    -0.8597062438   3.8941579129   0.3137820530
	    C    -1.9890629758  -0.6216165258   0.1335864556
	    C    -3.2886912316  -0.2115420926   0.4860392348
	    C    -1.7851394297  -1.8840056118  -0.4513690910
	    C    -4.3749208852  -1.0552174017   0.2407621156
	    C    -2.8741576390  -2.7182208937  -0.7006483198
	    C    -4.1731765020  -2.3031881762  -0.3542864695
	    C     2.1374566911  -1.7084999480   1.4084380018
	    C     2.2312855618   0.1361970736  -0.1394599884
	    C     3.4451575318  -2.0626828351   1.0662051811
	    C     3.5357613446  -0.2243310756  -0.4888204088
	    C     4.1712119548  -1.3192006004   0.1185657032
	    H    -0.6505380558   4.2160181144  -1.8163588788
	    O    -0.5660812216   1.6194259364  -2.3588585095
	    H    -3.4384170914   0.7572703931   0.9509764700
	    H    -0.7746595633  -2.1988505844  -0.7061011855
	    H    -5.3796268940  -0.7355021451   0.5139197843
	    H    -2.7163166981  -3.6876391884  -1.1596163938
	    H    -5.0217676070  -2.9545526156  -0.5483901825
	    H     1.5933213068  -2.3064425844   2.1373633952
	    H     1.7734666395   0.9862053740  -0.6360024196
	    H     3.8980577431  -2.9334296601   1.5363083540
	    H     4.0601713071   0.3574954215  -1.2463533057
	    N     5.4893111947  -1.6931239623  -0.2469165849
	    H    -0.9978459025   2.6856083564   2.1438250359
	    H    -0.9140508056   4.9234799481   0.6319236124
	    H     6.0054769256  -2.1771661631   0.4833781552
	    H     6.0500166267  -0.9346966218  -0.6249655958
			--------------------------
			 OPTKING Finished Execution 
			--------------------------

    Structure for next step:
    Molecular point group: c1
    Full point group: C1

    Geometry (in Angstrom), charge = 0, multiplicity = 1:

    C           -0.820552997795     1.635675673304     0.135355245585
    C           -0.864522575338     0.275322130717     0.465243128542
    N            0.180819515063    -0.305090464585     1.260518113204
    C            1.525971151511    -0.588364632033     0.824091962357
    H            0.099658131155    -0.137440436358     2.266270987023
    C           -0.887153397828     2.757710785980     1.058408711301
    N           -0.705379388425     3.579561337780    -1.045115870141
    C           -0.703401032954     2.193867881435    -1.251263437579
    C           -0.844814156093     3.903583378820     0.312923911953
    C           -1.974170892507    -0.612191077590     0.132728313831
    C           -3.273799153387    -0.202116642795     0.485181094413
    C           -1.770247345626    -1.874580168593    -0.452227235098
    C           -4.360028811251    -1.045791955218     0.239903974247
    C           -2.859265559210    -2.708795453759    -0.701506464876
    C           -4.158284427261    -2.293762734628    -0.355144613197
    C            2.152348790657    -1.699074504074     1.407579865051
    C            2.246177661741     0.145622524788    -0.140318131215
    C            3.460049636494    -2.053257392581     1.065347042952
    C            3.550653449672    -0.214905625845    -0.489678553019
    C            4.186104062337    -1.309775154942     0.117707561390
    H           -0.635645967180     4.225443581567    -1.817217028198
    O           -0.551189132667     1.628851393413    -2.359716661048
    H           -3.423525013828     0.766695846706     0.950118331392
    H           -0.759767475191    -2.189425142400    -0.706959330605
    H           -5.364734823986    -0.726076697340     0.513061643975
    H           -2.701424617669    -3.678213752231    -1.160474540647
    H           -5.006875535592    -2.945127176590    -0.549248326954
    H            1.608213404194    -2.297017142827     2.136505261252
    H            1.788358737576     0.995630828524    -0.636860564428
    H            3.912949849555    -2.924004221026     1.535450217767
    H            4.075063414160     0.366920873533    -1.247211452946
    N            5.504203307402    -1.683698518280    -0.247774728155
    H           -0.982953815312     2.695033817630     2.142966901991
    H           -0.899158718021     4.932905418055     0.631065472583
    H            6.020369040320    -2.167740721052     0.482520014753
    H            6.064908741633    -0.925271174804    -0.625823740582

gradient() will perform analytic gradient computation.

*** tstart() called on node44.bme.utexas.edu
*** at Sun Nov  7 01:37:12 2021

   => Loading Basis Set <=

    Name: 6-311G
    Role: ORBITAL
    Keyword: BASIS
    atoms 1-2, 4, 6, 8-20     entry C          line    92 file /home/bdw2292/miniconda3/envs/amoebamdpoltype/share/psi4/basis/6-311g.gbs 
    atoms 3, 7, 32            entry N          line   109 file /home/bdw2292/miniconda3/envs/amoebamdpoltype/share/psi4/basis/6-311g.gbs 
    atoms 5, 21, 23-31, 33-36 entry H          line    21 file /home/bdw2292/miniconda3/envs/amoebamdpoltype/share/psi4/basis/6-311g.gbs 
    atoms 22                  entry O          line   126 file /home/bdw2292/miniconda3/envs/amoebamdpoltype/share/psi4/basis/6-311g.gbs 


         ---------------------------------------------------------
                                   SCF
               by Justin Turney, Rob Parrish, Andy Simmonett
                          and Daniel G. A. Smith
                              RKS Reference
                        1 Threads,   7947 MiB Core
         ---------------------------------------------------------

  ==> Geometry <==

    Molecular point group: c1
    Full point group: C1

    Geometry (in Angstrom), charge = 0, multiplicity = 1:

       Center              X                  Y                   Z               Mass       
    ------------   -----------------  -----------------  -----------------  -----------------
         C           -0.820552997795     1.635675673304     0.135355245585    12.000000000000
         C           -0.864522575338     0.275322130717     0.465243128542    12.000000000000
         N            0.180819515063    -0.305090464585     1.260518113204    14.003074004430
         C            1.525971151511    -0.588364632033     0.824091962357    12.000000000000
         H            0.099658131155    -0.137440436358     2.266270987023     1.007825032230
         C           -0.887153397828     2.757710785980     1.058408711301    12.000000000000
         N           -0.705379388425     3.579561337780    -1.045115870141    14.003074004430
         C           -0.703401032954     2.193867881435    -1.251263437579    12.000000000000
         C           -0.844814156093     3.903583378820     0.312923911953    12.000000000000
         C           -1.974170892507    -0.612191077590     0.132728313831    12.000000000000
         C           -3.273799153387    -0.202116642795     0.485181094413    12.000000000000
         C           -1.770247345626    -1.874580168593    -0.452227235098    12.000000000000
         C           -4.360028811251    -1.045791955218     0.239903974247    12.000000000000
         C           -2.859265559210    -2.708795453759    -0.701506464876    12.000000000000
         C           -4.158284427261    -2.293762734628    -0.355144613197    12.000000000000
         C            2.152348790657    -1.699074504074     1.407579865051    12.000000000000
         C            2.246177661741     0.145622524788    -0.140318131215    12.000000000000
         C            3.460049636494    -2.053257392581     1.065347042952    12.000000000000
         C            3.550653449672    -0.214905625845    -0.489678553019    12.000000000000
         C            4.186104062337    -1.309775154942     0.117707561390    12.000000000000
         H           -0.635645967180     4.225443581567    -1.817217028198     1.007825032230
         O           -0.551189132667     1.628851393413    -2.359716661048    15.994914619570
         H           -3.423525013828     0.766695846706     0.950118331392     1.007825032230
         H           -0.759767475191    -2.189425142400    -0.706959330605     1.007825032230
         H           -5.364734823986    -0.726076697340     0.513061643975     1.007825032230
         H           -2.701424617669    -3.678213752231    -1.160474540647     1.007825032230
         H           -5.006875535592    -2.945127176590    -0.549248326954     1.007825032230
         H            1.608213404194    -2.297017142827     2.136505261252     1.007825032230
         H            1.788358737576     0.995630828524    -0.636860564428     1.007825032230
         H            3.912949849555    -2.924004221026     1.535450217767     1.007825032230
         H            4.075063414160     0.366920873533    -1.247211452946     1.007825032230
         N            5.504203307402    -1.683698518280    -0.247774728155    14.003074004430
         H           -0.982953815312     2.695033817630     2.142966901991     1.007825032230
         H           -0.899158718021     4.932905418055     0.631065472583     1.007825032230
         H            6.020369040320    -2.167740721052     0.482520014753     1.007825032230
         H            6.064908741633    -0.925271174804    -0.625823740582     1.007825032230

  Running in c1 symmetry.

  Rotational constants: A =      0.01337  B =      0.00722  C =      0.00538 [cm^-1]
  Rotational constants: A =    400.91186  B =    216.48210  C =    161.43808 [MHz]
  Nuclear repulsion = 1521.644558824988053

  Charge       = 0
  Multiplicity = 1
  Electrons    = 146
  Nalpha       = 73
  Nbeta        = 73

  ==> Algorithm <==

  SCF Algorithm Type is DF.
  DIIS enabled.
  MOM disabled.
  Fractional occupation disabled.
  Guess Type is READ.
  Energy threshold   = 1.00e-08
  Density threshold  = 1.00e-08
  Integral threshold = 0.00e+00

  ==> Primary Basis <==

  Basis Set: 6-311G
    Blend: 6-311G
    Number of shells: 192
    Number of basis function: 318
    Number of Cartesian functions: 318
    Spherical Harmonics?: true
    Max angular momentum: 1

  ==> DFT Potential <==

   => Composite Functional: WB97X-D <= 

    wB97X-D Hyb-GGA Exchange-Correlation Functional

    J.-D. Chai and M. Head-Gordon, Phys. Chem. Chem. Phys. 10, 6615 (2008)

    Deriv               =              1
    GGA                 =           TRUE
    Meta                =          FALSE

    Exchange Hybrid     =           TRUE
    MP2 Hybrid          =          FALSE

   => Exchange-Correlation Functionals <=

    1.0000   wB97D range-separated functional

   => Exact (HF) Exchange <=

    0.7780            HF,LR [omega = 0.2000]
    0.2220               HF 

   => Molecular Quadrature <=

    Radial Scheme          =       TREUTLER
    Pruning Scheme         =           FLAT
    Nuclear Scheme         =       TREUTLER

    BS radius alpha        =              1
    Pruning alpha          =              1
    Radial Points          =             75
    Spherical Points       =            302
    Total Points           =         806728
    Total Blocks           =           5738
    Max Points             =            256
    Max Functions          =            225

   => WB97X-D: Empirical Dispersion <=

    Chai and Head-Gordon Dispersion Correction
    Chai, J.-D.; Head-Gordon, M. (2010), J. Chem. Phys., 132: 6615-6620

        s6 =       1.000000

   => Loading Basis Set <=

    Name: (6-311G AUX)
    Role: JKFIT
    Keyword: DF_BASIS_SCF
    atoms 1-2, 4, 6, 8-20     entry C          line   125 file /home/bdw2292/miniconda3/envs/amoebamdpoltype/share/psi4/basis/cc-pvtz-jkfit.gbs 
    atoms 3, 7, 32            entry N          line   177 file /home/bdw2292/miniconda3/envs/amoebamdpoltype/share/psi4/basis/cc-pvtz-jkfit.gbs 
    atoms 5, 21, 23-31, 33-36 entry H          line    51 file /home/bdw2292/miniconda3/envs/amoebamdpoltype/share/psi4/basis/cc-pvtz-jkfit.gbs 
    atoms 22                  entry O          line   229 file /home/bdw2292/miniconda3/envs/amoebamdpoltype/share/psi4/basis/cc-pvtz-jkfit.gbs 

   => Loading Basis Set <=

    Name: 6-311G
    Role: ORBITAL
    Keyword: BASIS
    atoms 1-2, 4, 6, 8-20     entry C          line    92 file /home/bdw2292/miniconda3/envs/amoebamdpoltype/share/psi4/basis/6-311g.gbs 
    atoms 3, 7, 32            entry N          line   109 file /home/bdw2292/miniconda3/envs/amoebamdpoltype/share/psi4/basis/6-311g.gbs 
    atoms 5, 21, 23-31, 33-36 entry H          line    21 file /home/bdw2292/miniconda3/envs/amoebamdpoltype/share/psi4/basis/6-311g.gbs 
    atoms 22                  entry O          line   126 file /home/bdw2292/miniconda3/envs/amoebamdpoltype/share/psi4/basis/6-311g.gbs 

  Reading orbitals from file 180, no projection.

  ==> Pre-Iterations <==

   -------------------------------------------------------
    Irrep   Nso     Nmo     Nalpha   Nbeta   Ndocc  Nsocc
   -------------------------------------------------------
     A        318     318       0       0       0       0
   -------------------------------------------------------
    Total     318     318      73      73      73       0
   -------------------------------------------------------

  ==> Integral Setup <==

  ==> DiskDFJK: Density-Fitted J/K Matrices <==

    J tasked:                  Yes
    K tasked:                  Yes
    wK tasked:                 Yes
    Omega:               2.000E-01
    OpenMP threads:              1
    Integrals threads:           1
    Memory [MiB]:             2615
    Algorithm:                Core
    Integral Cache:           NONE
    Schwarz Cutoff:          1E-12
    Fitting Condition:       1E-10

   => Auxiliary Basis Set <=

[...]
	   30 R(17,19)        =      1.391660    -0.000429    -0.000058     1.391602
	   31 R(17,29)        =      1.079139    -0.000548    -0.000109     1.079030
	   32 R(18,20)        =      1.401914    -0.000210    -0.000031     1.401883
	   33 R(18,30)        =      1.082609    -0.000143    -0.000031     1.082578
	   34 R(19,20)        =      1.400012     0.000385     0.000050     1.400063
	   35 R(19,31)        =      1.083097    -0.000402    -0.000078     1.083019
	   36 R(20,32)        =      1.393389    -0.000697    -0.000136     1.393253
	   37 R(32,35)        =      1.001992    -0.000499    -0.000094     1.001897
	   38 R(32,36)        =      1.002171    -0.000570    -0.000100     1.002071
	   39 B(1,2,3)        =    120.585480    -0.000001    -0.017156   120.568324
	   40 B(1,2,10)       =    124.666759    -0.000001    -0.014663   124.652096
	   41 B(1,6,9)        =    107.974205     0.000001     0.001867   107.976072
	   42 B(1,6,33)       =    124.941980    -0.000001    -0.005052   124.936928
	   43 B(1,8,7)        =    104.417766     0.000002     0.010784   104.428550
	   44 B(1,8,22)       =    131.231983     0.000001     0.012836   131.244819
	   45 B(2,1,6)        =    126.822254     0.000002    -0.009517   126.812737
	   46 B(2,1,8)        =    126.734242     0.000003     0.019455   126.753697
	   47 B(2,3,4)        =    125.007748    -0.000000    -0.018917   124.988831
	   48 B(2,3,5)        =    111.938583     0.000002     0.013309   111.951893
	   49 B(2,10,11)      =    121.625636     0.000002    -0.010612   121.615024
	   50 B(2,10,12)      =    118.888258     0.000000     0.019925   118.908183
	   51 B(3,2,10)       =    114.597938     0.000002     0.031858   114.629796
	   52 B(3,4,16)       =    118.221504    -0.000001    -0.000750   118.220754
	   53 B(3,4,17)       =    123.418865    -0.000000    -0.002908   123.415957
	   54 B(4,3,5)        =    111.567095    -0.000002    -0.019917   111.547178
	   55 B(4,16,18)      =    121.175407     0.000001     0.001097   121.176504
	   56 B(4,16,28)      =    119.648442    -0.000001    -0.001998   119.646444
	   57 B(4,17,19)      =    120.472994    -0.000002    -0.007542   120.465451
	   58 B(4,17,29)      =    120.325111     0.000006     0.022982   120.348093
	   59 B(6,1,8)        =    106.422750    -0.000005    -0.009029   106.413721
	   60 B(6,9,7)        =    109.947308     0.000002     0.004408   109.951716
	   61 B(6,9,34)       =    129.565790    -0.000001    -0.006047   129.559743
	   62 B(7,8,22)       =    124.336694    -0.000003    -0.024106   124.312587
	   63 B(7,9,34)       =    120.473514    -0.000001    -0.001551   120.471964
	   64 B(8,7,9)        =    111.228283     0.000000    -0.005016   111.223267
	   65 B(8,7,21)       =    122.353090    -0.000000    -0.001856   122.351233
	   66 B(9,6,33)       =    127.030469     0.000001     0.009628   127.040097
	   67 B(9,7,21)       =    126.417744     0.000000     0.007223   126.424967
	   68 B(10,11,13)     =    120.205460     0.000001     0.006870   120.212329
	   69 B(10,11,23)     =    119.360072    -0.000001    -0.006459   119.353613
	   70 B(10,12,14)     =    120.310852     0.000002     0.005016   120.315868
	   71 B(10,12,24)     =    119.447815    -0.000001    -0.005953   119.441862
	   72 B(11,10,12)     =    119.391532    -0.000002    -0.009297   119.382235
	   73 B(11,13,15)     =    120.174562    -0.000001    -0.003169   120.171393
	   74 B(11,13,25)     =    119.769113    -0.000000     0.001300   119.770414
	   75 B(12,14,15)     =    119.936452     0.000001     0.001936   119.938388
	   76 B(12,14,26)     =    119.900239    -0.000000     0.002454   119.902693
	   77 B(13,11,23)     =    120.431077    -0.000001    -0.000281   120.430796
	   78 B(13,15,14)     =    119.970042    -0.000001    -0.001537   119.968505
	   79 B(13,15,27)     =    120.016165     0.000001     0.005020   120.021184
	   80 B(14,12,24)     =    120.234746    -0.000001     0.000728   120.235475
	   81 B(14,15,27)     =    120.013791    -0.000000    -0.003482   120.010309
	   82 B(15,13,25)     =    120.055592     0.000001     0.001912   120.057504
	   83 B(15,14,26)     =    120.163274    -0.000001    -0.004394   120.158880
	   84 B(16,4,17)      =    118.305979     0.000001     0.005082   118.311061
	   85 B(16,18,20)     =    120.777165     0.000000    -0.001117   120.776048
	   86 B(16,18,30)     =    119.569626     0.000000     0.004186   119.573812
	   87 B(17,19,20)     =    121.426685     0.000002     0.007196   121.433881
	   88 B(17,19,31)     =    119.017122    -0.000001    -0.000491   119.016631
	   89 B(18,16,28)     =    119.172477     0.000000     0.000897   119.173374
	   90 B(18,20,19)     =    117.821724    -0.000002    -0.004335   117.817388
	   91 B(18,20,32)     =    120.735466     0.000003     0.008090   120.743556
	   92 B(19,17,29)     =    119.201866    -0.000004    -0.015431   119.186435
	   93 B(19,20,32)     =    121.385113    -0.000001    -0.003198   121.381915
	   94 B(20,18,30)     =    119.643455    -0.000000    -0.003122   119.640333
	   95 B(20,19,31)     =    119.556181    -0.000001    -0.006707   119.549474
	   96 B(20,32,35)     =    119.489379    -0.000000     0.031349   119.520728
	   97 B(20,32,36)     =    119.029021     0.000001     0.033256   119.062276
	   98 B(35,32,36)     =    116.071598     0.000001     0.041940   116.113539
	   99 *D(1,2,3,4)     =    -72.913328    -0.000000    -0.000000   -72.913328
	  100 D(1,2,3,5)      =    147.096470     0.000000     0.044648   147.141118
	  101 *D(1,2,10,11)   =    -51.302342    -0.000000    -0.000000   -51.302342
	  102 *D(1,2,10,12)   =    132.256250    -0.000000     0.000000   132.256250
	  103 D(1,6,9,7)      =     -0.932241     0.000001     0.236956    -0.695285
	  104 D(1,6,9,34)     =    177.717007     0.000001     0.084628   177.801635
	  105 D(1,8,7,9)      =     -0.672174    -0.000000     0.008417    -0.663756
	  106 D(1,8,7,21)     =    179.649421    -0.000001    -0.063419   179.586002
	  107 D(2,1,6,9)      =    178.931518    -0.000001    -0.191836   178.739682
	  108 D(2,1,6,33)     =     -3.569984     0.000000    -0.035733    -3.605716
	  109 D(2,1,8,7)      =   -178.320215     0.000000     0.094737  -178.225477
	  110 D(2,1,8,22)     =      0.352664     0.000000     0.070833     0.423497
	  111 *D(2,3,4,16)    =   -147.965488     0.000000     0.000000  -147.965488
	  112 D(2,3,4,17)     =     29.321645     0.000000     0.036384    29.358029
	  113 D(2,10,11,13)   =   -177.039842    -0.000000    -0.019213  -177.059055
	  114 D(2,10,11,23)   =      3.627169    -0.000000    -0.032052     3.595117
	  115 D(2,10,12,14)   =    177.769296     0.000000     0.014440   177.783736
	  116 D(2,10,12,24)   =     -3.162109     0.000000    -0.000142    -3.162251
	  117 D(3,2,1,6)      =     -7.577942    -0.000001    -0.085880    -7.663822
	  118 D(3,2,1,8)      =    170.536332     0.000000    -0.044285   170.492047
	  119 *D(3,2,10,11)   =    124.252661     0.000000     0.000000   124.252661
	  120 D(3,2,10,12)    =    -52.188747     0.000000     0.000000   -52.188747
	  121 D(3,4,16,18)    =    178.413094     0.000000     0.018321   178.431415
	  122 D(3,4,16,28)    =     -0.883850     0.000000     0.018731    -0.865119
	  123 D(3,4,17,19)    =   -178.623837    -0.000000    -0.024294  -178.648131
	  124 D(3,4,17,29)    =      1.438509    -0.000000    -0.034114     1.404395
	  125 *D(4,3,2,10)    =    111.333040     0.000000     0.000000   111.333040
	  126 D(4,16,18,20)   =      0.299549    -0.000000     0.005869     0.305417
	  127 D(4,16,18,30)   =   -178.560246    -0.000000     0.008981  -178.551265
	  128 D(4,17,19,20)   =      0.427287    -0.000000     0.002236     0.429523
	  129 D(4,17,19,31)   =   -179.533237    -0.000000     0.005222  -179.528014
	  130 D(5,3,2,10)     =    -28.657161     0.000000     0.044648   -28.612514
	  131 D(5,3,4,16)     =     -7.851137     0.000000    -0.033379    -7.884516
	  132 D(5,3,4,17)     =    169.435997     0.000000     0.003005   169.439001
	  133 D(6,1,2,10)     =    167.726710    -0.000001    -0.083849   167.642861
	  134 D(6,1,8,7)      =      0.106145     0.000001     0.129325     0.235470
	  135 D(6,1,8,22)     =    178.779024     0.000001     0.105420   178.884444
	  136 D(6,9,7,8)      =      1.047644    -0.000001    -0.157950     0.889694
	  137 D(6,9,7,21)     =   -179.289959    -0.000000    -0.082567  -179.372526
	  138 D(7,9,6,33)     =   -178.363585     0.000001     0.077111  -178.286473
	  139 D(8,1,2,10)     =    -14.159016     0.000000    -0.042254   -14.201270
	  140 D(8,1,6,9)      =      0.506967    -0.000002    -0.227045     0.279922
	  141 D(8,1,6,33)     =    178.005465    -0.000001    -0.070942   177.934523
	  142 D(8,7,9,34)     =   -177.744199    -0.000000    -0.021613  -177.765811
	  143 D(9,7,8,22)     =   -179.463506    -0.000000     0.029593  -179.433913
	  144 D(10,11,13,15)  =     -0.189232     0.000000     0.012515    -0.176717
	  145 D(10,11,13,25)  =   -179.878004     0.000000     0.003025  -179.874980
	  146 D(10,12,14,15)  =     -1.069642    -0.000000    -0.005156    -1.074798
	  147 D(10,12,14,26)  =    178.862334    -0.000000    -0.008612   178.853722
	  148 D(11,10,12,14)  =      1.246943     0.000000     0.014519     1.261462
	  149 D(11,10,12,24)  =   -179.684462     0.000000    -0.000064  -179.684526
	  150 D(11,13,15,14)  =      0.373584    -0.000000    -0.002882     0.370701
	  151 D(11,13,15,27)  =   -179.641420    -0.000000    -0.002255  -179.643675
	  152 D(12,10,11,13)  =     -0.615925    -0.000000    -0.018199    -0.634124
	  153 D(12,10,11,23)  =   -179.948915    -0.000000    -0.031037  -179.979952
	  154 D(12,14,15,13)  =      0.255787     0.000000    -0.000859     0.254929
	  155 D(12,14,15,27)  =   -179.729210    -0.000000    -0.001487  -179.730697
	  156 D(13,15,14,26)  =   -179.676009    -0.000000     0.002602  -179.673407
	  157 D(14,15,13,25)  =   -179.938540     0.000000     0.006633  -179.931908
	  158 D(15,13,11,23)  =    179.136550     0.000000     0.025451   179.162002
	  159 D(15,14,12,24)  =    179.869131     0.000000     0.009605   179.878736
	  160 D(16,4,17,19)   =     -1.338857    -0.000000     0.011972    -1.326885
	  161 D(16,4,17,29)   =    178.723490    -0.000000     0.002152   178.725641
	  162 D(16,18,20,19)  =     -1.208187    -0.000000     0.008494    -1.199693
	  163 D(16,18,20,32)  =   -178.483461     0.000000    -0.004577  -178.488037
	  164 D(17,4,16,18)   =      0.984859     0.000000    -0.015961     0.968897
	  165 D(17,4,16,28)   =   -178.312085     0.000000    -0.015551  -178.327636
	  166 D(17,19,20,18)  =      0.851546     0.000000    -0.012509     0.839038
	  167 D(17,19,20,32)  =    178.108135    -0.000000     0.000974   178.109109
	  168 D(18,20,19,31)  =   -179.188139     0.000000    -0.015508  -179.203647
	  169 *D(18,20,32,35) =    -28.696690     0.000000     0.000000   -28.696690
	  170 D(18,20,32,36)  =    178.266183    -0.000001    -0.261519   178.004664
	  171 D(19,20,18,30)  =    177.650773    -0.000000     0.005462   177.656235
	  172 D(19,20,32,35)  =    154.126157     0.000000    -0.013525   154.112632
	  173 D(19,20,32,36)  =      1.089030    -0.000001    -0.275044     0.813986
	  174 D(20,18,16,28)  =    179.599777    -0.000000     0.005440   179.605217
	  175 D(20,19,17,29)  =   -179.634365     0.000000     0.011967  -179.622398
	  176 D(21,7,8,22)    =      0.858089    -0.000000    -0.042244     0.815845
	  177 D(21,7,9,34)    =      1.918198     0.000000     0.053770     1.971968
	  178 D(23,11,13,25)  =     -0.552222     0.000000     0.015961    -0.536261
	  179 D(24,12,14,26)  =     -0.198892     0.000000     0.006149    -0.192743
	  180 D(25,13,15,27)  =      0.046456     0.000000     0.007260     0.053716
	  181 D(26,14,15,27)  =      0.338994    -0.000000     0.001973     0.340968
	  182 D(28,16,18,30)  =      0.739982     0.000000     0.008553     0.748535
	  183 D(29,17,19,31)  =      0.405112     0.000000     0.014953     0.420065
	  184 D(30,18,20,32)  =      0.375498     0.000000    -0.007608     0.367890
	  185 D(31,19,20,32)  =     -1.931550    -0.000000    -0.002026    -1.933576
	  186 D(33,6,9,34)    =      0.285663    -0.000000    -0.075216     0.210447
	  187 R(1,17)         =      3.289660    -0.000117    -0.000675     3.288984
	  188 R(4,6)          =      3.450824    -0.000282    -0.000199     3.450626
	  189 R(4,12)         =      3.642866     0.000453     0.001126     3.643992
	  190 R(6,17)         =      3.257910     0.000301     0.000052     3.257962
	  191 R(8,11)         =      3.327151    -0.000029     0.000128     3.327280
	  192 R(10,22)        =      3.102477     0.000170     0.000531     3.103009
	  193 R(11,22)        =      3.043342     0.000329     0.000538     3.043881
	 ---------------------------------------------------------------------------
	Successfully symmetrized geometry.

  ==> Convergence Check <==

  Measures of convergence in internal coordinates in au.
  Criteria marked as inactive (o), active & met (*), and active & unmet ( ).
  ---------------------------------------------------------------------------------------------
   Step     Total Energy     Delta E     MAX Force     RMS Force      MAX Disp      RMS Disp   
  ---------------------------------------------------------------------------------------------
    Convergence Criteria             o    2.50e-03 *    1.70e-03 *    1.00e-02 *    6.70e-03 *
  ---------------------------------------------------------------------------------------------
      4    -895.96531931   -8.84e-06 o    1.45e-04 *    3.41e-05 *    4.80e-03 *    8.63e-04 *  ~
  ---------------------------------------------------------------------------------------------


  **** Optimization is complete! (in 4 steps) ****

  ==> Optimization Summary <==

  Measures of convergence in internal coordinates in au.
  --------------------------------------------------------------------------------------------------------------- ~
   Step         Total Energy             Delta E       MAX Force       RMS Force        MAX Disp        RMS Disp  ~
  --------------------------------------------------------------------------------------------------------------- ~
      1    -895.965193567118   -895.965193567118      0.00207284      0.00033908      0.03413182      0.00719500  ~
      2    -895.965234868407     -0.000041301289      0.00125701      0.00024006      0.02155978      0.00431879  ~
      3    -895.965310478348     -0.000075609942      0.00063273      0.00008584      0.01114240      0.00228873  ~
      4    -895.965319313395     -0.000008835047      0.00014499      0.00003405      0.00480042      0.00086290  ~
  --------------------------------------------------------------------------------------------------------------- ~

	Writing optimization data to binary file.
	Final energy is   -895.9653193133950
	Final (previous) structure:
	Cartesian Geometry (in Angstrom)
	    C    -0.5868014196   1.6031146938   0.4282418032
	    C    -0.8352856889   0.2774847018   0.2771207164
	    N    -0.2164478729  -0.6672515449   1.1165811082
	    C     1.1578114518  -1.0413302593   1.0535222004
	    H    -0.8104228574  -1.4646555582   1.2890718278
	    C     0.1745831563   2.2353573097   1.5060373570
	    N    -0.4783008760   3.8524124111   0.0802079451
	    C    -1.0034059498   2.6998571667  -0.4934784690
	    C     0.2048468377   3.5614237657   1.2711235925
	    C    -1.8187021737  -0.2933486374  -0.6752937658
	    C    -3.1395684575   0.1594422736  -0.7237786191
	    C    -1.4277399808  -1.3623757164  -1.4925187500
	    C    -4.0528407327  -0.4383374590  -1.5852347887
	    C    -2.3395659719  -1.9505875149  -2.3632290222
	    C    -3.6545126739  -1.4904945505  -2.4084300770
	    C     1.5025108713  -2.3544389973   1.3933374746
	    C     2.1693818073  -0.1826980065   0.6184756851
	    C     2.8172865016  -2.7934730833   1.3221729264
	    C     3.4885177557  -0.6214568321   0.5545418735
	    C     3.8413109289  -1.9282361366   0.9121712714
	    H    -0.5975675697   4.7576499485  -0.3306785240
	    O    -1.6448888115   2.6762317053  -1.5566259746
	    H    -3.4402833499   0.9843492906  -0.0940018368
	    H    -0.4056942020  -1.7173348753  -1.4519254757
	    H    -5.0727613693  -0.0809973718  -1.6184508820
	    H    -2.0258306781  -2.7631838115  -3.0042431819
	    H    -4.3656228633  -1.9498204929  -3.0817894700
	    H     0.7304222134  -3.0472769017   1.7073925742
	    H     1.9368620166   0.8304281202   0.3285587953
	    H     3.0513973658  -3.8213140602   1.5687021351
	    H     4.2554915918   0.0666786718   0.2208964521
	    N     5.1560722874  -2.3784350939   0.8109019459
	    H     0.5904316198   1.7179931158   2.3516892513
	    H     0.6397314208   4.3515249312   1.8576806273
	    H     5.4684495459  -3.1255270301   1.4010389094
	    H     5.8635670406  -1.7452569240   0.4901490047
	Saving final (previous) structure.
			--------------------------
			 OPTKING Finished Execution 
			--------------------------

    Final optimized geometry and variables:
    Molecular point group: c1
    Full point group: C1

    Geometry (in Angstrom), charge = 0, multiplicity = 1:

    C           -0.586801421941     1.603114700102     0.428241804882
    C           -0.835285692217     0.277484702897     0.277120717492
    N           -0.216447873786    -0.667251547520     1.116581112560
    C            1.157811456395    -1.041330263366     1.053522204580
    H           -0.810422860630    -1.464655563925     1.289071832905
    C            0.174583157024     2.235357318500     1.506037362924
    N           -0.478300877924     3.852412426282     0.080207945395
    C           -1.003405953788     2.699857177291    -0.493478470961
    C            0.204846838477     3.561423779652     1.271123597495
    C           -1.818702180857    -0.293348638555    -0.675293768475
    C           -3.139568469799     0.159442274275    -0.723778621981
    C           -1.427739986383    -1.362375721716    -1.492518755887
    C           -4.052840748650    -0.438337460675    -1.585234794969
    C           -2.339565981085    -1.950587522534    -2.363229031481
    C           -3.654512688309    -1.490494556376    -2.408430086479
    C            1.502510877164    -2.354439006540     1.393337480125
    C            2.169381815845    -0.182698007172     0.618475687491
    C            2.817286512625    -2.793473094303     1.322172931587
    C            3.488517769390    -0.621456834581     0.554541875718
    C            3.841310943988    -1.928236144176     0.912171274961
    H           -0.597567572065     4.757649967194    -0.330678525291
    O           -1.644888817923     2.676231715809    -1.556625980691
    H           -3.440283363448     0.984349294514    -0.094001837121
    H           -0.405694203612    -1.717334882044    -1.451925481457
    H           -5.072761389234    -0.080997372128    -1.618450888391
    H           -2.025830686088    -2.763183822351    -3.004243193714
    H           -4.365622880424    -1.949820500611    -3.081789482105
    H            0.730422216307    -3.047276913666     1.707392580914
    H            1.936862024171     0.830428123449     0.328558796614
    H            3.051397377808    -3.821314075265     1.568702141279
    H            4.255491608548     0.066678672023     0.220896453016
    N            5.156072307658    -2.378435103272     0.810901949076
    H            0.590431622164     1.717993122569     2.351689260518
    H            0.639731423303     4.351524948324     1.857680634638
    H            5.468449567389    -3.125527042364     1.401038914931
    H            5.863567063646    -1.745256930816     0.490149006657

	Removing binary optimization data file.
	Cleaning optimization helper files.

    Psi4 stopped on: Sunday, 07 November 2021 04:36AM
    Psi4 wall time for execution: 3:12:58.91

*** Psi4 exiting successfully. Buy a developer a beer!
