
    -----------------------------------------------------------------------
          Psi4: An Open-Source Ab Initio Electronic Structure Package
                               Psi4 1.3.2 release

                         Git: Rev {HEAD} ecbda83 


    R. M. Parrish, L. A. Burns, D. G. A. Smith, A. C. Simmonett,
    A. E. DePrince III, E. G. Hohenstein, U. Bozkaya, A. Yu. Sokolov,
    R. Di Remigio, R. M. Richard, J. F. Gonthier, A. M. James,
    H. R. McAlexander, A. Kumar, M. Saitow, X. Wang, B. P. Pritchard,
    P. Verma, H. F. Schaefer III, K. Patkowski, R. A. King, E. F. Valeev,
    F. A. Evangelista, J. M. Turney, T. D. Crawford, and C. D. Sherrill,
    J. Chem. Theory Comput. 13(7) pp 3185--3197 (2017).
    (doi: 10.1021/acs.jctc.7b00174)


                         Additional Contributions by
    P. Kraus, H. Kruse, M. H. Lechner, M. C. Schieber, R. A. Shaw,
    A. Alenaizan, R. Galvelis, Z. L. Glick, S. Lehtola, and J. P. Misiewicz

    -----------------------------------------------------------------------


    Psi4 started on: Friday, 05 November 2021 08:36AM

    Process ID: 14501
    Host:       node44.bme.utexas.edu
    PSIDATADIR: /home/bdw2292/miniconda3/envs/amoebamdpoltype/share/psi4
    Memory:     500.0 MiB
    Threads:    1
    
  ==> Input File <==

--------------------------------------------------------------------------
molecule { 
0 1
 C   -0.658782    1.365965   -0.052375
 C   -0.800834    0.010006    0.158021
 N    0.241252   -0.754175    0.742026
 C    1.671165   -0.793180    0.578867
 H   -0.025414   -0.979120    1.701063
 C   -0.408831    2.383214    0.953330
 N   -0.565911    3.412815   -1.050676
 C   -0.754227    2.077207   -1.375689
 C   -0.361670    3.581275    0.311934
 C   -2.052542   -0.744861   -0.100718
 C   -3.291966   -0.308985    0.431063
 C   -2.008816   -1.960495   -0.827108
 C   -4.457634   -1.055914    0.216355
 C   -3.175787   -2.704174   -1.040028
 C   -4.408105   -2.255718   -0.522479
 C    2.414225   -1.742707    1.327018
 C    2.383397    0.042623   -0.318819
 C    3.808036   -1.824442    1.208821
 C    3.778146   -0.045189   -0.432965
 C    4.523844   -0.969993    0.337082
 H   -0.584593    4.134973   -1.756494
 O   -0.945747    1.678191   -2.523426
 H   -3.338115    0.612476    1.013699
 H   -1.055795   -2.315681   -1.221622
 H   -5.404483   -0.704059    0.628729
 H   -3.124333   -3.634534   -1.607263
 H   -5.317269   -2.835826   -0.690243
 H    1.906297   -2.429968    2.008411
 H    1.864280    0.765461   -0.947513
 H    4.339459   -2.569070    1.805664
 H    4.286845    0.616941   -1.137288
 N    5.942925   -1.056959    0.219578
 H   -0.280936    2.213623    2.012611
 H   -0.196891    4.573681    0.708795
 H    6.402753   -1.391504    1.066970
 H    6.381821   -0.183242   -0.072698
}
set optking { 
  frozen_dihedral = ("
    1 2 3 4
    10 2 3 4
    1 2 10 11
    1 2 10 12
    3 2 10 11
    16 4 3 2
    18 20 32 35
  ")
}
set {
  geom_maxiter 400
  g_convergence GAU_LOOSE
  dynamic_level 1
}
memory 8.333333333333334GB
set_num_threads(1)
psi4_io.set_default_path("/scratch/bdw2292/Psi4-7_1_Index_0_GrowFragment_0-farH_in17")
for _ in range(1):
  try:
    set opt_coordinates both
    optimize('wb97x-d/6-311G')
    break
  except OptimizationConvergenceError:
    break
  else:
    try:
      set opt_coordinates cartesian
      optimize('wb97x-d/6-311G')
      break
    except OptimizationConvergenceError:
      pass
clean()
--------------------------------------------------------------------------

  Memory set to   7.761 GiB by Python driver.
  Threads set to 1 by Python driver.
gradient() will perform analytic gradient computation.

*** tstart() called on node44.bme.utexas.edu
*** at Fri Nov  5 08:36:01 2021

   => Loading Basis Set <=

    Name: 6-311G
    Role: ORBITAL
    Keyword: BASIS
    atoms 1-2, 4, 6, 8-20     entry C          line    92 file /home/bdw2292/miniconda3/envs/amoebamdpoltype/share/psi4/basis/6-311g.gbs 
    atoms 3, 7, 32            entry N          line   109 file /home/bdw2292/miniconda3/envs/amoebamdpoltype/share/psi4/basis/6-311g.gbs 
    atoms 5, 21, 23-31, 33-36 entry H          line    21 file /home/bdw2292/miniconda3/envs/amoebamdpoltype/share/psi4/basis/6-311g.gbs 
    atoms 22                  entry O          line   126 file /home/bdw2292/miniconda3/envs/amoebamdpoltype/share/psi4/basis/6-311g.gbs 


         ---------------------------------------------------------
                                   SCF
               by Justin Turney, Rob Parrish, Andy Simmonett
                          and Daniel G. A. Smith
                              RKS Reference
                        1 Threads,   7947 MiB Core
         ---------------------------------------------------------

  ==> Geometry <==

    Molecular point group: c1
    Full point group: C1

    Geometry (in Angstrom), charge = 0, multiplicity = 1:

       Center              X                  Y                   Z               Mass       
    ------------   -----------------  -----------------  -----------------  -----------------
         C           -0.744811809407     1.417319983083     0.048090806773    12.000000000000
         C           -0.886863809407     0.061360983083     0.258486806773    12.000000000000
         N            0.155222190593    -0.702820016917     0.842491806773    14.003074004430
         C            1.585135190593    -0.741825016917     0.679332806773    12.000000000000
         H           -0.111443809407    -0.927765016917     1.801528806773     1.007825032230
         C           -0.494860809407     2.434568983083     1.053795806773    12.000000000000
         N           -0.651940809407     3.464169983083    -0.950210193227    14.003074004430
         C           -0.840256809407     2.128561983083    -1.275223193227    12.000000000000
         C           -0.447699809407     3.632629983083     0.412399806773    12.000000000000
         C           -2.138571809407    -0.693506016917    -0.000252193227    12.000000000000
         C           -3.377995809407    -0.257630016917     0.531528806773    12.000000000000
         C           -2.094845809407    -1.909140016917    -0.726642193227    12.000000000000
         C           -4.543663809407    -1.004559016917     0.316820806773    12.000000000000
         C           -3.261816809407    -2.652819016917    -0.939562193227    12.000000000000
         C           -4.494134809407    -2.204363016917    -0.422013193227    12.000000000000
         C            2.328195190593    -1.691352016917     1.427483806773    12.000000000000
         C            2.297367190593     0.093977983083    -0.218353193227    12.000000000000
         C            3.722006190593    -1.773087016917     1.309286806773    12.000000000000
         C            3.692116190593     0.006165983083    -0.332499193227    12.000000000000
         C            4.437814190593    -0.918638016917     0.437547806773    12.000000000000
         H           -0.670622809407     4.186327983083    -1.656028193227     1.007825032230
         O           -1.031776809407     1.729545983083    -2.422960193227    15.994914619570
         H           -3.424144809407     0.663830983083     1.114164806773     1.007825032230
         H           -1.141824809407    -2.264326016917    -1.121156193227     1.007825032230
         H           -5.490512809407    -0.652704016917     0.729194806773     1.007825032230
         H           -3.210362809407    -3.583179016917    -1.506797193227     1.007825032230
         H           -5.403298809407    -2.784471016917    -0.589777193227     1.007825032230
         H            1.820267190593    -2.378613016917     2.108876806773     1.007825032230
         H            1.778250190593     0.816815983083    -0.847047193227     1.007825032230
         H            4.253429190593    -2.517715016917     1.906129806773     1.007825032230
         H            4.200815190593     0.668295983083    -1.036822193227     1.007825032230
         N            5.856895190593    -1.005604016917     0.320043806773    14.003074004430
         H           -0.366965809407     2.264977983083     2.113076806773     1.007825032230
         H           -0.282920809407     4.625035983083     0.809260806773     1.007825032230
         H            6.316723190593    -1.340149016917     1.167435806773     1.007825032230
         H            6.295791190593    -0.131887016917     0.027767806773     1.007825032230

  Running in c1 symmetry.

  Rotational constants: A =      0.01459  B =      0.00656  C =      0.00510 [cm^-1]
  Rotational constants: A =    437.39751  B =    196.73844  C =    153.00566 [MHz]
  Nuclear repulsion = 1510.541244144181519

  Charge       = 0
  Multiplicity = 1
  Electrons    = 146
  Nalpha       = 73
  Nbeta        = 73

  ==> Algorithm <==

  SCF Algorithm Type is DF.
  DIIS enabled.
  MOM disabled.
  Fractional occupation disabled.
  Guess Type is SAD.
  Energy threshold   = 1.00e-08
  Density threshold  = 1.00e-08
  Integral threshold = 0.00e+00

  ==> Primary Basis <==

  Basis Set: 6-311G
    Blend: 6-311G
    Number of shells: 192
    Number of basis function: 318
    Number of Cartesian functions: 318
    Spherical Harmonics?: true
    Max angular momentum: 1

  ==> DFT Potential <==

   => Composite Functional: WB97X-D <= 

    wB97X-D Hyb-GGA Exchange-Correlation Functional

    J.-D. Chai and M. Head-Gordon, Phys. Chem. Chem. Phys. 10, 6615 (2008)

    Deriv               =              1
    GGA                 =           TRUE
    Meta                =          FALSE

    Exchange Hybrid     =           TRUE
    MP2 Hybrid          =          FALSE

   => Exchange-Correlation Functionals <=

    1.0000   wB97D range-separated functional

   => Exact (HF) Exchange <=

    0.7780            HF,LR [omega = 0.2000]
    0.2220               HF 

   => Molecular Quadrature <=

    Radial Scheme          =       TREUTLER
    Pruning Scheme         =           FLAT
    Nuclear Scheme         =       TREUTLER

    BS radius alpha        =              1
    Pruning alpha          =              1
    Radial Points          =             75
    Spherical Points       =            302
    Total Points           =         806713
    Total Blocks           =           5749
    Max Points             =            256
    Max Functions          =            221

   => WB97X-D: Empirical Dispersion <=

    Chai and Head-Gordon Dispersion Correction
    Chai, J.-D.; Head-Gordon, M. (2010), J. Chem. Phys., 132: 6615-6620

        s6 =       1.000000

   => Loading Basis Set <=

    Name: (6-311G AUX)
    Role: JKFIT
    Keyword: DF_BASIS_SCF
    atoms 1-2, 4, 6, 8-20     entry C          line   125 file /home/bdw2292/miniconda3/envs/amoebamdpoltype/share/psi4/basis/cc-pvtz-jkfit.gbs 
    atoms 3, 7, 32            entry N          line   177 file /home/bdw2292/miniconda3/envs/amoebamdpoltype/share/psi4/basis/cc-pvtz-jkfit.gbs 
    atoms 5, 21, 23-31, 33-36 entry H          line    51 file /home/bdw2292/miniconda3/envs/amoebamdpoltype/share/psi4/basis/cc-pvtz-jkfit.gbs 
    atoms 22                  entry O          line   229 file /home/bdw2292/miniconda3/envs/amoebamdpoltype/share/psi4/basis/cc-pvtz-jkfit.gbs 

  ==> Pre-Iterations <==

   -------------------------------------------------------
    Irrep   Nso     Nmo     Nalpha   Nbeta   Ndocc  Nsocc
   -------------------------------------------------------
     A        318     318       0       0       0       0
   -------------------------------------------------------
    Total     318     318      73      73      73       0
   -------------------------------------------------------

  ==> Integral Setup <==

  ==> DiskDFJK: Density-Fitted J/K Matrices <==

    J tasked:                  Yes
    K tasked:                  Yes
    wK tasked:                 Yes
    Omega:               2.000E-01
    OpenMP threads:              1
    Integrals threads:           1
    Memory [MiB]:             2645
    Algorithm:                Core
    Integral Cache:           NONE
    Schwarz Cutoff:          1E-12
    Fitting Condition:       1E-10

   => Auxiliary Basis Set <=

  Basis Set: (6-311G AUX)
    Blend: CC-PVTZ-JKFIT
    Number of shells: 675
    Number of basis function: 2109
    Number of Cartesian functions: 2541
    Spherical Harmonics?: true
    Max angular momentum: 4

  Cached 100.0% of DFT collocation blocks in 3.238 [GiB].

  Minimum eigenvalue in the overlap matrix is 2.6021374804E-04.
  Using Symmetric Orthogonalization.

  SCF Guess: Superposition of Atomic Densities via on-the-fly atomic UHF.

  ==> Iterations <==

                           Total Energy        Delta E     RMS |[F,P]|

   @DF-RKS iter SAD:  -895.01688419274092   -8.95017e+02   0.00000e+00 
   @DF-RKS iter   1:  -895.24825180977757   -2.31368e-01   3.66492e-03 DIIS
   @DF-RKS iter   2:  -895.44822926331949   -1.99977e-01   3.35143e-03 DIIS
   @DF-RKS iter   3:  -895.86699438017968   -4.18765e-01   9.35819e-04 DIIS
   @DF-RKS iter   4:  -895.90223218030360   -3.52378e-02   1.94413e-04 DIIS
   @DF-RKS iter   5:  -895.90386382768258   -1.63165e-03   7.41477e-05 DIIS
   @DF-RKS iter   6:  -895.90417335283871   -3.09525e-04   1.71547e-05 DIIS
   @DF-RKS iter   7:  -895.90421897385511   -4.56210e-05   1.09979e-05 DIIS
   @DF-RKS iter   8:  -895.90423429082512   -1.53170e-05   4.17081e-06 DIIS
   @DF-RKS iter   9:  -895.90424036752449   -6.07670e-06   2.94055e-06 DIIS
   @DF-RKS iter  10:  -895.90424149200396   -1.12448e-06   6.91574e-07 DIIS
   @DF-RKS iter  11:  -895.90424160217378   -1.10170e-07   3.50993e-07 DIIS
   @DF-RKS iter  12:  -895.90424162260911   -2.04353e-08   1.27646e-07 DIIS
   @DF-RKS iter  13:  -895.90424162724707   -4.63797e-09   6.46088e-08 DIIS
   @DF-RKS iter  14:  -895.90424162773593   -4.88853e-10   3.29824e-08 DIIS
   @DF-RKS iter  15:  -895.90424162793397   -1.98042e-10   8.76144e-09 DIIS
  Energy and wave function converged.


  ==> Post-Iterations <==

    Orbital Energies [Eh]
    ---------------------

    Doubly Occupied:                                                      

       1A    -19.198864     2A    -14.473286     3A    -14.461155  
       4A    -14.440698     5A    -10.384079     6A    -10.362177  
       7A    -10.344348     8A    -10.340468     9A    -10.323589  
      10A    -10.313389    11A    -10.306146    12A    -10.305984  
      13A    -10.302655    14A    -10.302220    15A    -10.301928  
      16A    -10.300147    17A    -10.296829    18A    -10.296281  
      19A    -10.294539    20A    -10.293490    21A    -10.283493  
      22A     -1.140783    23A     -1.058813    24A     -1.053335  
      25A     -1.021803    26A     -0.969367    27A     -0.943937  
      28A     -0.902204    29A     -0.869262    30A     -0.855850  
      31A     -0.853547    32A     -0.832408    33A     -0.812797  
      34A     -0.763539    35A     -0.720467    36A     -0.712146  
      37A     -0.703946    38A     -0.700575    39A     -0.683367  
      40A     -0.650806    41A     -0.625838    42A     -0.623759  
      43A     -0.600437    44A     -0.597439    45A     -0.587576  
      46A     -0.570044    47A     -0.561458    48A     -0.538721  
      49A     -0.534788    50A     -0.530311    51A     -0.523278  
      52A     -0.516759    53A     -0.515350    54A     -0.512386  
      55A     -0.508633    56A     -0.496754    57A     -0.486698  
      58A     -0.478207    59A     -0.471470    60A     -0.459466  
      61A     -0.445047    62A     -0.434607    63A     -0.432357  
      64A     -0.421121    65A     -0.404080    66A     -0.363511  
      67A     -0.343903    68A     -0.337290    69A     -0.335292  
      70A     -0.332213    71A     -0.322419    72A     -0.272147  
      73A     -0.242912  

    Virtual:                                                              

      74A     -0.029210    75A      0.055700    76A      0.058994  
      77A      0.063883    78A      0.085159    79A      0.113902  
      80A      0.117710    81A      0.126674    82A      0.130788  
      83A      0.135603    84A      0.143926    85A      0.151679  
      86A      0.158940    87A      0.165333    88A      0.169686  
      89A      0.174541    90A      0.183447    91A      0.194477  
      92A      0.202940    93A      0.203826    94A      0.211455  
      95A      0.222746    96A      0.225088    97A      0.240510  
      98A      0.267426    99A      0.289568   100A      0.295859  
     101A      0.313904   102A      0.318022   103A      0.327539  
     104A      0.330340   105A      0.343418   106A      0.346676  
     107A      0.353846   108A      0.360215   109A      0.370981  
     110A      0.376760   111A      0.379817   112A      0.385554  
     113A      0.387435   114A      0.416217   115A      0.420069  
     116A      0.430180   117A      0.435306   118A      0.447877  
     119A      0.455666   120A      0.458045   121A      0.469850  
     122A      0.472417   123A      0.474838   124A      0.484584  
     125A      0.485049   126A      0.491170   127A      0.495942  
     128A      0.496623   129A      0.500290   130A      0.502824  
     131A      0.511273   132A      0.513148   133A      0.518861  
     134A      0.526182   135A      0.532978   136A      0.540076  
     137A      0.543527   138A      0.546648   139A      0.551421  
     140A      0.562436   141A      0.568910   142A      0.577699  
     143A      0.583097   144A      0.589085   145A      0.594825  
     146A      0.607142   147A      0.614923   148A      0.618205  
     149A      0.623160   150A      0.629023   151A      0.643032  
     152A      0.644997   153A      0.656583   154A      0.660950  
     155A      0.669228   156A      0.686532   157A      0.691823  
     158A      0.694449   159A      0.696229   160A      0.705316  
     161A      0.710263   162A      0.720319   163A      0.726518  
     164A      0.729606   165A      0.732692   166A      0.736895  
     167A      0.740267   168A      0.751137   169A      0.756478  
     170A      0.763811   171A      0.769394   172A      0.772650  
     173A      0.777348   174A      0.788150   175A      0.792387  
     176A      0.802093   177A      0.821496   178A      0.838086  
     179A      0.842645   180A      0.849156   181A      0.857055  
     182A      0.860440   183A      0.866463   184A      0.874375  
     185A      0.877704   186A      0.893505   187A      0.910698  
     188A      0.915492   189A      0.929031   190A      0.942946  
     191A      0.946467   192A      0.957828   193A      0.967775  
     194A      0.978002   195A      0.982443   196A      0.991876  
     197A      1.009689   198A      1.013858   199A      1.027422  
     200A      1.047575   201A      1.054344   202A      1.070894  
     203A      1.089485   204A      1.096837   205A      1.108278  
     206A      1.132087   207A      1.134017   208A      1.146833  
     209A      1.158248   210A      1.190052   211A      1.223386  
     212A      1.274066   213A      1.324045   214A      1.359095  
     215A      1.370249   216A      1.450787   217A      1.487293  
     218A      1.592304   219A      1.847512   220A      2.266686  
     221A      2.297738   222A      2.327023   223A      2.345474  
     224A      2.347389   225A      2.356382   226A      2.368599  
     227A      2.379801   228A      2.385579   229A      2.419168  
     230A      2.440939   231A      2.458969   232A      2.462658  
     233A      2.562568   234A      2.608670   235A      2.624529  
     236A      2.629032   237A      2.655874   238A      2.661459  
     239A      2.670320   240A      2.680600   241A      2.693391  
     242A      2.725226   243A      2.771106   244A      2.773087  
     245A      2.791242   246A      2.803188   247A      2.814686  
     248A      2.830603   249A      2.830990   250A      2.833067  
     251A      2.839469   252A      2.848817   253A      2.861329  
     254A      2.881506   255A      2.909042   256A      2.929367  
     257A      2.949060   258A      2.975270   259A      2.985542  
     260A      3.000864   261A      3.013275   262A      3.032004  
     263A      3.069274   264A      3.117121   265A      3.131069  
     266A      3.143451   267A      3.159210   268A      3.183409  
     269A      3.213168   270A      3.214635   271A      3.230594  
     272A      3.251799   273A      3.267695   274A      3.284350  
     275A      3.298817   276A      3.308305   277A      3.320229  
     278A      3.323888   279A      3.334193   280A      3.349297  
     281A      3.358851   282A      3.362230   283A      3.439068  
     284A      3.499875   285A      3.535169   286A      3.825769  
     287A      3.830947   288A      3.953642   289A      4.073453  
     290A      4.091565   291A      4.109291   292A      4.170283  
     293A      4.239913   294A      4.300918   295A      5.006677  
     296A      5.087264   297A      5.124887   298A     23.227437  
     299A     23.249538   300A     23.358427   301A     23.470660  
     302A     23.477533   303A     23.483749   304A     23.499526  
     305A     23.529507   306A     23.611790   307A     23.702246  
     308A     23.724586   309A     23.741210   310A     23.757982  
     311A     23.791143   312A     23.865607   313A     23.981047  
     314A     23.985531   315A     35.519153   316A     35.534135  
     317A     35.586147   318A     50.091574  

    Final Occupation by Irrep:
              A 
    DOCC [    73 ]

  @DF-RKS Final Energy:  -895.90424162793397

   => Energetics <=

    Nuclear Repulsion Energy =           1510.5412441441815190
    One-Electron Energy =               -4214.1691661602335444
    Two-Electron Energy =                1895.3249801120471147
    DFT Exchange-Correlation Energy =     -87.5767536992306361
    Empirical Dispersion Energy =          -0.0245460246982728
    VV10 Nonlocal Energy =                  0.0000000000000000
    Total Energy =                       -895.9042416279339704

Computation Completed


Properties will be evaluated at   0.000000,   0.000000,   0.000000 [a0]

Properties computed using the SCF density matrix

  Nuclear Dipole Moment: [e a0]
     X:     4.2573      Y:    -3.1425      Z:     4.6937

  Electronic Dipole Moment: [e a0]
     X:    -3.6724      Y:     3.4369      Z:    -2.7304

  Dipole Moment: [e a0]
     X:     0.5849      Y:     0.2944      Z:     1.9632     Total:     2.0695

  Dipole Moment: [D]
     X:     1.4868      Y:     0.7482      Z:     4.9900     Total:     5.2603


*** tstop() called on node44.bme.utexas.edu at Fri Nov  5 08:44:46 2021
Module time:
	user time   =     505.28 seconds =       8.42 minutes
	system time =      19.16 seconds =       0.32 minutes
	total time  =        525 seconds =       8.75 minutes
Total time:
	user time   =     505.28 seconds =       8.42 minutes
	system time =      19.16 seconds =       0.32 minutes
	total time  =        525 seconds =       8.75 minutes

*** tstart() called on node44.bme.utexas.edu
*** at Fri Nov  5 08:44:46 2021


         ------------------------------------------------------------
                                   SCF GRAD                          
                          Rob Parrish, Justin Turney,                
                       Andy Simmonett, and Alex Sokolov              
         ------------------------------------------------------------

  ==> Geometry <==

    Molecular point group: c1
    Full point group: C1

    Geometry (in Angstrom), charge = 0, multiplicity = 1:

       Center              X                  Y                   Z               Mass       
    ------------   -----------------  -----------------  -----------------  -----------------
         C           -0.744811809407     1.417319983083     0.048090806773    12.000000000000
         C           -0.886863809407     0.061360983083     0.258486806773    12.000000000000
         N            0.155222190593    -0.702820016917     0.842491806773    14.003074004430
         C            1.585135190593    -0.741825016917     0.679332806773    12.000000000000
         H           -0.111443809407    -0.927765016917     1.801528806773     1.007825032230
         C           -0.494860809407     2.434568983083     1.053795806773    12.000000000000
         N           -0.651940809407     3.464169983083    -0.950210193227    14.003074004430
         C           -0.840256809407     2.128561983083    -1.275223193227    12.000000000000
         C           -0.447699809407     3.632629983083     0.412399806773    12.000000000000
         C           -2.138571809407    -0.693506016917    -0.000252193227    12.000000000000
         C           -3.377995809407    -0.257630016917     0.531528806773    12.000000000000
         C           -2.094845809407    -1.909140016917    -0.726642193227    12.000000000000
         C           -4.543663809407    -1.004559016917     0.316820806773    12.000000000000
         C           -3.261816809407    -2.652819016917    -0.939562193227    12.000000000000
         C           -4.494134809407    -2.204363016917    -0.422013193227    12.000000000000
         C            2.328195190593    -1.691352016917     1.427483806773    12.000000000000
         C            2.297367190593     0.093977983083    -0.218353193227    12.000000000000
         C            3.722006190593    -1.773087016917     1.309286806773    12.000000000000
         C            3.692116190593     0.006165983083    -0.332499193227    12.000000000000
         C            4.437814190593    -0.918638016917     0.437547806773    12.000000000000
         H           -0.670622809407     4.186327983083    -1.656028193227     1.007825032230
         O           -1.031776809407     1.729545983083    -2.422960193227    15.994914619570
         H           -3.424144809407     0.663830983083     1.114164806773     1.007825032230
         H           -1.141824809407    -2.264326016917    -1.121156193227     1.007825032230
         H           -5.490512809407    -0.652704016917     0.729194806773     1.007825032230
         H           -3.210362809407    -3.583179016917    -1.506797193227     1.007825032230
         H           -5.403298809407    -2.784471016917    -0.589777193227     1.007825032230
         H            1.820267190593    -2.378613016917     2.108876806773     1.007825032230
         H            1.778250190593     0.816815983083    -0.847047193227     1.007825032230
         H            4.253429190593    -2.517715016917     1.906129806773     1.007825032230
         H            4.200815190593     0.668295983083    -1.036822193227     1.007825032230
         N            5.856895190593    -1.005604016917     0.320043806773    14.003074004430
         H           -0.366965809407     2.264977983083     2.113076806773     1.007825032230
         H           -0.282920809407     4.625035983083     0.809260806773     1.007825032230
         H            6.316723190593    -1.340149016917     1.167435806773     1.007825032230
         H            6.295791190593    -0.131887016917     0.027767806773     1.007825032230

  Nuclear repulsion = 1510.541244144181519

  ==> Basis Set <==

  Basis Set: 6-311G
    Blend: 6-311G
    Number of shells: 192
    Number of basis function: 318
    Number of Cartesian functions: 318
    Spherical Harmonics?: true
    Max angular momentum: 1

  ==> DFJKGrad: Density-Fitted SCF Gradients <==

    Gradient:                    1
    J tasked:                  Yes
    K tasked:                  Yes
    wK tasked:                 Yes
    Omega:               2.000E-01
    OpenMP threads:              1
    Integrals threads:           1
    Memory [MiB]:             5960
    Schwarz Cutoff:          0E+00
    Fitting Condition:       1E-10

   => Auxiliary Basis Set <=

  Basis Set: (6-311G AUX)
    Blend: CC-PVTZ-JKFIT
    Number of shells: 675
    Number of basis function: 2109
    Number of Cartesian functions: 2541
    Spherical Harmonics?: true
    Max angular momentum: 4

  ==> DFT Potential <==

   => Composite Functional: WB97X-D <= 

    wB97X-D Hyb-GGA Exchange-Correlation Functional

    J.-D. Chai and M. Head-Gordon, Phys. Chem. Chem. Phys. 10, 6615 (2008)

    Deriv               =              1
    GGA                 =           TRUE
    Meta                =          FALSE

    Exchange Hybrid     =           TRUE
    MP2 Hybrid          =          FALSE

   => Exchange-Correlation Functionals <=

    1.0000   wB97D range-separated functional

   => Exact (HF) Exchange <=

    0.7780            HF,LR [omega = 0.2000]
    0.2220               HF 

   => Molecular Quadrature <=

    Radial Scheme          =       TREUTLER
    Pruning Scheme         =           FLAT
    Nuclear Scheme         =       TREUTLER

    BS radius alpha        =              1
    Pruning alpha          =              1
    Radial Points          =             75
    Spherical Points       =            302
    Total Points           =         806713
    Total Blocks           =           5749
    Max Points             =            256
    Max Functions          =            221


  -Total Gradient:
     Atom            X                  Y                   Z
    ------   -----------------  -----------------  -----------------
       1        0.005247300268    -0.011412409308     0.013239478166
       2       -0.011203667942     0.013021809157     0.011258153848
       3        0.011104153094    -0.007979605135    -0.036699838744
       4       -0.006514518258    -0.013933097082     0.009490274081
       5       -0.002752985515     0.021028439790     0.007985665987
       6       -0.028021321748    -0.000394715714     0.008014758696
       7       -0.007788144358    -0.006670036774     0.006650884335
       8        0.027873846806    -0.004418386803    -0.029958968528
       9       -0.001774003922    -0.007848519466    -0.008749322375
      10       -0.002409757161     0.008730386423     0.008490327755
      11       -0.004270835610    -0.000974241870     0.007015407255
      12        0.004164221488     0.000499434029    -0.004836296774
      13       -0.002054085983     0.005762873578     0.003070217776
      14        0.002319750552    -0.003324723032    -0.002788315068
      15       -0.006922758671    -0.005765833666    -0.001937376967
      16        0.003233362059    -0.007744901200     0.004555063705
      17        0.000462288331     0.005755204267    -0.004151225951
      18        0.000679518463    -0.003998887662     0.003464007776
      19        0.001356894867     0.006579894408    -0.003309807068
      20        0.003885031243    -0.000081327981     0.000014540978
      21       -0.000220105866     0.004552536071    -0.006494708012
      22       -0.002487741890     0.014536879128     0.017636151957
      23       -0.002014534507     0.004413529610     0.004332551999
      24        0.005452149507    -0.003727649169    -0.002655171910
      25       -0.005520512352     0.002607356266     0.002472619450
      26        0.001105135671    -0.005627289813    -0.002960105458
      27       -0.005620565732    -0.003749041673    -0.001099190455
      28       -0.001390763742    -0.004938209124     0.004778887326
      29       -0.000100830228     0.004056448449    -0.006186725912
      30        0.001988274717    -0.004594595953     0.004164576732
      31        0.002126405655     0.004470781304    -0.004456090453
      32        0.006200465449    -0.014566449841    -0.015684878140
      33        0.000528361836    -0.000349173403     0.003361309462
      34        0.004713493828     0.003672964331    -0.001066521577
      35        0.004297794055     0.003000332478     0.009599008293
      36        0.004236806343     0.009530477607     0.003563213454


*** tstop() called on node44.bme.utexas.edu at Fri Nov  5 08:48:54 2021
Module time:
	user time   =     244.41 seconds =       4.07 minutes
	system time =       3.82 seconds =       0.06 minutes
	total time  =        248 seconds =       4.13 minutes
Total time:
	user time   =     749.69 seconds =      12.49 minutes
	system time =      22.98 seconds =       0.38 minutes
	total time  =        773 seconds =      12.88 minutes

			-----------------------------------------
			 OPTKING 2.0: for geometry optimizations 
			  - R.A. King,  Bethel University        
			-----------------------------------------
	At level 1: Red. Int., RFO, no backsteps, dynamic trust

	Internal coordinates to be generated automatically.
	Detected frag 1 with atoms:  1 2 3 4 5 6 7 8 9 10 11 12 13 14 15 16 17 18 19 20
	 21 22 23 24 25 26 27 28 29 30 31 32 33 34 35 36
	---Fragment 1 Bond Connectivity---
	 1 : 2 6 8
	 2 : 1 3 10
	 3 : 2 4 5
	 4 : 3 16 17
	 5 : 3
	 6 : 1 9 33
	 7 : 8 9 21
	 8 : 1 7 22
	 9 : 6 7 34
	 10 : 2 11 12
	 11 : 10 13 23
	 12 : 10 14 24
	 13 : 11 15 25
	 14 : 12 15 26
	 15 : 13 14 27
	 16 : 4 18 28
	 17 : 4 19 29
	 18 : 16 20 30
	 19 : 17 20 31
	 20 : 18 19 32
	 21 : 7
	 22 : 8
	 23 : 11
	 24 : 12
	 25 : 13
	 26 : 14
	 27 : 15
	 28 : 16
	 29 : 17
	 30 : 18
	 31 : 19
	 32 : 20 35 36
	 33 : 6
	 34 : 9
	 35 : 32
	 36 : 32

	Assuming in current code that numbering for constraints corresponds to unified fragment.
	Frozen dihedral atom list: 
	     1     2     3     4
	    10     2     3     4
	     1     2    10    11
	     1     2    10    12
	     3     2    10    11
	    16     4     3     2
	    18    20    32    35
	---Fragment 1 Geometry and Gradient---
	 C          -1.4074903348        2.6783466002        0.0908784540
	 C          -1.6759297104        0.1159554528        0.4884692718
	 N           0.2933274288       -1.3281373475        1.5920787777
	 C           2.9954713820       -1.4018461150        1.2837529528
	 H          -0.2105982782       -1.7532217908        3.4043960519
	 C          -0.9351514000        4.6006686116        1.9913854670
	 N          -1.2319895798        6.5463325201       -1.7956370268
	 C          -1.5878552448        4.0223991891       -2.4098225840
	 C          -0.8460300262        6.8646757832        0.7793226890
	 C          -4.0413150194       -1.3105364383       -0.0004765761
	 C          -6.3834869327       -0.4868501737        1.0044438726
	 C          -3.9586848548       -3.6077517671       -1.3731547364
	 C          -8.5862802059       -1.8983414188        0.5987045556
	 C          -6.1639404412       -5.0131014024       -1.7755152230
	 C          -8.4926839607       -4.1656423831       -0.7974893565
	 C           4.3996512768       -3.1961920937        2.6975534433
	 C           4.3413947998        0.1775926498       -0.4126277338
	 C           7.0335723375       -3.3506488586        2.4741934845
	 C           6.9770884236        0.0116520193       -0.6283324121
	 C           8.3862534159       -1.7359742604        0.8268455216
	 H          -1.2672934433        7.9110133594       -3.1294397412
	 O          -1.9497755924        3.2683682294       -4.5787311781
	 H          -6.4706959037        1.2544587516        2.1054663434
	 H          -2.1577361730       -4.2789560307       -2.1186781491
	 H         -10.3755654981       -1.2334318330        1.3779784769
	 H          -6.0667064731       -6.7712270005       -2.8474340218
	 H         -10.2107549238       -5.2618876262       -1.1145173702
	 H           3.4398064654       -4.4949271604        3.9851995971
	 H           3.3604058428        1.5435585029       -1.6006872105
	 H           8.0378162642       -4.7577918439        3.6020632944
	 H           7.9383902139        1.2628963788       -1.9593099860
	 N          11.0679278557       -1.9003161826        0.6047951430
	 H          -0.6934648772        4.2801880682        3.9931364469
	 H          -0.5346428450        8.7400513284        1.5292812889
	 H          11.9368768405       -2.5325146093        2.2061339439
	 H          11.8973210933       -0.2492303415        0.0524735499
	             0.0052473003       -0.0114124093        0.0132394782
	            -0.0112036679        0.0130218092        0.0112581538
	             0.0111041531       -0.0079796051       -0.0366998387
	            -0.0065145183       -0.0139330971        0.0094902741
	            -0.0027529855        0.0210284398        0.0079856660
	            -0.0280213217       -0.0003947157        0.0080147587
	            -0.0077881444       -0.0066700368        0.0066508843
	             0.0278738468       -0.0044183868       -0.0299589685
	            -0.0017740039       -0.0078485195       -0.0087493224
	            -0.0024097572        0.0087303864        0.0084903278
	            -0.0042708356       -0.0009742419        0.0070154073
	             0.0041642215        0.0004994340       -0.0048362968
	            -0.0020540860        0.0057628736        0.0030702178
	             0.0023197506       -0.0033247230       -0.0027883151
	            -0.0069227587       -0.0057658337       -0.0019373770
	             0.0032333621       -0.0077449012        0.0045550637
	             0.0004622883        0.0057552043       -0.0041512260
	             0.0006795185       -0.0039988877        0.0034640078
	             0.0013568949        0.0065798944       -0.0033098071
	             0.0038850312       -0.0000813280        0.0000145410
	            -0.0002201059        0.0045525361       -0.0064947080
	            -0.0024877419        0.0145368791        0.0176361520
	            -0.0020145345        0.0044135296        0.0043325520
	             0.0054521495       -0.0037276492       -0.0026551719
	            -0.0055205124        0.0026073563        0.0024726194
	             0.0011051357       -0.0056272898       -0.0029601055
	            -0.0056205657       -0.0037490417       -0.0010991905
	            -0.0013907637       -0.0049382091        0.0047788873
	            -0.0001008302        0.0040564484       -0.0061867259
	             0.0019882747       -0.0045945960        0.0041645767
	             0.0021264057        0.0044707813       -0.0044560905
	             0.0062004654       -0.0145664498       -0.0156848781
	             0.0005283618       -0.0003491734        0.0033613095
	             0.0047134938        0.0036729643       -0.0010665216
	             0.0042977941        0.0030003325        0.0095990083
	             0.0042368063        0.0095304776        0.0035632135

	Previous optimization step data not found.  Starting new optimization.

	---Fragment 1 Intrafragment Coordinates---
	 - Coordinate -           - BOHR/RAD -       - ANG/DEG -
	 R(1,2)           =         2.606911	       1.379518
	 R(1,6)           =         2.744149	       1.452141
	 R(1,8)           =         2.844735	       1.505369
	 R(2,3)           =         2.679801	       1.418089
	 R(2,10)          =         2.805173	       1.484434
	 R(3,4)           =         2.720676	       1.439720
	 R(3,5)           =         1.928505	       1.020521
	 R(4,16)          =         2.681461	       1.418968
	 R(4,17)          =         2.680269	       1.418337
	 R(6,9)           =         2.569585	       1.359766
	 R(6,33)          =         2.041599	       1.080368
	 R(7,8)           =         2.621851	       1.387424
	 R(7,9)           =         2.623114	       1.388092
	 R(7,21)          =         1.908567	       1.009970
	 R(8,22)          =         2.324589	       1.230119
	 R(9,34)          =         2.043632	       1.081444
	 R(10,11)         =         2.678450	       1.417375
	 R(10,12)         =         2.677363	       1.416799
	 R(11,13)         =         2.647495	       1.400994
	 R(11,23)         =         2.062041	       1.091185
	 R(12,14)         =         2.645761	       1.400077
	 R(12,24)         =         2.061489	       1.090893
	 R(13,15)         =         2.664352	       1.409914
	 R(13,25)         =         2.061775	       1.091044
	 R(14,15)         =         2.664164	       1.409815
	 R(14,26)         =         2.061424	       1.090859
	 R(15,27)         =         2.062530	       1.091444
	 R(16,18)         =         2.647883	       1.401200
	 R(16,28)         =         2.065441	       1.092984
	 R(17,19)         =         2.649707	       1.402164
	 R(17,29)         =         2.059050	       1.089602
	 R(18,20)         =         2.674075	       1.415059
	 R(18,30)         =         2.064134	       1.092292
	 R(19,20)         =         2.675348	       1.415733
	 R(19,31)         =         2.064271	       1.092365
	 R(20,32)         =         2.695866	       1.426591
	 R(32,35)         =         1.928479	       1.020507
	 R(32,36)         =         1.928480	       1.020508
	 B(1,2,3)         =         2.113926	     121.119027
	 B(1,2,10)        =         2.165282	     124.061507
	 B(1,6,9)         =         1.871821	     107.247463
	 B(1,6,33)        =         2.201189	     126.118844
	 B(1,8,7)         =         1.813464	     103.903840
	 B(1,8,22)        =         2.314212	     132.594599
	 B(2,1,6)         =         2.215112	     126.916561
	 B(2,1,8)         =         2.204263	     126.294966
	 B(2,3,4)         =         2.343083	     134.248766
	 B(2,3,5)         =         1.889963	     108.286884
	 B(2,10,11)       =         2.112479	     121.036121
	 B(2,10,12)       =         2.094001	     119.977447
	 B(3,2,10)        =         2.001371	     114.670109
	 B(3,4,16)        =         2.069711	     118.585707
	 B(3,4,17)        =         2.158559	     123.676317
	 B(4,3,5)         =         1.939119	     111.103355
	 B(4,16,18)       =         2.112340	     121.028160
	 B(4,16,28)       =         2.101469	     120.405315
	 B(4,17,19)       =         2.110781	     120.938867
	 B(4,17,29)       =         2.113991	     121.122746
	 B(6,1,8)         =         1.863717	     106.783140
	 B(6,9,7)         =         1.929441	     110.548802
	 B(6,9,34)        =         2.266235	     129.845718
	 B(7,8,22)        =         2.155507	     123.501425
	 B(7,9,34)        =         2.087509	     119.605470
	 B(8,7,9)         =         1.946316	     111.515666
	 B(8,7,21)        =         2.120112	     121.473486
	 B(9,6,33)        =         2.210168	     126.633278
	 B(9,7,21)        =         2.216757	     127.010847
	 B(10,11,13)      =         2.101471	     120.405443
	 B(10,11,23)      =         2.090939	     119.801998
	 B(10,12,14)      =         2.103654	     120.530520
	 B(10,12,24)      =         2.084881	     119.454894
	 B(11,10,12)      =         2.075108	     118.894938
	 B(11,13,15)      =         2.099915	     120.316244
	 B(11,13,25)      =         2.085419	     119.485731
	 B(12,14,15)      =         2.098760	     120.250065
	 B(12,14,26)      =         2.086081	     119.523623
	 B(13,11,23)      =         2.090770	     119.792325
	 B(13,15,14)      =         2.087217	     119.588745
	 B(13,15,27)      =         2.098538	     120.237376
	 B(14,12,24)      =         2.094650	     120.014586
	 B(14,15,27)      =         2.097425	     120.173578
	 B(15,13,25)      =         2.097844	     120.197611
	 B(15,14,26)      =         2.098342	     120.226143
	 B(16,4,17)       =         2.054512	     117.714840
	 B(16,18,20)      =         2.117561	     121.327302
	 B(16,18,30)      =         2.068750	     118.530651
	 B(17,19,20)      =         2.118311	     121.370292
	 B(17,19,31)      =         2.068890	     118.538643
	 B(18,16,28)      =         2.069373	     118.566321
	 B(18,20,19)      =         2.052259	     117.585762
	 B(18,20,32)      =         2.114278	     121.139221
	 B(19,17,29)      =         2.058369	     117.935859
	 B(19,20,32)      =         2.116442	     121.263176
	 B(20,18,30)      =         2.096871	     120.141857
	 B(20,19,31)      =         2.095977	     120.090635
	 B(20,32,35)      =         1.982101	     113.566014
	 B(20,32,36)      =         1.981452	     113.528809
	 B(35,32,36)      =         1.901490	     108.947349
	*D(1,2,3,4)       =        -0.738324	     -42.302838
	 D(1,2,3,5)       =         1.850908	     106.049192
	*D(1,2,10,11)     =        -0.895443	     -51.305114
	*D(1,2,10,12)     =         2.307524	     132.211391
	 D(1,6,9,7)       =         0.000685	       0.039247
	 D(1,6,9,34)      =        -3.141542	    -179.997082
	 D(1,8,7,9)       =         0.005818	       0.333358
	 D(1,8,7,21)      =        -3.135645	    -179.659225
	 D(2,1,6,9)       =        -3.124738	    -179.034294
	 D(2,1,6,33)      =         0.020737	       1.188115
	 D(2,1,8,7)       =         3.122489	     178.905426
	 D(2,1,8,22)      =        -0.021459	      -1.229494
	*D(2,3,4,16)      =        -3.109926	    -178.185641
	 D(2,3,4,17)      =         0.000388	       0.022233
	 D(2,10,11,13)    =        -3.103837	    -177.836785
	 D(2,10,11,23)    =         0.034678	       1.986877
	 D(2,10,12,14)    =         3.104833	     177.893827
	 D(2,10,12,24)    =        -0.036729	      -2.104440
	 D(3,2,1,6)       =        -1.043132	     -59.767066
	 D(3,2,1,8)       =         2.115092	     121.185872
	*D(3,2,10,11)     =         2.169162	     124.283855
	 D(3,2,10,12)     =        -0.911056	     -52.199640
	 D(3,4,16,18)     =        -3.140569	    -179.941361
	 D(3,4,16,28)     =         0.003934	       0.225415
	 D(3,4,17,19)     =        -3.140093	    -179.914050
	 D(3,4,17,29)     =        -0.008805	      -0.504487
	*D(4,3,2,10)      =         2.477764	     141.965413
	 D(4,16,18,20)    =        -0.005154	      -0.295277
	 D(4,16,18,30)    =         3.139204	     179.863124
	 D(4,17,19,20)    =         0.003374	       0.193321
	 D(4,17,19,31)    =         3.140807	     179.955000
	 D(5,3,2,10)      =        -1.216190	     -69.682557
	 D(5,3,4,16)      =         0.595009	      34.091510
	 D(5,3,4,17)      =        -2.577862	    -147.700616
	 D(6,1,2,10)      =         2.016730	     115.550136
	 D(6,1,8,7)       =        -0.005215	      -0.298804
	 D(6,1,8,22)      =         3.134023	     179.566276
	 D(6,9,7,8)       =        -0.004369	      -0.250347
	 D(6,9,7,21)      =         3.137085	     179.741730
	 D(7,9,6,33)      =         3.138370	     179.815362
	 D(8,1,2,10)      =        -1.108230	     -63.496926
	 D(8,1,6,9)       =         0.002854	       0.163497
	 D(8,1,6,33)      =        -3.134857	    -179.614094
	 D(8,7,9,34)      =         3.137783	     179.781734
	 D(9,7,8,22)      =        -3.133696	    -179.547532
	 D(10,11,13,15)   =         0.008962	       0.513505
	 D(10,11,13,25)   =        -3.136712	    -179.720350
	 D(10,12,14,15)   =        -0.009599	      -0.549993
	 D(10,12,14,26)   =         3.134596	     179.599126
	 D(11,10,12,14)   =         0.023305	       1.335273
	 D(11,10,12,24)   =        -3.118257	    -178.662994
	 D(11,13,15,14)   =         0.005083	       0.291261
	 D(11,13,15,27)   =        -3.139989	    -179.908107
	 D(12,10,11,13)   =        -0.022968	      -1.315951
	 D(12,10,11,23)   =         3.115547	     178.507711
	 D(12,14,15,13)   =        -0.004773	      -0.273461
	 D(12,14,15,27)   =         3.140297	     179.925777
	 D(13,15,14,26)   =         3.134199	     179.576365
	 D(14,15,13,25)   =        -3.132398	    -179.473212
	 D(15,13,11,23)   =        -3.129553	    -179.310174
	 D(15,14,12,24)   =         3.131963	     179.448264
	 D(16,4,17,19)    =        -0.029525	      -1.691655
	 D(16,4,17,29)    =         3.101763	     177.717908
	 D(16,18,20,19)   =        -0.021244	      -1.217219
	 D(16,18,20,32)   =        -3.141257	    -179.980751
	 D(17,4,16,18)    =         0.030426	       1.743259
	 D(17,4,16,28)    =        -3.108256	    -178.089964
	 D(17,19,20,18)   =         0.022133	       1.268112
	 D(17,19,20,32)   =        -3.141069	    -179.969978
	 D(18,20,19,31)   =        -3.115237	    -178.489913
	*D(18,20,32,35)   =        -0.500491	     -28.676024
	 D(18,20,32,36)   =        -2.685462	    -153.865644
	 D(19,20,18,30)   =         3.117540	     178.621856
	 D(19,20,32,35)   =         2.663478	     152.606055
	 D(19,20,32,36)   =         0.478507	      27.416435
	 D(20,18,16,28)   =         3.133581	     179.540946
	 D(20,19,17,29)   =        -3.128233	    -179.234562
	 D(21,7,8,22)     =         0.008027	       0.459885
	 D(21,7,9,34)     =        -0.003948	      -0.226189
	 D(23,11,13,25)   =         0.007958	       0.455971
	 D(24,12,14,26)   =        -0.007027	      -0.402617
	 D(25,13,15,27)   =         0.005715	       0.327421
	 D(26,14,15,27)   =        -0.003916	      -0.224396
	 D(28,16,18,30)   =        -0.005247	      -0.300653
	 D(29,17,19,31)   =         0.009200	       0.527117
	 D(30,18,20,32)   =        -0.002473	      -0.141675
	 D(31,19,20,32)   =         0.004747	       0.271997
	 D(33,6,9,34)     =        -0.003857	      -0.220967
	 R(1,17)          =         6.289433	       3.328225

	Current energy   :      -895.9042416279

	Generating empirical Hessian (Schlegel '84) for each fragment.
	Taking RFO optimization step.
	Going to follow RFO solution 1.
	Using RFO vector 1.

	Determining step-restricting scale parameter for RS-RFO.
	Maximum step size allowed    0.50000

	 Iter      |step|        alpha        rfo_root  
	------------------------------------------------
	    0     0.74623       1.00000           1
	    1     0.58009       1.74910           1
	    2     0.51373       2.27523           1
	    3     0.50054       2.40608           1
	    4     0.50000       2.41164           1
	------------------------------------------------
	Norm of target step-size    0.50000
	Projected energy change by RFO approximation:         0.0069230576

	Back-transformation to cartesian coordinates...
	Could not converge backtransformation.
	Using first guess instead.

	Back-transformation to cartesian coordinates to adjust frozen coordinates...
	Successfully converged to displaced geometry.

	--- Internal Coordinate Step in ANG or DEG, aJ/ANG or AJ/DEG ---
	 ---------------------------------------------------------------------------
	   Coordinate                Previous        Force       Change         New 
	   ----------                --------       ------       ------       ------
	    1 R(1,2)          =      1.379518     0.098581     0.010447     1.389965
	    2 R(1,6)          =      1.452141     0.008538     0.017280     1.469421
	    3 R(1,8)          =      1.505369    -0.116551    -0.004805     1.500564
	    4 R(2,3)          =      1.418089    -0.034274    -0.005631     1.412458
	    5 R(2,10)         =      1.484434    -0.101296    -0.014961     1.469473
	    6 R(3,4)          =      1.439720    -0.080704    -0.011926     1.427794
	    7 R(3,5)          =      1.020521    -0.029555     0.002297     1.022818
	    8 R(4,16)         =      1.418968    -0.160044    -0.020268     1.398699
	    9 R(4,17)         =      1.418337    -0.133783    -0.017356     1.400982
	   10 R(6,9)          =      1.359766    -0.029667    -0.000452     1.359314
	   11 R(6,33)         =      1.080368    -0.028027     0.010714     1.091082
	   12 R(7,8)          =      1.387424     0.069139     0.013203     1.400627
	   13 R(7,9)          =      1.388092     0.031761     0.021931     1.410023
	   14 R(7,21)         =      1.009970    -0.064298    -0.003426     1.006544
	   15 R(8,22)         =      1.230119     0.171129     0.025064     1.255183
	   16 R(9,34)         =      1.081444    -0.030407    -0.001130     1.080314
	   17 R(10,11)        =      1.417375    -0.132406    -0.016381     1.400993
	   18 R(10,12)        =      1.416799    -0.102593    -0.012686     1.404113
	   19 R(11,13)        =      1.400994    -0.077448    -0.009218     1.391776
	   20 R(11,23)        =      1.091185    -0.050451    -0.007338     1.083847
	   21 R(12,14)        =      1.400077    -0.085395    -0.010040     1.390036
	   22 R(12,24)        =      1.090893    -0.057171    -0.008404     1.082488
	   23 R(13,15)        =      1.409914    -0.119652    -0.014601     1.395314
	   24 R(13,25)        =      1.091044    -0.054079    -0.007955     1.083090
	   25 R(14,15)        =      1.409815    -0.106301    -0.012880     1.396935
	   26 R(14,26)        =      1.090859    -0.052667    -0.007763     1.083096
	   27 R(15,27)        =      1.091444    -0.056378    -0.008338     1.083106
	   28 R(16,18)        =      1.401200    -0.099770    -0.011746     1.389454
	   29 R(16,28)        =      1.092984    -0.055478    -0.007998     1.084987
	   30 R(17,19)        =      1.402164    -0.105006    -0.012410     1.389755
	   31 R(17,29)        =      1.089602    -0.051939    -0.007587     1.082015
	   32 R(18,20)        =      1.415059    -0.132127    -0.016011     1.399048
	   33 R(18,30)        =      1.092292    -0.052562    -0.007789     1.084504
	   34 R(19,20)        =      1.415733    -0.131662    -0.015944     1.399789
	   35 R(19,31)        =      1.092365    -0.054130    -0.007919     1.084447
	   36 R(20,32)        =      1.426591    -0.123537    -0.015753     1.410838
	   37 R(32,35)        =      1.020507    -0.073575    -0.008748     1.011759
	   38 R(32,36)        =      1.020508    -0.073765    -0.008105     1.012403
	   39 B(1,2,3)        =    121.119027     0.000305     0.552131   121.671158
	   40 B(1,2,10)       =    124.061507     0.000272     0.491282   124.552789
	   41 B(1,6,9)        =    107.247463     0.000340    -0.105196   107.142268
	   42 B(1,6,33)       =    126.118844    -0.000185     0.322069   126.440913
	   43 B(1,8,7)        =    103.903840     0.000037    -0.724558   103.179281
	   44 B(1,8,22)       =    132.594599    -0.000689    -1.025448   131.569151
	   45 B(2,1,6)        =    126.916561     0.000299     0.244886   127.161446
	   46 B(2,1,8)        =    126.294966    -0.000379    -1.172835   125.122131
	   47 B(2,3,4)        =    134.248766    -0.000963    -2.839965   131.408801
	   48 B(2,3,5)        =    108.286884     0.001085     3.940904   112.227789
	   49 B(2,10,11)      =    121.036121    -0.000560    -1.272887   119.763234
	   50 B(2,10,12)      =    119.977447     0.000405     0.904146   120.881593
	   51 B(3,2,10)       =    114.670109    -0.000578    -1.044642   113.625467
	   52 B(3,4,16)       =    118.585707    -0.001143    -2.240907   116.344800
	   53 B(3,4,17)       =    123.676317     0.001088     1.986162   125.662479
	   54 B(4,3,5)        =    111.103355     0.000043     0.657261   111.760616
	   55 B(4,16,18)      =    121.028160     0.000076     0.082555   121.110714
	   56 B(4,16,28)      =    120.405315    -0.000192    -0.515886   119.889429
	   57 B(4,17,19)      =    120.938867    -0.000008    -0.098389   120.840478
	   58 B(4,17,29)      =    121.122746    -0.000271    -0.793298   120.329448
	   59 B(6,1,8)        =    106.783140     0.000082     0.932777   107.715916
	   60 B(6,9,7)        =    110.548802    -0.000418    -0.646778   109.902024
	   61 B(6,9,34)       =    129.845718     0.000053    -0.599755   129.245963
	   62 B(7,8,22)       =    123.501425     0.000651     1.694666   125.196091
	   63 B(7,9,34)       =    119.605470     0.000366     1.245644   120.851115
	   64 B(8,7,9)        =    111.515666    -0.000041     0.512565   112.028232
	   65 B(8,7,21)       =    121.473486     0.000127    -0.480101   120.993384
	   66 B(9,6,33)       =    126.633278    -0.000155    -0.223886   126.409392
	   67 B(9,7,21)       =    127.010847    -0.000086    -0.042036   126.968811
	   68 B(10,11,13)     =    120.405443    -0.000059    -0.147476   120.257966
	   69 B(10,11,23)     =    119.801998    -0.000124    -0.393200   119.408798
	   70 B(10,12,14)     =    120.530520    -0.000086    -0.192941   120.337580
	   71 B(10,12,24)     =    119.454894    -0.000076    -0.268506   119.186388
	   72 B(11,10,12)     =    118.894938     0.000155     0.368065   119.263003
	   73 B(11,13,15)     =    120.316244    -0.000056    -0.150426   120.165818
	   74 B(11,13,25)     =    119.485731     0.000065     0.187538   119.673269
	   75 B(12,14,15)     =    120.250065    -0.000085    -0.196424   120.053641
	   76 B(12,14,26)     =    119.523623     0.000099     0.271338   119.794961
	   77 B(13,11,23)     =    119.792325     0.000183     0.540748   120.333073
	   78 B(13,15,14)     =    119.588745     0.000131     0.321165   119.909910
	   79 B(13,15,27)     =    120.237376    -0.000076    -0.195945   120.041431
	   80 B(14,12,24)     =    120.014586     0.000162     0.461138   120.475724
	   81 B(14,15,27)     =    120.173578    -0.000054    -0.125034   120.048544
	   82 B(15,13,25)     =    120.197611    -0.000009    -0.036744   120.160866
	   83 B(15,14,26)     =    120.226143    -0.000014    -0.074807   120.151336
	   84 B(16,4,17)      =    117.714840     0.000056     0.261359   117.976199
	   85 B(16,18,20)     =    121.327302    -0.000145    -0.352526   120.974776
	   86 B(16,18,30)     =    118.530651     0.000176     0.490390   119.021041
	   87 B(17,19,20)     =    121.370292    -0.000096    -0.214519   121.155773
	   88 B(17,19,31)     =    118.538643     0.000132     0.363174   118.901818
	   89 B(18,16,28)     =    118.566321     0.000116     0.431765   118.998087
	   90 B(18,20,19)     =    117.585762     0.000119     0.328975   117.914737
	   91 B(18,20,32)     =    121.139221    -0.000064    -0.185393   120.953828
	   92 B(19,17,29)     =    117.935859     0.000279     0.890455   118.826314
	   93 B(19,20,32)     =    121.263176    -0.000058    -0.169144   121.094032
	   94 B(20,18,30)     =    120.141857    -0.000030    -0.139006   120.002851
	   95 B(20,19,31)     =    120.090635    -0.000035    -0.148266   119.942369
	   96 B(20,32,35)     =    113.566014     0.000140     0.817398   114.383412
	   97 B(20,32,36)     =    113.528809     0.000134     0.780657   114.309466
	   98 B(35,32,36)     =    108.947349     0.000159     1.056199   110.003548
	   99 *D(1,2,3,4)     =    -42.302838    -0.000000    -0.000034   -42.302871
	  100 D(1,2,3,5)      =    106.049192     0.000133     5.076045   111.125237
	  101 *D(1,2,10,11)   =    -51.305114     0.000000    -0.000033   -51.305147
	  102 *D(1,2,10,12)   =    132.211391     0.000000     0.000000   132.211391
	  103 D(1,6,9,7)      =      0.039247    -0.000056    -1.848657    -1.809409
	  104 D(1,6,9,34)     =   -179.997082    -0.000047    -1.463866  -181.460948
	  105 D(1,8,7,9)      =      0.333358    -0.000035    -1.264701    -0.931344
	  106 D(1,8,7,21)     =   -179.659225    -0.000005    -0.221929  -179.881154
	  107 D(2,1,6,9)      =   -179.034294     0.000002     0.009847  -179.024447
	  108 D(2,1,6,33)     =      1.188115    -0.000033    -1.156529     0.031586
	  109 D(2,1,8,7)      =    178.905426     0.000034     1.166140   180.071566
	  110 D(2,1,8,22)     =     -1.229494    -0.000038    -1.369209    -2.598702
	  111 *D(2,3,4,16)    =   -178.185641     0.000000    -0.000000  -178.185641
	  112 D(2,3,4,17)     =      0.022233     0.000008     0.276749     0.298982
	  113 D(2,10,11,13)   =   -177.836785     0.000005     0.219744  -177.617041
	  114 D(2,10,11,23)   =      1.986877     0.000006     0.250181     2.237058
	  115 D(2,10,12,14)   =    177.893827    -0.000005    -0.077232   177.816595
	  116 D(2,10,12,24)   =     -2.104440    -0.000011    -0.280227    -2.384666
	  117 D(3,2,1,6)      =    -59.767066     0.000399    12.035373   -47.731693
	  118 D(3,2,1,8)      =    121.185872     0.000360    10.791177   131.977048
	  119 *D(3,2,10,11)   =    124.283855     0.000000     0.000032   124.283887
	  120 D(3,2,10,12)    =    -52.199640    -0.000000     0.000065   -52.199575
	  121 D(3,4,16,18)    =   -179.941361    -0.000001    -0.148480  -180.089842
	  122 D(3,4,16,28)    =      0.225415     0.000009     0.173628     0.399043
	  123 D(3,4,17,19)    =   -179.914050     0.000017     0.425586  -179.488464
	  124 D(3,4,17,29)    =     -0.504487     0.000012     0.302293    -0.202193
	  125 *D(4,3,2,10)    =    141.965413    -0.000000     0.000033   141.965447
	  126 D(4,16,18,20)   =     -0.295277     0.000006     0.157693    -0.137584
	  127 D(4,16,18,30)   =    179.863124     0.000013     0.419242   180.282366
	  128 D(4,17,19,20)   =      0.193321    -0.000019    -0.615919    -0.422597
	  129 D(4,17,19,31)   =    179.955000    -0.000015    -0.450561   179.504439
	  130 D(5,3,2,10)     =    -69.682557     0.000133     5.076112   -64.606445
	  131 D(5,3,4,16)     =     34.091510    -0.000186    -5.799441    28.292069
	  132 D(5,3,4,17)     =   -147.700616    -0.000177    -5.522692  -153.223308
	  133 D(6,1,2,10)     =    115.550136     0.000390    11.969009   127.519145
	  134 D(6,1,8,7)      =     -0.298804     0.000001     0.126700    -0.172104
	  135 D(6,1,8,22)     =    179.566276    -0.000071    -2.408648   177.157628
	  136 D(6,9,7,8)      =     -0.250347     0.000060     2.053441     1.803094
	  137 D(6,9,7,21)     =    179.741730     0.000027     0.934579   180.676310
	  138 D(7,9,6,33)     =    179.815362    -0.000021    -0.681189   179.134174
	  139 D(8,1,2,10)     =    -63.496926     0.000352    10.724812   -52.772114
	  140 D(8,1,6,9)      =      0.163497     0.000033     1.062144     1.225641
	  141 D(8,1,6,33)     =   -179.614094    -0.000002    -0.104231  -179.718325
	  142 D(8,7,9,34)     =    179.781734     0.000052     1.707021   181.488755
	  143 D(9,7,8,22)     =   -179.547532     0.000029     1.060752  -178.486780
	  144 D(10,11,13,15)  =      0.513505    -0.000009    -0.281113     0.232392
	  145 D(10,11,13,25)  =   -179.720350    -0.000004    -0.125939  -179.846289
	  146 D(10,12,14,15)  =     -0.549993    -0.000006    -0.158427    -0.708420
	  147 D(10,12,14,26)  =    179.599126    -0.000007    -0.217741   179.381385
	  148 D(11,10,12,14)  =      1.335273     0.000001    -0.019499     1.315774
	  149 D(11,10,12,24)  =   -178.662994    -0.000005    -0.222493  -178.885487
	  150 D(11,13,15,14)  =      0.291261     0.000003     0.096101     0.387362
	  151 D(11,13,15,27)  =   -179.908107     0.000006     0.172386  -179.735721
	  152 D(12,10,11,13)  =     -1.315951     0.000007     0.239500    -1.076450
	  153 D(12,10,11,23)  =    178.507711     0.000008     0.269937   178.777649
	  154 D(12,14,15,13)  =     -0.273461     0.000004     0.124597    -0.148865
	  155 D(12,14,15,27)  =    179.925777     0.000002     0.048450   179.974226
	  156 D(13,15,14,26)  =    179.576365     0.000006     0.184642   179.761007
	  157 D(14,15,13,25)  =   -179.473212    -0.000002    -0.060359  -179.533571
	  158 D(15,13,11,23)  =   -179.310174    -0.000010    -0.310175  -179.620349
	  159 D(15,14,12,24)  =    179.448264     0.000000     0.047191   179.495455
	  160 D(16,4,17,19)   =     -1.691655     0.000020     0.665507    -1.026148
	  161 D(16,4,17,29)   =    177.717908     0.000016     0.542214   178.260122
	  162 D(16,18,20,19)  =     -1.217219    -0.000005    -0.084533    -1.301752
	  163 D(16,18,20,32)  =   -179.980751     0.000029     0.879669  -179.101082
	  164 D(17,4,16,18)   =      1.743259    -0.000014    -0.439023     1.304236
	  165 D(17,4,16,28)   =   -178.089964    -0.000004    -0.116915  -178.206879
	  166 D(17,19,20,18)  =      1.268112     0.000011     0.311604     1.579716
	  167 D(17,19,20,32)  =   -179.969978    -0.000023    -0.654219  -180.624197
	  168 D(18,20,19,31)  =   -178.489913     0.000006     0.143344  -178.346569
	  169 *D(18,20,32,35) =    -28.676024    -0.000000    -0.000000   -28.676024
	  170 D(18,20,32,36)  =   -153.865644    -0.000103    -2.898236  -156.763880
	  171 D(19,20,18,30)  =    178.621856    -0.000012    -0.347651   178.274205
	  172 D(19,20,32,35)  =    152.606055     0.000034     0.988849   153.594903
	  173 D(19,20,32,36)  =     27.416435    -0.000068    -1.909388    25.507047
	  174 D(20,18,16,28)  =    179.540946    -0.000004    -0.163140   179.377806
	  175 D(20,19,17,29)  =   -179.234562    -0.000014    -0.484856  -179.719418
	  176 D(21,7,8,22)    =      0.459885     0.000059     2.103525     2.563410
	  177 D(21,7,9,34)    =     -0.226189     0.000019     0.588160     0.361971
	  178 D(23,11,13,25)  =      0.455971    -0.000005    -0.155001     0.300970
	  179 D(24,12,14,26)  =     -0.402617    -0.000001    -0.012123    -0.414740
	  180 D(25,13,15,27)  =      0.327421     0.000000     0.015926     0.343346
	  181 D(26,14,15,27)  =     -0.224396     0.000003     0.108495    -0.115902
	  182 D(28,16,18,30)  =     -0.300653     0.000004     0.098408    -0.202244
	  183 D(29,17,19,31)  =      0.527117    -0.000009    -0.319499     0.207618
	  184 D(30,18,20,32)  =     -0.141675     0.000022     0.616550     0.474875
	  185 D(31,19,20,32)  =      0.271997    -0.000028    -0.822478    -0.550482
	  186 D(33,6,9,34)    =     -0.220967    -0.000011    -0.296398    -0.517365
	  187 R(1,17)         =      3.328225    -0.091731    -0.049041     3.279183
	 ---------------------------------------------------------------------------
	Successfully symmetrized geometry.

  ==> Convergence Check <==

  Measures of convergence in internal coordinates in au.
  Criteria marked as inactive (o), active & met (*), and active & unmet ( ).
  --------------------------------------------------------------------------------------------- ~
   Step     Total Energy     Delta E     MAX Force     RMS Force      MAX Disp      RMS Disp    ~
  --------------------------------------------------------------------------------------------- ~
    Convergence Criteria             o    2.50e-03 *    1.70e-03 *    1.00e-02 *    6.70e-03 *  ~
  --------------------------------------------------------------------------------------------- ~
      1    -895.90424163   -8.96e+02 o    2.28e-02      6.65e-03      2.10e-01      3.69e-02    ~
  ---------------------------------------------------------------------------------------------

	Writing optimization data to binary file.
	Structure for next step:
	Cartesian Geometry (in Angstrom)
	    C    -0.7345469423   1.4150055258   0.0456895983
	    C    -0.8792833148   0.0486536825   0.2557785136
	    N     0.1401401392  -0.7210684025   0.8585573191
	    C     1.5567899905  -0.7172075662   0.6805573354
	    H    -0.1241497272  -1.0520207542   1.7895666134
	    C    -0.2668567793   2.4171905987   1.0132061614
	    N    -0.7299795702   3.4620304097  -0.9450173268
	    C    -1.0320814781   2.1268573231  -1.2413346732
	    C    -0.3037857055   3.6242607693   0.3892261029
	    C    -2.1060569657  -0.7116915413  -0.0203594779
	    C    -3.3306820363  -0.2670070115   0.4947436504
	    C    -2.0596722500  -1.9203943553  -0.7333954940
	    C    -4.4909121516  -1.0054968836   0.2813413660
	    C    -3.2209311920  -2.6532825404  -0.9491587054
	    C    -4.4404551106  -2.1967357538  -0.4434374012
	    C     2.2784791605  -1.6559600186   1.4250493333
	    C     2.2683664097   0.1188146383  -0.1897734972
	    C     3.6618962567  -1.7400646234   1.3267353948
	    C     3.6515430651   0.0297498622  -0.2913024197
	    C     4.3764008499  -0.8890477506   0.4766830663
	    H    -0.8391647332   4.1841681177  -1.6376403712
	    O    -1.4073287251   1.7013217412  -2.3609749139
	    H    -3.3657101956   0.6555287714   1.0625677763
	    H    -1.1097059432  -2.2719306205  -1.1151906369
	    H    -5.4329996241  -0.6516135416   0.6817419908
	    H    -3.1766317979  -3.5794172305  -1.5089882345
	    H    -5.3453168911  -2.7676489768  -0.6119646785
	    H     1.7557248851  -2.3386477714   2.0867606293
	    H     1.7454549759   0.8394269034  -0.8046214694
	    H     4.1869884849  -2.4837623857   1.9160912796
	    H     4.1698340870   0.6867378429  -0.9810600885
	    N     5.7792159513  -0.9873594414   0.3630651760
	    H     0.0369451007   2.2302152771   2.0443241067
	    H    -0.0568103992   4.6018960511   0.7769241285
	    H     6.2422997395  -1.3334110043   1.1934016907
	    H     6.2316732841  -0.1406549345   0.0416101785
			--------------------------
			 OPTKING Finished Execution 
			--------------------------

    Structure for next step:
    Molecular point group: c1
    Full point group: C1

    Geometry (in Angstrom), charge = 0, multiplicity = 1:

    C           -0.713807236031     1.412825440737     0.040908863166
    C           -0.858543609042     0.046473592022     0.250997779193
    N            0.160879848951    -0.723248495961     0.853776587095
    C            1.577529705757    -0.719387659644     0.675776602663
    H           -0.103410018463    -1.054200849025     1.784785885061
    C           -0.246117071151     2.415010517514     1.008425430030
    N           -0.709239863906     3.459850332677    -0.949798065879
    C           -1.011341772930     2.124677240836    -1.246115413491
    C           -0.283045997523     3.622080692877     0.384445369068
    C           -2.085317264809    -0.713871634765    -0.025140213300
    C           -3.309942340207    -0.269187103168     0.489962916942
    C           -2.038932548947    -1.922574453474    -0.738176232232
    C           -4.470172460040    -1.007676978238     0.276560631700
    C           -3.200191495457    -2.655462641454    -0.953939444531
    C           -4.419715418913    -2.198915853046    -0.448218138328
    C            2.299218878596    -1.658140115798     1.420268603532
    C            2.289106127804     0.116634548156    -0.194554233354
    C            3.682635980251    -1.742244720916     1.321954664696
    C            3.672282788647     0.027569771661    -0.296083156255
    C            4.397140576234    -0.891227844772     0.471902332793
    H           -0.818425027285     4.181988043497    -1.642421112953
    O           -1.386589021431     1.699141657237    -2.365755658586
    H           -3.344970499605     0.653348683349     1.057787045128
    H           -1.088966238356    -2.274110720132    -1.119971376676
    H           -5.412259936320    -0.653793634858     0.676961258133
    H           -3.155892101242    -3.581597335184    -1.513768975810
    H           -5.324577202972    -2.769829078296    -0.616745416251
    H            1.776464601191    -2.340827871249     2.081979902159
    H            1.766194691942     0.837246816020    -0.809402207923
    H            4.207728210528    -2.485942486135     1.911310551742
    H            4.190573812611     0.684557754987    -0.985840827741
    N            5.799955683220    -0.989539535956     0.358284442086
    H            0.057684810009     2.228035195235     2.039543379345
    H           -0.036070690288     4.599715978524     0.772143396195
    H            6.263039473194    -1.335591100157     1.188620959993
    H            6.252413017791    -0.142835025758     0.036829443336

gradient() will perform analytic gradient computation.

*** tstart() called on node44.bme.utexas.edu
*** at Fri Nov  5 08:48:57 2021

   => Loading Basis Set <=

    Name: 6-311G
    Role: ORBITAL
    Keyword: BASIS
    atoms 1-2, 4, 6, 8-20     entry C          line    92 file /home/bdw2292/miniconda3/envs/amoebamdpoltype/share/psi4/basis/6-311g.gbs 
    atoms 3, 7, 32            entry N          line   109 file /home/bdw2292/miniconda3/envs/amoebamdpoltype/share/psi4/basis/6-311g.gbs 
    atoms 5, 21, 23-31, 33-36 entry H          line    21 file /home/bdw2292/miniconda3/envs/amoebamdpoltype/share/psi4/basis/6-311g.gbs 
    atoms 22                  entry O          line   126 file /home/bdw2292/miniconda3/envs/amoebamdpoltype/share/psi4/basis/6-311g.gbs 


         ---------------------------------------------------------
                                   SCF
               by Justin Turney, Rob Parrish, Andy Simmonett
                          and Daniel G. A. Smith
                              RKS Reference
                        1 Threads,   7947 MiB Core
         ---------------------------------------------------------

  ==> Geometry <==

    Molecular point group: c1
    Full point group: C1

    Geometry (in Angstrom), charge = 0, multiplicity = 1:

       Center              X                  Y                   Z               Mass       
    ------------   -----------------  -----------------  -----------------  -----------------
         C           -0.713807236031     1.412825440737     0.040908863166    12.000000000000
         C           -0.858543609042     0.046473592022     0.250997779193    12.000000000000
         N            0.160879848951    -0.723248495961     0.853776587095    14.003074004430
         C            1.577529705757    -0.719387659644     0.675776602663    12.000000000000
         H           -0.103410018463    -1.054200849025     1.784785885061     1.007825032230
         C           -0.246117071151     2.415010517514     1.008425430030    12.000000000000
         N           -0.709239863906     3.459850332677    -0.949798065879    14.003074004430
         C           -1.011341772930     2.124677240836    -1.246115413491    12.000000000000
         C           -0.283045997523     3.622080692877     0.384445369068    12.000000000000
         C           -2.085317264809    -0.713871634765    -0.025140213300    12.000000000000
         C           -3.309942340207    -0.269187103168     0.489962916942    12.000000000000
         C           -2.038932548947    -1.922574453474    -0.738176232232    12.000000000000
         C           -4.470172460040    -1.007676978238     0.276560631700    12.000000000000
         C           -3.200191495457    -2.655462641454    -0.953939444531    12.000000000000
         C           -4.419715418913    -2.198915853046    -0.448218138328    12.000000000000
         C            2.299218878596    -1.658140115798     1.420268603532    12.000000000000
         C            2.289106127804     0.116634548156    -0.194554233354    12.000000000000
         C            3.682635980251    -1.742244720916     1.321954664696    12.000000000000
         C            3.672282788647     0.027569771661    -0.296083156255    12.000000000000
         C            4.397140576234    -0.891227844772     0.471902332793    12.000000000000
         H           -0.818425027285     4.181988043497    -1.642421112953     1.007825032230
         O           -1.386589021431     1.699141657237    -2.365755658586    15.994914619570
         H           -3.344970499605     0.653348683349     1.057787045128     1.007825032230
         H           -1.088966238356    -2.274110720132    -1.119971376676     1.007825032230
         H           -5.412259936320    -0.653793634858     0.676961258133     1.007825032230
         H           -3.155892101242    -3.581597335184    -1.513768975810     1.007825032230
         H           -5.324577202972    -2.769829078296    -0.616745416251     1.007825032230
         H            1.776464601191    -2.340827871249     2.081979902159     1.007825032230
         H            1.766194691942     0.837246816020    -0.809402207923     1.007825032230
         H            4.207728210528    -2.485942486135     1.911310551742     1.007825032230
         H            4.190573812611     0.684557754987    -0.985840827741     1.007825032230
         N            5.799955683220    -0.989539535956     0.358284442086    14.003074004430
         H            0.057684810009     2.228035195235     2.039543379345     1.007825032230
         H           -0.036070690288     4.599715978524     0.772143396195     1.007825032230
         H            6.263039473194    -1.335591100157     1.188620959993     1.007825032230
         H            6.252413017791    -0.142835025758     0.036829443336     1.007825032230

  Running in c1 symmetry.

  Rotational constants: A =      0.01489  B =      0.00669  C =      0.00517 [cm^-1]
  Rotational constants: A =    446.40742  B =    200.59746  C =    155.04427 [MHz]
  Nuclear repulsion = 1520.822632584430266

  Charge       = 0
  Multiplicity = 1
  Electrons    = 146
  Nalpha       = 73
  Nbeta        = 73

  ==> Algorithm <==

  SCF Algorithm Type is DF.
  DIIS enabled.
  MOM disabled.
  Fractional occupation disabled.
  Guess Type is READ.
  Energy threshold   = 1.00e-08
  Density threshold  = 1.00e-08
  Integral threshold = 0.00e+00

  ==> Primary Basis <==

  Basis Set: 6-311G
    Blend: 6-311G
    Number of shells: 192
    Number of basis function: 318
    Number of Cartesian functions: 318
    Spherical Harmonics?: true
    Max angular momentum: 1

  ==> DFT Potential <==

   => Composite Functional: WB97X-D <= 

    wB97X-D Hyb-GGA Exchange-Correlation Functional

    J.-D. Chai and M. Head-Gordon, Phys. Chem. Chem. Phys. 10, 6615 (2008)

    Deriv               =              1
    GGA                 =           TRUE
    Meta                =          FALSE

    Exchange Hybrid     =           TRUE
    MP2 Hybrid          =          FALSE

   => Exchange-Correlation Functionals <=

    1.0000   wB97D range-separated functional

   => Exact (HF) Exchange <=

    0.7780            HF,LR [omega = 0.2000]
    0.2220               HF 

   => Molecular Quadrature <=

    Radial Scheme          =       TREUTLER
    Pruning Scheme         =           FLAT
    Nuclear Scheme         =       TREUTLER

    BS radius alpha        =              1
    Pruning alpha          =              1
    Radial Points          =             75
    Spherical Points       =            302
    Total Points           =         806656
    Total Blocks           =           5743
    Max Points             =            256
    Max Functions          =            223

   => WB97X-D: Empirical Dispersion <=

    Chai and Head-Gordon Dispersion Correction
    Chai, J.-D.; Head-Gordon, M. (2010), J. Chem. Phys., 132: 6615-6620

        s6 =       1.000000

   => Loading Basis Set <=

    Name: (6-311G AUX)
    Role: JKFIT
    Keyword: DF_BASIS_SCF
    atoms 1-2, 4, 6, 8-20     entry C          line   125 file /home/bdw2292/miniconda3/envs/amoebamdpoltype/share/psi4/basis/cc-pvtz-jkfit.gbs 
    atoms 3, 7, 32            entry N          line   177 file /home/bdw2292/miniconda3/envs/amoebamdpoltype/share/psi4/basis/cc-pvtz-jkfit.gbs 
    atoms 5, 21, 23-31, 33-36 entry H          line    51 file /home/bdw2292/miniconda3/envs/amoebamdpoltype/share/psi4/basis/cc-pvtz-jkfit.gbs 
    atoms 22                  entry O          line   229 file /home/bdw2292/miniconda3/envs/amoebamdpoltype/share/psi4/basis/cc-pvtz-jkfit.gbs 

   => Loading Basis Set <=

    Name: 6-311G
    Role: ORBITAL
    Keyword: BASIS
    atoms 1-2, 4, 6, 8-20     entry C          line    92 file /home/bdw2292/miniconda3/envs/amoebamdpoltype/share/psi4/basis/6-311g.gbs 
    atoms 3, 7, 32            entry N          line   109 file /home/bdw2292/miniconda3/envs/amoebamdpoltype/share/psi4/basis/6-311g.gbs 
    atoms 5, 21, 23-31, 33-36 entry H          line    21 file /home/bdw2292/miniconda3/envs/amoebamdpoltype/share/psi4/basis/6-311g.gbs 
    atoms 22                  entry O          line   126 file /home/bdw2292/miniconda3/envs/amoebamdpoltype/share/psi4/basis/6-311g.gbs 

  Reading orbitals from file 180, no projection.

  ==> Pre-Iterations <==

   -------------------------------------------------------
    Irrep   Nso     Nmo     Nalpha   Nbeta   Ndocc  Nsocc
   -------------------------------------------------------
     A        318     318       0       0       0       0
   -------------------------------------------------------
    Total     318     318      73      73      73       0
   -------------------------------------------------------

  ==> Integral Setup <==

  ==> DiskDFJK: Density-Fitted J/K Matrices <==

    J tasked:                  Yes
    K tasked:                  Yes
    wK tasked:                 Yes
    Omega:               2.000E-01
    OpenMP threads:              1
    Integrals threads:           1
    Memory [MiB]:             2620
    Algorithm:                Core
    Integral Cache:           NONE
    Schwarz Cutoff:          1E-12
    Fitting Condition:       1E-10

   => Auxiliary Basis Set <=

  Basis Set: (6-311G AUX)
    Blend: CC-PVTZ-JKFIT
    Number of shells: 675
    Number of basis function: 2109
    Number of Cartesian functions: 2541
    Spherical Harmonics?: true
    Max angular momentum: 4

  Cached 100.0% of DFT collocation blocks in 3.262 [GiB].

  Minimum eigenvalue in the overlap matrix is 2.3457548856E-04.
  Using Symmetric Orthogonalization.

  SCF Guess: Orbitals guess was supplied from a previous computation.

  ==> Iterations <==

                           Total Energy        Delta E     RMS |[F,P]|

[...]
	   39 B(1,2,3)        =    122.072762     0.000001    -0.000199   122.072563
	   40 B(1,2,10)       =    124.877809     0.000001    -0.000178   124.877632
	   41 B(1,6,9)        =    107.937801    -0.000001    -0.007644   107.930157
	   42 B(1,6,33)       =    125.888496     0.000001     0.002143   125.890639
	   43 B(1,8,7)        =    104.550022    -0.000001    -0.001982   104.548040
	   44 B(1,8,22)       =    131.350237    -0.000001    -0.019354   131.330883
	   45 B(2,1,6)        =    128.388014     0.000005     0.077394   128.465407
	   46 B(2,1,8)        =    125.048986    -0.000004    -0.076966   124.972021
	   47 B(2,3,4)        =    130.081160    -0.000004    -0.014560   130.066600
	   48 B(2,3,5)        =    113.727550     0.000001     0.032056   113.759606
	   49 B(2,10,11)      =    120.785966    -0.000001    -0.017883   120.768083
	   50 B(2,10,12)      =    119.714504     0.000001     0.014752   119.729256
	   51 B(3,2,10)       =    112.898014    -0.000003     0.000377   112.898390
	   52 B(3,4,16)       =    117.443759    -0.000002     0.001128   117.444887
	   53 B(3,4,17)       =    123.930922     0.000004     0.005750   123.936671
	   54 B(4,3,5)        =    113.298289     0.000004     0.046518   113.344807
	   55 B(4,16,18)      =    121.263790     0.000001     0.001686   121.265477
	   56 B(4,16,28)      =    119.541311     0.000000     0.000708   119.542019
	   57 B(4,17,19)      =    120.449855     0.000000    -0.000787   120.449068
	   58 B(4,17,29)      =    120.363335     0.000001     0.009943   120.373278
	   59 B(6,1,8)        =    106.530147    -0.000001     0.000231   106.530377
	   60 B(6,9,7)        =    109.831401     0.000002     0.007240   109.838641
	   61 B(6,9,34)       =    129.453670    -0.000002    -0.005568   129.448102
	   62 B(7,8,22)       =    124.075631     0.000002     0.021725   124.097356
	   63 B(7,9,34)       =    120.692382     0.000000     0.002468   120.694851
	   64 B(8,7,9)        =    111.141226     0.000001    -0.002251   111.138974
	   65 B(8,7,21)       =    122.286139     0.000000     0.011457   122.297596
	   66 B(9,6,33)       =    126.095355    -0.000000     0.000385   126.095739
	   67 B(9,7,21)       =    126.572150    -0.000002    -0.008896   126.563253
	   68 B(10,11,13)     =    120.227475     0.000000    -0.001356   120.226119
	   69 B(10,11,23)     =    119.220686     0.000000     0.004209   119.224895
	   70 B(10,12,14)     =    120.303627     0.000000    -0.000679   120.302949
	   71 B(10,12,24)     =    119.489869    -0.000001    -0.005975   119.483894
	   72 B(11,10,12)     =    119.407068     0.000000     0.003125   119.410192
	   73 B(11,13,15)     =    120.161334     0.000000     0.000088   120.161423
	   74 B(11,13,25)     =    119.765294     0.000001     0.004028   119.769322
	   75 B(12,14,15)     =    119.945025    -0.000000     0.000054   119.945079
	   76 B(12,14,26)     =    119.892869     0.000000     0.002259   119.895127
	   77 B(13,11,23)     =    120.549474    -0.000000    -0.002729   120.546746
	   78 B(13,15,14)     =    119.951158    -0.000001    -0.001196   119.949962
	   79 B(13,15,27)     =    120.026706     0.000000     0.000327   120.027033
	   80 B(14,12,24)     =    120.192870     0.000001     0.007270   120.200140
	   81 B(14,15,27)     =    120.021961     0.000000     0.000880   120.022841
	   82 B(15,13,25)     =    120.072668    -0.000001    -0.004100   120.068568
	   83 B(15,14,26)     =    120.161388    -0.000000    -0.002280   120.159108
	   84 B(16,4,17)      =    118.246809    -0.000002    -0.001567   118.245242
	   85 B(16,18,20)     =    120.693314    -0.000000    -0.001808   120.691506
	   86 B(16,18,30)     =    119.667991     0.000001     0.004361   119.672353
	   87 B(17,19,20)     =    121.437769     0.000001     0.002116   121.439886
	   88 B(17,19,31)     =    119.000850    -0.000001    -0.004365   118.996485
	   89 B(18,16,28)     =    119.194713    -0.000001    -0.002533   119.192180
	   90 B(18,20,19)     =    117.840811     0.000000     0.001398   117.842209
	   91 B(18,20,32)     =    120.728369    -0.000001    -0.002293   120.726075
	   92 B(19,17,29)     =    119.186346    -0.000001    -0.008971   119.177375
	   93 B(19,20,32)     =    121.368630     0.000001     0.000861   121.369491
	   94 B(20,18,30)     =    119.635767    -0.000000    -0.002868   119.632899
	   95 B(20,19,31)     =    119.559445     0.000000     0.002154   119.561600
	   96 B(20,32,35)     =    119.567729    -0.000001     0.009594   119.577323
	   97 B(20,32,36)     =    119.131307     0.000000     0.019141   119.150448
	   98 B(35,32,36)     =    116.111359     0.000002     0.033563   116.144922
	   99 *D(1,2,3,4)     =    -42.303346    -0.000000     0.000000   -42.303346
	  100 D(1,2,3,5)      =    158.542591    -0.000001    -0.235301   158.307290
	  101 *D(1,2,10,11)   =    -51.305601     0.000000     0.000000   -51.305601
	  102 *D(1,2,10,12)   =    132.211393     0.000000     0.000000   132.211393
	  103 D(1,6,9,7)      =     -0.926998    -0.000001    -0.225042    -1.152040
	  104 D(1,6,9,34)     =    177.324118    -0.000000    -0.056283   177.267835
	  105 D(1,8,7,9)      =     -0.646776    -0.000001    -0.076913    -0.723689
	  106 D(1,8,7,21)     =    179.115279    -0.000000     0.017688   179.132966
	  107 D(2,1,6,9)      =   -177.456791     0.000000     0.155815  -177.300976
	  108 D(2,1,6,33)     =     -0.524295    -0.000000     0.057304    -0.466991
	  109 D(2,1,8,7)      =    178.144327     0.000001    -0.035361   178.108965
	  110 D(2,1,8,22)     =     -3.630280    -0.000000    -0.020504    -3.650784
	  111 *D(2,3,4,16)    =   -178.185641     0.000000     0.000000  -178.185641
	  112 D(2,3,4,17)     =     -5.387469     0.000000     0.050344    -5.337125
	  113 D(2,10,11,13)   =   -176.715030    -0.000000     0.003626  -176.711404
	  114 D(2,10,11,23)   =      3.841190    -0.000000    -0.011216     3.829974
	  115 D(2,10,12,14)   =    177.238878    -0.000000    -0.005228   177.233650
	  116 D(2,10,12,24)   =     -4.101607     0.000000     0.025536    -4.076072
	  117 D(3,2,1,6)      =    -14.368891     0.000000     0.028654   -14.340237
	  118 D(3,2,1,8)      =    168.002771    -0.000000     0.004898   168.007669
	  119 *D(3,2,10,11)   =    124.284347    -0.000000    -0.000000   124.284347
	  120 D(3,2,10,12)    =    -52.198659    -0.000000    -0.000000   -52.198659
	  121 D(3,4,16,18)    =    174.912260     0.000000     0.026495   174.938755
	  122 D(3,4,16,28)    =     -4.929601     0.000000     0.077277    -4.852325
	  123 D(3,4,17,19)    =   -175.539327    -0.000000    -0.018918  -175.558245
	  124 D(3,4,17,29)    =      4.710295    -0.000000    -0.074987     4.635308
	  125 *D(4,3,2,10)    =    141.965917     0.000000    -0.000000   141.965917
	  126 D(4,16,18,20)   =      0.688571     0.000000     0.006425     0.694996
	  127 D(4,16,18,30)   =   -178.686783     0.000000     0.039150  -178.647633
	  128 D(4,17,19,20)   =      1.564309    -0.000000    -0.027945     1.536363
	  129 D(4,17,19,31)   =   -178.944157    -0.000000    -0.040190  -178.984347
	  130 D(5,3,2,10)     =    -17.188146    -0.000001    -0.235302   -17.423447
	  131 D(5,3,4,16)     =    -18.960595     0.000001     0.232196   -18.728399
	  132 D(5,3,4,17)     =    153.837578     0.000001     0.282539   154.120117
	  133 D(6,1,2,10)     =    160.835984     0.000000     0.028678   160.864662
	  134 D(6,1,8,7)      =      0.083250    -0.000000    -0.056833     0.026416
	  135 D(6,1,8,22)     =    178.308643    -0.000001    -0.041976   178.266667
	  136 D(6,9,7,8)      =      1.024939     0.000001     0.195774     1.220714
	  137 D(6,9,7,21)     =   -178.724587     0.000001     0.096157  -178.628431
	  138 D(7,9,6,33)     =   -177.851432    -0.000001    -0.126341  -177.977774
	  139 D(8,1,2,10)     =    -16.792354    -0.000001     0.004922   -16.787432
	  140 D(8,1,6,9)      =      0.518073     0.000001     0.174207     0.692279
	  141 D(8,1,6,33)     =    177.450569     0.000000     0.075695   177.526264
	  142 D(8,7,9,34)     =   -177.404752     0.000000     0.044405  -177.360347
	  143 D(9,7,8,22)     =   -179.038500     0.000000    -0.089493  -179.127993
	  144 D(10,11,13,15)  =     -0.229385    -0.000000    -0.002331    -0.231716
	  145 D(10,11,13,25)  =   -179.924529    -0.000000    -0.005767  -179.930296
	  146 D(10,12,14,15)  =     -0.740987     0.000000     0.003194    -0.737793
	  147 D(10,12,14,26)  =    178.951280     0.000000     0.010226   178.961506
	  148 D(11,10,12,14)  =      0.707091    -0.000000    -0.004475     0.702615
	  149 D(11,10,12,24)  =    179.366606     0.000000     0.026288   179.392894
	  150 D(11,13,15,14)  =      0.198552     0.000000     0.000995     0.199547
	  151 D(11,13,15,27)  =   -179.649172    -0.000000    -0.004067  -179.653239
	  152 D(12,10,11,13)  =     -0.221323     0.000000     0.004034    -0.217289
	  153 D(12,10,11,23)  =   -179.665103    -0.000000    -0.010808  -179.675911
	  154 D(12,14,15,13)  =      0.285999    -0.000000    -0.001432     0.284566
	  155 D(12,14,15,27)  =   -179.866271     0.000000     0.003628  -179.862642
	  156 D(13,15,14,26)  =   -179.405434    -0.000000    -0.008497  -179.413932
	  157 D(14,15,13,25)  =    179.892754     0.000000     0.004466   179.897220
	  158 D(15,13,11,23)  =    179.206931     0.000000     0.012748   179.219679
	  159 D(15,14,12,24)  =   -179.391032    -0.000000    -0.027612  -179.418644
	  160 D(16,4,17,19)   =     -2.794962     0.000000     0.031987    -2.762976
	  161 D(16,4,17,29)   =    177.454660    -0.000000    -0.024083   177.430577
	  162 D(16,18,20,19)  =     -1.937954     0.000000    -0.001430    -1.939384
	  163 D(16,18,20,32)  =   -179.108756     0.000000    -0.000695  -179.109451
	  164 D(17,4,16,18)   =      1.693432    -0.000000    -0.021436     1.671997
	  165 D(17,4,16,28)   =   -178.148429     0.000000     0.029345  -178.119084
	  166 D(17,19,20,18)  =      0.825951     0.000000     0.012260     0.838211
	  167 D(17,19,20,32)  =    177.977640    -0.000000     0.011426   177.989066
	  168 D(18,20,19,31)  =   -178.662796     0.000000     0.024605  -178.638190
	  169 *D(18,20,32,35) =    -28.676024    -0.000000     0.000000   -28.676024
	  170 D(18,20,32,36)  =    177.755009    -0.000001    -0.158419   177.596590
	  171 D(19,20,18,30)  =    177.437600    -0.000000    -0.034098   177.403502
	  172 D(19,20,32,35)  =    154.254033     0.000000     0.000751   154.254783
	  173 D(19,20,32,36)  =      0.685066    -0.000001    -0.157668     0.527397
	  174 D(20,18,16,28)  =   -179.469030    -0.000000    -0.044177  -179.513207
	  175 D(20,19,17,29)  =   -178.682397     0.000000     0.027505  -178.654892
	  176 D(21,7,8,22)    =      0.723555     0.000000     0.005107     0.728662
	  177 D(21,7,9,34)    =      2.845721    -0.000000    -0.055213     2.790509
	  178 D(23,11,13,25)  =     -0.488213     0.000000     0.009312    -0.478901
	  179 D(24,12,14,26)  =      0.301236    -0.000000    -0.020580     0.280656
	  180 D(25,13,15,27)  =      0.045030     0.000000    -0.000596     0.044434
	  181 D(26,14,15,27)  =      0.442296    -0.000000    -0.003436     0.438860
	  182 D(28,16,18,30)  =      1.155616    -0.000000    -0.011452     1.144163
	  183 D(29,17,19,31)  =      0.809137     0.000000     0.015261     0.824398
	  184 D(30,18,20,32)  =      0.266798    -0.000000    -0.033362     0.233436
	  185 D(31,19,20,32)  =     -1.511107     0.000000     0.023771    -1.487336
	  186 D(33,6,9,34)    =      0.399684     0.000000     0.042417     0.442101
	  187 R(1,17)         =      3.200725    -0.000392    -0.000591     3.200134
	  188 R(4,6)          =      3.248547     0.000660     0.001210     3.249757
	  189 R(6,17)         =      3.066168     0.000234    -0.000164     3.066003
	  190 R(8,11)         =      3.315843    -0.000603    -0.002189     3.313654
	  191 R(10,22)        =      3.075937    -0.000670    -0.003069     3.072868
	  192 R(11,22)        =      3.078963    -0.000396    -0.003136     3.075826
	 ---------------------------------------------------------------------------
	Successfully symmetrized geometry.

  ==> Convergence Check <==

  Measures of convergence in internal coordinates in au.
  Criteria marked as inactive (o), active & met (*), and active & unmet ( ).
  ---------------------------------------------------------------------------------------------
   Step     Total Energy     Delta E     MAX Force     RMS Force      MAX Disp      RMS Disp   
  ---------------------------------------------------------------------------------------------
    Convergence Criteria             o    2.50e-03 *    1.70e-03 *    1.00e-02 *    6.70e-03 *
  ---------------------------------------------------------------------------------------------
     11    -895.97130241   -2.65e-05 o    1.31e-04 *    2.87e-05 *    5.93e-03 *    1.17e-03 *  ~
  ---------------------------------------------------------------------------------------------


  **** Optimization is complete! (in 11 steps) ****

  ==> Optimization Summary <==

  Measures of convergence in internal coordinates in au.
  --------------------------------------------------------------------------------------------------------------- ~
   Step         Total Energy             Delta E       MAX Force       RMS Force        MAX Disp        RMS Disp  ~
  --------------------------------------------------------------------------------------------------------------- ~
      1    -895.958871453192   -895.958871453192      0.03540141      0.00372053      0.08088732      0.01437212  ~
      2    -895.963600007401     -0.004728554209      0.00633629      0.00111204      0.09444480      0.01442911  ~
      3    -895.965809361074     -0.002209353673      0.00438530      0.00072315      0.09523561      0.01442768  ~
      4    -895.967536052061     -0.001726690987      0.00358714      0.00058231      0.09361060      0.01442690  ~
      5    -895.968923978712     -0.001387926651      0.00280055      0.00046301      0.09170709      0.01442780  ~
      6    -895.969982131075     -0.001058152363      0.00201508      0.00034467      0.08933284      0.01439049  ~
      7    -895.970716087367     -0.000733956292      0.00218256      0.00028319      0.08417802      0.01440142  ~
      8    -895.971146972829     -0.000430885462      0.00188228      0.00020178      0.08718221      0.01380833  ~
      9    -895.971263578306     -0.000116605477      0.00116006      0.00017457      0.02385852      0.00497380  ~
     10    -895.971275874620     -0.000012296314      0.00058297      0.00012975      0.01013270      0.00241194  ~
     11    -895.971302412267     -0.000026537647      0.00013140      0.00002872      0.00592638      0.00116995  ~
  --------------------------------------------------------------------------------------------------------------- ~

	Writing optimization data to binary file.
	Final energy is   -895.9713024122674
	Final (previous) structure:
	Cartesian Geometry (in Angstrom)
	    C    -0.8234480656   1.2928405956  -0.0634156574
	    C    -0.7478193600  -0.0211297283   0.3056091848
	    N     0.3803090720  -0.5519050178   0.9074277045
	    C     1.7549443111  -0.3529584547   0.6099822301
	    H     0.2032442671  -1.3967114480   1.4266623380
	    C     0.0499767230   2.3978941862   0.3289974454
	    N    -1.5704417126   3.2319908851  -0.9907656980
	    C    -1.8782693476   1.8753851427  -0.9290280108
	    C    -0.4325982220   3.5270542351  -0.2288607695
	    C    -1.8641120524  -0.9959915490   0.2090243006
	    C    -3.1192227535  -0.7018011531   0.7481597521
	    C    -1.6395198828  -2.2533766831  -0.3630785886
	    C    -4.1356966961  -1.6486682659   0.7116795019
	    C    -2.6617131203  -3.1974026297  -0.4079959555
	    C    -3.9100882783  -2.8968109364   0.1321680579
	    C     2.6893916903  -1.0614372011   1.3741127827
	    C     2.2176815240   0.3865533942  -0.4815254423
	    C     4.0448829950  -1.0081500007   1.0845029844
	    C     3.5783220878   0.4585630931  -0.7578543716
	    C     4.5193767210  -0.2271793785   0.0210283712
	    H    -2.1149397965   3.8801223928  -1.5253620128
	    O    -2.8324191388   1.3484133228  -1.5309573730
	    H    -3.2909787041   0.2718774701   1.1842387196
	    H    -0.6708328772  -2.4790851805  -0.7903851260
	    H    -5.1043394260  -1.4126653575   1.1299440761
	    H    -2.4858827654  -4.1607800292  -0.8668178929
	    H    -4.7045060439  -3.6301165225   0.0998803895
	    H     2.3502042058  -1.6660368889   2.2069884050
	    H     1.5233999123   0.9118764321  -1.1176908191
	    H     4.7428264101  -1.5832687884   1.6792537917
	    H     3.9124039906   1.0524094256  -1.5994735192
	    N     5.8768103229  -0.1876624425  -0.2816309470
	    H     0.8949882179   2.3290545944   0.9892474376
	    H    -0.0820261914   4.5397609968  -0.1350485839
	    H     6.5500513011  -0.3319445439   0.4462427820
	    H     6.1858443343   0.3515558410  -1.0676500212
	Saving final (previous) structure.
			--------------------------
			 OPTKING Finished Execution 
			--------------------------

    Final optimized geometry and variables:
    Molecular point group: c1
    Full point group: C1

    Geometry (in Angstrom), charge = 0, multiplicity = 1:

    C           -0.823448068853     1.292840600654    -0.063415657654
    C           -0.747819362963    -0.021129728385     0.305609186038
    N            0.380309073518    -0.551905019923     0.907427708083
    C            1.754944317967    -0.352958456129     0.609982232455
    H            0.203244267893    -1.396711453534     1.426662343651
    C            0.049976723194     2.397894195576     0.328997446710
    N           -1.570441718807     3.231990897814    -0.990765701926
    C           -1.878269355012     1.875385150051    -0.929028014481
    C           -0.432598223710     3.527054249004    -0.228860770387
    C           -1.864112059711    -0.995991552880     0.209024301387
    C           -3.119222765730    -0.701801155850     0.748159755077
    C           -1.639519889214    -2.253376691996    -0.363078589977
    C           -4.135696712339    -1.648668272334     0.711679504656
    C           -2.661713130800    -3.197402642256    -0.407995957086
    C           -3.910088293690    -2.896810947800     0.132168058440
    C            2.689391700854    -1.061437205320     1.374112788059
    C            2.217681532736     0.386553395682    -0.481525444169
    C            4.044883010913    -1.008150004647     1.084502988709
    C            3.578322101866     0.458563094906    -0.757854374606
    C            4.519376738777    -0.227179379427     0.021028371255
    H           -2.114939804841     3.880122408079    -1.525362018749
    O           -2.832419149934     1.348413328124    -1.530957379033
    H           -3.290978717068     0.271877471185     1.184238724304
    H           -0.670832879816    -2.479085190218    -0.790385129127
    H           -5.104339446052    -1.412665363007     1.129944080505
    H           -2.485882775186    -4.160780045591    -0.866817896320
    H           -4.704506062364    -3.630116536720     0.099880389855
    H            2.350204215014    -1.666036895476     2.206988413724
    H            1.523399918328     0.911876435654    -1.117690823485
    H            4.742826428782    -1.583268794612     1.679253798252
    H            3.912404006023     1.052409429772    -1.599473525474
    N            5.876810345988    -0.187662443213    -0.281630948062
    H            0.894988221448     2.329054603588     0.989247441514
    H           -0.082026191750     4.539761014664    -0.135048584447
    H            6.550051326830    -0.331944545183     0.446242783775
    H            6.185844358661     0.351555842339    -1.067650025378

	Removing binary optimization data file.
	Cleaning optimization helper files.

    Psi4 stopped on: Friday, 05 November 2021 11:55AM
    Psi4 wall time for execution: 3:19:53.02

*** Psi4 exiting successfully. Buy a developer a beer!
