
    -----------------------------------------------------------------------
          Psi4: An Open-Source Ab Initio Electronic Structure Package
                               Psi4 1.3.2 release

                         Git: Rev {HEAD} ecbda83 


    R. M. Parrish, L. A. Burns, D. G. A. Smith, A. C. Simmonett,
    A. E. DePrince III, E. G. Hohenstein, U. Bozkaya, A. Yu. Sokolov,
    R. Di Remigio, R. M. Richard, J. F. Gonthier, A. M. James,
    H. R. McAlexander, A. Kumar, M. Saitow, X. Wang, B. P. Pritchard,
    P. Verma, H. F. Schaefer III, K. Patkowski, R. A. King, E. F. Valeev,
    F. A. Evangelista, J. M. Turney, T. D. Crawford, and C. D. Sherrill,
    J. Chem. Theory Comput. 13(7) pp 3185--3197 (2017).
    (doi: 10.1021/acs.jctc.7b00174)


                         Additional Contributions by
    P. Kraus, H. Kruse, M. H. Lechner, M. C. Schieber, R. A. Shaw,
    A. Alenaizan, R. Galvelis, Z. L. Glick, S. Lehtola, and J. P. Misiewicz

    -----------------------------------------------------------------------


    Psi4 started on: Friday, 05 November 2021 07:18AM

    Process ID: 11481
    Host:       node44.bme.utexas.edu
    PSIDATADIR: /home/bdw2292/miniconda3/envs/amoebamdpoltype/share/psi4
    Memory:     500.0 MiB
    Threads:    1
    
  ==> Input File <==

--------------------------------------------------------------------------
molecule { 
0 1
 C   -0.712602    1.600978    0.121385
 C   -0.797142    0.235584    0.344185
 N    0.181955   -0.389341    1.163276
 C    1.562234   -0.655979    0.854447
 H   -0.241090   -1.146667    1.700988
 C    0.211823    2.538401    0.742638
 N   -1.081576    3.714237   -0.680402
 C   -1.562064    2.420509   -0.818804
 C   -0.043503    3.773115    0.235641
 C   -1.895212   -0.653575   -0.124307
 C   -3.252973   -0.335894    0.130815
 C   -1.591180   -1.884009   -0.760473
 C   -4.274151   -1.211242   -0.260130
 C   -2.614544   -2.757212   -1.149371
 C   -3.962469   -2.425693   -0.904372
 C    2.366502   -1.332905    1.804988
 C    2.158656   -0.286036   -0.378032
 C    3.710881   -1.622458    1.534998
 C    3.504382   -0.576898   -0.640687
 C    4.313865   -1.242720    0.311497
 H   -1.473549    4.483611   -1.204074
 O   -2.494144    2.131545   -1.569736
 H   -3.507396    0.597603    0.634280
 H   -0.549021   -2.150682   -0.943685
 H   -5.313305   -0.947225   -0.058470
 H   -2.360723   -3.698759   -1.638763
 H   -4.759994   -3.105394   -1.209510
 H    1.945050   -1.638533    2.765644
 H    1.579606    0.228429   -1.146817
 H    4.292113   -2.153270    2.292287
 H    3.923977   -0.280911   -1.604657
 N    5.681941   -1.540214    0.038379
 H    0.969608    2.289607    1.471927
 H    0.431602    4.721078    0.447036
 H    6.263690   -1.594441    0.874988
 H    6.114519   -0.895988   -0.624478
}
set optking { 
  frozen_dihedral = ("
    1 2 3 4
    10 2 3 4
    1 2 10 11
    1 2 10 12
    3 2 10 11
    16 4 3 2
    18 20 32 35
  ")
}
set {
  geom_maxiter 400
  g_convergence GAU_LOOSE
  dynamic_level 1
}
memory 8.333333333333334GB
set_num_threads(1)
psi4_io.set_default_path("/scratch/bdw2292/Psi4-7_1_Index_0_GrowFragment_0-farH_in17")
for _ in range(1):
  try:
    set opt_coordinates both
    optimize('wb97x-d/6-311G')
    break
  except OptimizationConvergenceError:
    break
  else:
    try:
      set opt_coordinates cartesian
      optimize('wb97x-d/6-311G')
      break
    except OptimizationConvergenceError:
      pass
clean()
--------------------------------------------------------------------------

  Memory set to   7.761 GiB by Python driver.
  Threads set to 1 by Python driver.
gradient() will perform analytic gradient computation.

*** tstart() called on node44.bme.utexas.edu
*** at Fri Nov  5 07:18:26 2021

   => Loading Basis Set <=

    Name: 6-311G
    Role: ORBITAL
    Keyword: BASIS
    atoms 1-2, 4, 6, 8-20     entry C          line    92 file /home/bdw2292/miniconda3/envs/amoebamdpoltype/share/psi4/basis/6-311g.gbs 
    atoms 3, 7, 32            entry N          line   109 file /home/bdw2292/miniconda3/envs/amoebamdpoltype/share/psi4/basis/6-311g.gbs 
    atoms 5, 21, 23-31, 33-36 entry H          line    21 file /home/bdw2292/miniconda3/envs/amoebamdpoltype/share/psi4/basis/6-311g.gbs 
    atoms 22                  entry O          line   126 file /home/bdw2292/miniconda3/envs/amoebamdpoltype/share/psi4/basis/6-311g.gbs 


         ---------------------------------------------------------
                                   SCF
               by Justin Turney, Rob Parrish, Andy Simmonett
                          and Daniel G. A. Smith
                              RKS Reference
                        1 Threads,   7947 MiB Core
         ---------------------------------------------------------

  ==> Geometry <==

    Molecular point group: c1
    Full point group: C1

    Geometry (in Angstrom), charge = 0, multiplicity = 1:

       Center              X                  Y                   Z               Mass       
    ------------   -----------------  -----------------  -----------------  -----------------
         C           -0.712298610834     1.598237116008     0.134033569689    12.000000000000
         C           -0.796838610834     0.232843116008     0.356833569689    12.000000000000
         N            0.182258389166    -0.392081883992     1.175924569689    14.003074004430
         C            1.562537389166    -0.658719883992     0.867095569689    12.000000000000
         H           -0.240786610834    -1.149407883992     1.713636569689     1.007825032230
         C            0.212126389166     2.535660116008     0.755286569689    12.000000000000
         N           -1.081272610834     3.711496116008    -0.667753430311    14.003074004430
         C           -1.561760610834     2.417768116008    -0.806155430311    12.000000000000
         C           -0.043199610834     3.770374116008     0.248289569689    12.000000000000
         C           -1.894908610834    -0.656315883992    -0.111658430311    12.000000000000
         C           -3.252669610834    -0.338634883992     0.143463569689    12.000000000000
         C           -1.590876610834    -1.886749883992    -0.747824430311    12.000000000000
         C           -4.273847610834    -1.213982883992    -0.247481430311    12.000000000000
         C           -2.614240610834    -2.759952883992    -1.136722430311    12.000000000000
         C           -3.962165610834    -2.428433883992    -0.891723430311    12.000000000000
         C            2.366805389166    -1.335645883992     1.817636569689    12.000000000000
         C            2.158959389166    -0.288776883992    -0.365383430311    12.000000000000
         C            3.711184389166    -1.625198883992     1.547646569689    12.000000000000
         C            3.504685389166    -0.579638883992    -0.628038430311    12.000000000000
         C            4.314168389166    -1.245460883992     0.324145569689    12.000000000000
         H           -1.473245610834     4.480870116008    -1.191425430311     1.007825032230
         O           -2.493840610834     2.128804116008    -1.557087430311    15.994914619570
         H           -3.507092610834     0.594862116008     0.646928569689     1.007825032230
         H           -0.548717610834    -2.153422883992    -0.931036430311     1.007825032230
         H           -5.313001610834    -0.949965883992    -0.045821430311     1.007825032230
         H           -2.360419610834    -3.701499883992    -1.626114430311     1.007825032230
         H           -4.759690610834    -3.108134883992    -1.196861430311     1.007825032230
         H            1.945353389166    -1.641273883992     2.778292569689     1.007825032230
         H            1.579909389166     0.225688116008    -1.134168430311     1.007825032230
         H            4.292416389166    -2.156010883992     2.304935569689     1.007825032230
         H            3.924280389166    -0.283651883992    -1.592008430311     1.007825032230
         N            5.682244389166    -1.542954883992     0.051027569689    14.003074004430
         H            0.969911389166     2.286866116008     1.484575569689     1.007825032230
         H            0.431905389166     4.718337116008     0.459684569689     1.007825032230
         H            6.263993389166    -1.597181883992     0.887636569689     1.007825032230
         H            6.114822389166    -0.898728883992    -0.611829430311     1.007825032230

  Running in c1 symmetry.

  Rotational constants: A =      0.01422  B =      0.00688  C =      0.00513 [cm^-1]
  Rotational constants: A =    426.30472  B =    206.23414  C =    153.72932 [MHz]
  Nuclear repulsion = 1518.800633301597600

  Charge       = 0
  Multiplicity = 1
  Electrons    = 146
  Nalpha       = 73
  Nbeta        = 73

  ==> Algorithm <==

  SCF Algorithm Type is DF.
  DIIS enabled.
  MOM disabled.
  Fractional occupation disabled.
  Guess Type is SAD.
  Energy threshold   = 1.00e-08
  Density threshold  = 1.00e-08
  Integral threshold = 0.00e+00

  ==> Primary Basis <==

  Basis Set: 6-311G
    Blend: 6-311G
    Number of shells: 192
    Number of basis function: 318
    Number of Cartesian functions: 318
    Spherical Harmonics?: true
    Max angular momentum: 1

  ==> DFT Potential <==

   => Composite Functional: WB97X-D <= 

    wB97X-D Hyb-GGA Exchange-Correlation Functional

    J.-D. Chai and M. Head-Gordon, Phys. Chem. Chem. Phys. 10, 6615 (2008)

    Deriv               =              1
    GGA                 =           TRUE
    Meta                =          FALSE

    Exchange Hybrid     =           TRUE
    MP2 Hybrid          =          FALSE

   => Exchange-Correlation Functionals <=

    1.0000   wB97D range-separated functional

   => Exact (HF) Exchange <=

    0.7780            HF,LR [omega = 0.2000]
    0.2220               HF 

   => Molecular Quadrature <=

    Radial Scheme          =       TREUTLER
    Pruning Scheme         =           FLAT
    Nuclear Scheme         =       TREUTLER

    BS radius alpha        =              1
    Pruning alpha          =              1
    Radial Points          =             75
    Spherical Points       =            302
    Total Points           =         806624
    Total Blocks           =           5722
    Max Points             =            256
    Max Functions          =            223

   => WB97X-D: Empirical Dispersion <=

    Chai and Head-Gordon Dispersion Correction
    Chai, J.-D.; Head-Gordon, M. (2010), J. Chem. Phys., 132: 6615-6620

        s6 =       1.000000

   => Loading Basis Set <=

    Name: (6-311G AUX)
    Role: JKFIT
    Keyword: DF_BASIS_SCF
    atoms 1-2, 4, 6, 8-20     entry C          line   125 file /home/bdw2292/miniconda3/envs/amoebamdpoltype/share/psi4/basis/cc-pvtz-jkfit.gbs 
    atoms 3, 7, 32            entry N          line   177 file /home/bdw2292/miniconda3/envs/amoebamdpoltype/share/psi4/basis/cc-pvtz-jkfit.gbs 
    atoms 5, 21, 23-31, 33-36 entry H          line    51 file /home/bdw2292/miniconda3/envs/amoebamdpoltype/share/psi4/basis/cc-pvtz-jkfit.gbs 
    atoms 22                  entry O          line   229 file /home/bdw2292/miniconda3/envs/amoebamdpoltype/share/psi4/basis/cc-pvtz-jkfit.gbs 

  ==> Pre-Iterations <==

   -------------------------------------------------------
    Irrep   Nso     Nmo     Nalpha   Nbeta   Ndocc  Nsocc
   -------------------------------------------------------
     A        318     318       0       0       0       0
   -------------------------------------------------------
    Total     318     318      73      73      73       0
   -------------------------------------------------------

  ==> Integral Setup <==

  ==> DiskDFJK: Density-Fitted J/K Matrices <==

    J tasked:                  Yes
    K tasked:                  Yes
    wK tasked:                 Yes
    Omega:               2.000E-01
    OpenMP threads:              1
    Integrals threads:           1
    Memory [MiB]:             2612
    Algorithm:                Core
    Integral Cache:           NONE
    Schwarz Cutoff:          1E-12
    Fitting Condition:       1E-10

   => Auxiliary Basis Set <=

  Basis Set: (6-311G AUX)
    Blend: CC-PVTZ-JKFIT
    Number of shells: 675
    Number of basis function: 2109
    Number of Cartesian functions: 2541
    Spherical Harmonics?: true
    Max angular momentum: 4

  Cached 100.0% of DFT collocation blocks in 3.270 [GiB].

  Minimum eigenvalue in the overlap matrix is 2.6217818459E-04.
  Using Symmetric Orthogonalization.

  SCF Guess: Superposition of Atomic Densities via on-the-fly atomic UHF.

  ==> Iterations <==

                           Total Energy        Delta E     RMS |[F,P]|

   @DF-RKS iter SAD:  -895.03798728169124   -8.95038e+02   0.00000e+00 
   @DF-RKS iter   1:  -895.30931674280316   -2.71329e-01   3.65200e-03 DIIS
   @DF-RKS iter   2:  -895.52578559568360   -2.16469e-01   3.26892e-03 DIIS
   @DF-RKS iter   3:  -895.92518544043060   -3.99400e-01   8.86648e-04 DIIS
   @DF-RKS iter   4:  -895.95484771376380   -2.96623e-02   1.92604e-04 DIIS
   @DF-RKS iter   5:  -895.95623236406357   -1.38465e-03   7.09163e-05 DIIS
   @DF-RKS iter   6:  -895.95646699966983   -2.34636e-04   1.38551e-05 DIIS
   @DF-RKS iter   7:  -895.95647940742333   -1.24078e-05   6.89760e-06 DIIS
   @DF-RKS iter   8:  -895.95648291001930   -3.50260e-06   2.09380e-06 DIIS
   @DF-RKS iter   9:  -895.95648355517392   -6.45155e-07   1.17004e-06 DIIS
   @DF-RKS iter  10:  -895.95648373915856   -1.83985e-07   3.34559e-07 DIIS
   @DF-RKS iter  11:  -895.95648375632288   -1.71643e-08   1.68771e-07 DIIS
   @DF-RKS iter  12:  -895.95648376009035   -3.76747e-09   4.60417e-08 DIIS
   @DF-RKS iter  13:  -895.95648376048621   -3.95858e-10   3.08347e-08 DIIS
   @DF-RKS iter  14:  -895.95648376058068   -9.44738e-11   9.26524e-09 DIIS
  Energy and wave function converged.


  ==> Post-Iterations <==

    Orbital Energies [Eh]
    ---------------------

    Doubly Occupied:                                                      

       1A    -19.210124     2A    -14.466254     3A    -14.462642  
       4A    -14.439487     5A    -10.395924     6A    -10.361814  
       7A    -10.343091     8A    -10.339110     9A    -10.330224  
      10A    -10.313549    11A    -10.305797    12A    -10.301660  
      13A    -10.300409    14A    -10.299939    15A    -10.299194  
      16A    -10.298101    17A    -10.296853    18A    -10.296580  
      19A    -10.296214    20A    -10.295251    21A    -10.281255  
      22A     -1.150971    23A     -1.063884    24A     -1.052792  
      25A     -1.020821    26A     -0.965462    27A     -0.942177  
      28A     -0.902489    29A     -0.868704    30A     -0.853631  
      31A     -0.851901    32A     -0.830178    33A     -0.815604  
      34A     -0.765562    35A     -0.720935    36A     -0.711673  
      37A     -0.703772    38A     -0.698308    39A     -0.683503  
      40A     -0.647208    41A     -0.626204    42A     -0.621968  
      43A     -0.600976    44A     -0.599021    45A     -0.589351  
      46A     -0.564954    47A     -0.555966    48A     -0.539040  
      49A     -0.534822    50A     -0.529286    51A     -0.525656  
      52A     -0.516805    53A     -0.514054    54A     -0.513178  
      55A     -0.508157    56A     -0.495627    57A     -0.484643  
      58A     -0.481804    59A     -0.471580    60A     -0.456798  
      61A     -0.442511    62A     -0.433104    63A     -0.431728  
      64A     -0.424515    65A     -0.411081    66A     -0.384878  
      67A     -0.349356    68A     -0.339594    69A     -0.335288  
      70A     -0.329921    71A     -0.322539    72A     -0.276786  
      73A     -0.251965  

    Virtual:                                                              

      74A     -0.006921    75A      0.056118    76A      0.062598  
      77A      0.063924    78A      0.087021    79A      0.117301  
      80A      0.124101    81A      0.129773    82A      0.132804  
      83A      0.134640    84A      0.144853    85A      0.152561  
      86A      0.162215    87A      0.167188    88A      0.173756  
      89A      0.188610    90A      0.191111    91A      0.192886  
      92A      0.203967    93A      0.204211    94A      0.212016  
      95A      0.224889    96A      0.225596    97A      0.238249  
      98A      0.264059    99A      0.277989   100A      0.289611  
     101A      0.300956   102A      0.316977   103A      0.329276  
     104A      0.343621   105A      0.347429   106A      0.354427  
     107A      0.356283   108A      0.361722   109A      0.368482  
     110A      0.372757   111A      0.381515   112A      0.386531  
     113A      0.391354   114A      0.408422   115A      0.421390  
     116A      0.430207   117A      0.442471   118A      0.448018  
     119A      0.460861   120A      0.464636   121A      0.471450  
     122A      0.478641   123A      0.479926   124A      0.483972  
     125A      0.487914   126A      0.490248   127A      0.497174  
     128A      0.499484   129A      0.502681   130A      0.505564  
     131A      0.512895   132A      0.518525   133A      0.522695  
     134A      0.529587   135A      0.537073   136A      0.545448  
     137A      0.546579   138A      0.554827   139A      0.556369  
     140A      0.562014   141A      0.569034   142A      0.576487  
     143A      0.578129   144A      0.590585   145A      0.595330  
     146A      0.605536   147A      0.614302   148A      0.625580  
     149A      0.628831   150A      0.630266   151A      0.640956  
     152A      0.652312   153A      0.670255   154A      0.673892  
     155A      0.683020   156A      0.689037   157A      0.696108  
     158A      0.699633   159A      0.703019   160A      0.713174  
     161A      0.716024   162A      0.717805   163A      0.724465  
     164A      0.727339   165A      0.731954   166A      0.734825  
     167A      0.739613   168A      0.746184   169A      0.750088  
     170A      0.757656   171A      0.766654   172A      0.770355  
     173A      0.777302   174A      0.796384   175A      0.805230  
     176A      0.807221   177A      0.823454   178A      0.842615  
     179A      0.847325   180A      0.855292   181A      0.855835  
     182A      0.863438   183A      0.870862   184A      0.881539  
     185A      0.897367   186A      0.899431   187A      0.907583  
     188A      0.921171   189A      0.925623   190A      0.937572  
     191A      0.946952   192A      0.959721   193A      0.967206  
     194A      0.978387   195A      0.990664   196A      1.000530  
     197A      1.015062   198A      1.022275   199A      1.037887  
     200A      1.049722   201A      1.056898   202A      1.081359  
     203A      1.099870   204A      1.102939   205A      1.111868  
     206A      1.128257   207A      1.138503   208A      1.172303  
     209A      1.185435   210A      1.211628   211A      1.240413  
     212A      1.279219   213A      1.281935   214A      1.344765  
     215A      1.380224   216A      1.432461   217A      1.485782  
     218A      1.620373   219A      1.833562   220A      2.267592  
     221A      2.302151   222A      2.324187   223A      2.343378  
     224A      2.351564   225A      2.358737   226A      2.369906  
     227A      2.379816   228A      2.388738   229A      2.429890  
     230A      2.453407   231A      2.460088   232A      2.483440  
     233A      2.575250   234A      2.622521   235A      2.632447  
     236A      2.635713   237A      2.645705   238A      2.666342  
     239A      2.673954   240A      2.680785   241A      2.697751  
     242A      2.704801   243A      2.762925   244A      2.776822  
     245A      2.794515   246A      2.803708   247A      2.812051  
     248A      2.813762   249A      2.828850   250A      2.843772  
     251A      2.852161   252A      2.861929   253A      2.864842  
     254A      2.889382   255A      2.902433   256A      2.931225  
     257A      2.947640   258A      2.970700   259A      2.982002  
     260A      3.016063   261A      3.021720   262A      3.043034  
     263A      3.072762   264A      3.102721   265A      3.134134  
     266A      3.142742   267A      3.173775   268A      3.188570  
     269A      3.202354   270A      3.215785   271A      3.241160  
     272A      3.253699   273A      3.260423   274A      3.299153  
     275A      3.300565   276A      3.306413   277A      3.325697  
     278A      3.337144   279A      3.342354   280A      3.347197  
     281A      3.365997   282A      3.377818   283A      3.444630  
     284A      3.485862   285A      3.545727   286A      3.819753  
     287A      3.832543   288A      3.936948   289A      4.075101  
     290A      4.093110   291A      4.111704   292A      4.217960  
     293A      4.236389   294A      4.296164   295A      5.006838  
     296A      5.112168   297A      5.119054   298A     23.233837  
     299A     23.248928   300A     23.347096   301A     23.473062  
     302A     23.475602   303A     23.478210   304A     23.498893  
     305A     23.517558   306A     23.583754   307A     23.709853  
     308A     23.721803   309A     23.747225   310A     23.766144  
     311A     23.796801   312A     23.859808   313A     23.980359  
     314A     23.990069   315A     35.513839   316A     35.537971  
     317A     35.617045   318A     50.079178  

    Final Occupation by Irrep:
              A 
    DOCC [    73 ]

  @DF-RKS Final Energy:  -895.95648376058068

   => Energetics <=

    Nuclear Repulsion Energy =           1518.8006333015975997
    One-Electron Energy =               -4230.6989178028143215
    Two-Electron Energy =                1903.5460529859226426
    DFT Exchange-Correlation Energy =     -87.5789041994681554
    Empirical Dispersion Energy =          -0.0253480458181519
    VV10 Nonlocal Energy =                  0.0000000000000000
    Total Energy =                       -895.9564837605806815

Computation Completed


Properties will be evaluated at   0.000000,   0.000000,   0.000000 [a0]

Properties computed using the SCF density matrix

  Nuclear Dipole Moment: [e a0]
     X:     6.8361      Y:    -4.9941      Z:     1.8156

  Electronic Dipole Moment: [e a0]
     X:    -5.6385      Y:     5.2548      Z:    -0.9605

  Dipole Moment: [e a0]
     X:     1.1976      Y:     0.2606      Z:     0.8551     Total:     1.4944

  Dipole Moment: [D]
     X:     3.0439      Y:     0.6625      Z:     2.1735     Total:     3.7985


*** tstop() called on node44.bme.utexas.edu at Fri Nov  5 07:25:58 2021
Module time:
	user time   =     439.18 seconds =       7.32 minutes
	system time =      13.18 seconds =       0.22 minutes
	total time  =        452 seconds =       7.53 minutes
Total time:
	user time   =     439.18 seconds =       7.32 minutes
	system time =      13.18 seconds =       0.22 minutes
	total time  =        452 seconds =       7.53 minutes

*** tstart() called on node44.bme.utexas.edu
*** at Fri Nov  5 07:25:58 2021


         ------------------------------------------------------------
                                   SCF GRAD                          
                          Rob Parrish, Justin Turney,                
                       Andy Simmonett, and Alex Sokolov              
         ------------------------------------------------------------

  ==> Geometry <==

    Molecular point group: c1
    Full point group: C1

    Geometry (in Angstrom), charge = 0, multiplicity = 1:

       Center              X                  Y                   Z               Mass       
    ------------   -----------------  -----------------  -----------------  -----------------
         C           -0.712298610834     1.598237116008     0.134033569689    12.000000000000
         C           -0.796838610834     0.232843116008     0.356833569689    12.000000000000
         N            0.182258389166    -0.392081883992     1.175924569689    14.003074004430
         C            1.562537389166    -0.658719883992     0.867095569689    12.000000000000
         H           -0.240786610834    -1.149407883992     1.713636569689     1.007825032230
         C            0.212126389166     2.535660116008     0.755286569689    12.000000000000
         N           -1.081272610834     3.711496116008    -0.667753430311    14.003074004430
         C           -1.561760610834     2.417768116008    -0.806155430311    12.000000000000
         C           -0.043199610834     3.770374116008     0.248289569689    12.000000000000
         C           -1.894908610834    -0.656315883992    -0.111658430311    12.000000000000
         C           -3.252669610834    -0.338634883992     0.143463569689    12.000000000000
         C           -1.590876610834    -1.886749883992    -0.747824430311    12.000000000000
         C           -4.273847610834    -1.213982883992    -0.247481430311    12.000000000000
         C           -2.614240610834    -2.759952883992    -1.136722430311    12.000000000000
         C           -3.962165610834    -2.428433883992    -0.891723430311    12.000000000000
         C            2.366805389166    -1.335645883992     1.817636569689    12.000000000000
         C            2.158959389166    -0.288776883992    -0.365383430311    12.000000000000
         C            3.711184389166    -1.625198883992     1.547646569689    12.000000000000
         C            3.504685389166    -0.579638883992    -0.628038430311    12.000000000000
         C            4.314168389166    -1.245460883992     0.324145569689    12.000000000000
         H           -1.473245610834     4.480870116008    -1.191425430311     1.007825032230
         O           -2.493840610834     2.128804116008    -1.557087430311    15.994914619570
         H           -3.507092610834     0.594862116008     0.646928569689     1.007825032230
         H           -0.548717610834    -2.153422883992    -0.931036430311     1.007825032230
         H           -5.313001610834    -0.949965883992    -0.045821430311     1.007825032230
         H           -2.360419610834    -3.701499883992    -1.626114430311     1.007825032230
         H           -4.759690610834    -3.108134883992    -1.196861430311     1.007825032230
         H            1.945353389166    -1.641273883992     2.778292569689     1.007825032230
         H            1.579909389166     0.225688116008    -1.134168430311     1.007825032230
         H            4.292416389166    -2.156010883992     2.304935569689     1.007825032230
         H            3.924280389166    -0.283651883992    -1.592008430311     1.007825032230
         N            5.682244389166    -1.542954883992     0.051027569689    14.003074004430
         H            0.969911389166     2.286866116008     1.484575569689     1.007825032230
         H            0.431905389166     4.718337116008     0.459684569689     1.007825032230
         H            6.263993389166    -1.597181883992     0.887636569689     1.007825032230
         H            6.114822389166    -0.898728883992    -0.611829430311     1.007825032230

  Nuclear repulsion = 1518.800633301597600

  ==> Basis Set <==

  Basis Set: 6-311G
    Blend: 6-311G
    Number of shells: 192
    Number of basis function: 318
    Number of Cartesian functions: 318
    Spherical Harmonics?: true
    Max angular momentum: 1

  ==> DFJKGrad: Density-Fitted SCF Gradients <==

    Gradient:                    1
    J tasked:                  Yes
    K tasked:                  Yes
    wK tasked:                 Yes
    Omega:               2.000E-01
    OpenMP threads:              1
    Integrals threads:           1
    Memory [MiB]:             5960
    Schwarz Cutoff:          0E+00
    Fitting Condition:       1E-10

   => Auxiliary Basis Set <=

  Basis Set: (6-311G AUX)
    Blend: CC-PVTZ-JKFIT
    Number of shells: 675
    Number of basis function: 2109
    Number of Cartesian functions: 2541
    Spherical Harmonics?: true
    Max angular momentum: 4

  ==> DFT Potential <==

   => Composite Functional: WB97X-D <= 

    wB97X-D Hyb-GGA Exchange-Correlation Functional

    J.-D. Chai and M. Head-Gordon, Phys. Chem. Chem. Phys. 10, 6615 (2008)

    Deriv               =              1
    GGA                 =           TRUE
    Meta                =          FALSE

    Exchange Hybrid     =           TRUE
    MP2 Hybrid          =          FALSE

   => Exchange-Correlation Functionals <=

    1.0000   wB97D range-separated functional

   => Exact (HF) Exchange <=

    0.7780            HF,LR [omega = 0.2000]
    0.2220               HF 

   => Molecular Quadrature <=

    Radial Scheme          =       TREUTLER
    Pruning Scheme         =           FLAT
    Nuclear Scheme         =       TREUTLER

    BS radius alpha        =              1
    Pruning alpha          =              1
    Radial Points          =             75
    Spherical Points       =            302
    Total Points           =         806624
    Total Blocks           =           5722
    Max Points             =            256
    Max Functions          =            223


  -Total Gradient:
     Atom            X                  Y                   Z
    ------   -----------------  -----------------  -----------------
       1        0.008324534589     0.022641230267     0.003043225135
       2       -0.010581037076    -0.025511287775     0.000268987416
       3        0.005280994419     0.020317138382     0.002395031998
       4       -0.006784211980    -0.006595404533     0.005688072801
       5       -0.006273019208    -0.005917438669     0.003340034175
       6       -0.006260038183    -0.008085251463     0.002172704170
       7        0.006614972387    -0.005719873599     0.009206851969
       8       -0.007947357073    -0.000153883674    -0.010635123062
       9       -0.011652073274     0.002530590590    -0.010517404915
      10        0.011170703982     0.005338527108    -0.000805469986
      11       -0.005218129047     0.002970196081     0.004029850071
      12        0.002751598143    -0.005309828600    -0.005110754887
      13       -0.004730871207     0.004713246770     0.002253074846
      14        0.005166569250    -0.003292720415    -0.001820308489
      15       -0.006325857921    -0.005820156654    -0.002332735429
      16        0.001880576971    -0.004278182428     0.007606861159
      17        0.001525247454     0.002944167359    -0.007642280243
      18        0.001289196555    -0.001526485971     0.005507493824
      19       -0.000765917182     0.002891409679    -0.006754978850
      20        0.004955785719    -0.001333852723    -0.000621867383
      21       -0.003371766285     0.005671264304    -0.004461950466
      22        0.010080849411     0.009531847421     0.008237273863
      23       -0.003237631930     0.005287804460     0.003765404858
      24        0.005240354846    -0.002018048485    -0.000863472494
      25       -0.006180614748     0.001990625033     0.001486691371
      26        0.002014603389    -0.005737136826    -0.002442041664
      27       -0.005053934053    -0.004121745801    -0.002036367541
      28       -0.001272772662    -0.003009158976     0.006086344182
      29       -0.001311547636     0.002794644299    -0.006601876657
      30        0.002142979274    -0.003154219658     0.005233107879
      31        0.001346782275     0.002160831914    -0.005900028709
      32        0.001274152526    -0.019107071648    -0.008961420211
      33        0.003551483750    -0.000180619297     0.002683812280
      34        0.000852852052     0.003992058153    -0.001277550118
      35        0.006161893285     0.005586754290     0.006939880180
      36        0.005454324726     0.009432717293    -0.001234605022


*** tstop() called on node44.bme.utexas.edu at Fri Nov  5 07:30:06 2021
Module time:
	user time   =     244.47 seconds =       4.07 minutes
	system time =       2.61 seconds =       0.04 minutes
	total time  =        248 seconds =       4.13 minutes
Total time:
	user time   =     683.65 seconds =      11.39 minutes
	system time =      15.79 seconds =       0.26 minutes
	total time  =        700 seconds =      11.67 minutes

			-----------------------------------------
			 OPTKING 2.0: for geometry optimizations 
			  - R.A. King,  Bethel University        
			-----------------------------------------
	At level 1: Red. Int., RFO, no backsteps, dynamic trust

	Internal coordinates to be generated automatically.
	Detected frag 1 with atoms:  1 2 3 4 5 6 7 8 9 10 11 12 13 14 15 16 17 18 19 20
	 21 22 23 24 25 26 27 28 29 30 31 32 33 34 35 36
	---Fragment 1 Bond Connectivity---
	 1 : 2 6 8
	 2 : 1 3 10
	 3 : 2 4 5
	 4 : 3 16 17
	 5 : 3
	 6 : 1 9 33
	 7 : 8 9 21
	 8 : 1 7 22
	 9 : 6 7 34
	 10 : 2 11 12
	 11 : 10 13 23
	 12 : 10 14 24
	 13 : 11 15 25
	 14 : 12 15 26
	 15 : 13 14 27
	 16 : 4 18 28
	 17 : 4 19 29
	 18 : 16 20 30
	 19 : 17 20 31
	 20 : 18 19 32
	 21 : 7
	 22 : 8
	 23 : 11
	 24 : 12
	 25 : 13
	 26 : 14
	 27 : 15
	 28 : 16
	 29 : 17
	 30 : 18
	 31 : 19
	 32 : 20 35 36
	 33 : 6
	 34 : 9
	 35 : 32
	 36 : 32

	Assuming in current code that numbering for constraints corresponds to unified fragment.
	Frozen dihedral atom list: 
	     1     2     3     4
	    10     2     3     4
	     1     2    10    11
	     1     2    10    12
	     3     2    10    11
	    16     4     3     2
	    18    20    32    35
	---Fragment 1 Geometry and Gradient---
	 C          -1.3460492940        3.0202304328        0.2532867383
	 C          -1.5058067407        0.4400097195        0.6743177191
	 N           0.3444184396       -0.7409273795        2.2221753809
	 C           2.9527677263       -1.2448001741        1.6385731513
	 H          -0.4550207492       -2.1720661072        3.2383037953
	 C           0.4008607795        4.7917031665        1.4272847629
	 N          -2.0433091014        7.0137111750       -1.2618711026
	 C          -2.9512998280        4.5689195741       -1.5234129778
	 C          -0.0816354332        7.1249744698        0.4691992865
	 C          -3.5808583072       -1.2402572725       -0.2110038529
	 C          -6.1466547411       -0.6399271873        0.2711068557
	 C          -3.0063210939       -3.5654405480       -1.4131833632
	 C          -8.0764014864       -2.2940951717       -0.4676721244
	 C          -4.9401987805       -5.2155550699       -2.1480940740
	 C          -7.4874078682       -4.5890749545       -1.6851130629
	 C           4.4726139778       -2.5240049213        3.4348353123
	 C           4.0798419615       -0.5457092221       -0.6904746141
	 C           7.0131220966       -3.0711807901        2.9246281557
	 C           6.6228955414       -1.0953587424       -1.1868206295
	 C           8.1525967146       -2.3535799707        0.6125463515
	 H          -2.7840307200        8.4676173230       -2.2514677622
	 O          -4.7126757550        4.0228567540       -2.9424687967
	 H          -6.6274445311        1.1241264817        1.2225178194
	 H          -1.0369260047       -4.0693794830       -1.7594038661
	 H         -10.0401179486       -1.7951753493       -0.0865899540
	 H          -4.4605466056       -6.9948210342       -3.0729109219
	 H          -8.9945116964       -5.8735236917       -2.2617403134
	 H           3.6761851228       -3.1015581376        5.2502120531
	 H           2.9855960486        0.4264887290       -2.1432677134
	 H           8.1114913920       -4.0742700943        4.3556969635
	 H           7.4158151750       -0.5360243757       -3.0084599227
	 N          10.7378856734       -2.9157621547        0.0964281316
	 H           1.8328668915        4.3215506448        2.8054412393
	 H           0.8161828976        8.9163649168        0.8686779408
	 H          11.8372319572       -3.0182363333        1.6773900157
	 H          11.5553396213       -1.6983514518       -1.1561900588
	             0.0083245346        0.0226412303        0.0030432251
	            -0.0105810371       -0.0255112878        0.0002689874
	             0.0052809944        0.0203171384        0.0023950320
	            -0.0067842120       -0.0065954045        0.0056880728
	            -0.0062730192       -0.0059174387        0.0033400342
	            -0.0062600382       -0.0080852515        0.0021727042
	             0.0066149724       -0.0057198736        0.0092068520
	            -0.0079473571       -0.0001538837       -0.0106351231
	            -0.0116520733        0.0025305906       -0.0105174049
	             0.0111707040        0.0053385271       -0.0008054700
	            -0.0052181290        0.0029701961        0.0040298501
	             0.0027515981       -0.0053098286       -0.0051107549
	            -0.0047308712        0.0047132468        0.0022530748
	             0.0051665693       -0.0032927204       -0.0018203085
	            -0.0063258579       -0.0058201567       -0.0023327354
	             0.0018805770       -0.0042781824        0.0076068612
	             0.0015252475        0.0029441674       -0.0076422802
	             0.0012891966       -0.0015264860        0.0055074938
	            -0.0007659172        0.0028914097       -0.0067549789
	             0.0049557857       -0.0013338527       -0.0006218674
	            -0.0033717663        0.0056712643       -0.0044619505
	             0.0100808494        0.0095318474        0.0082372739
	            -0.0032376319        0.0052878045        0.0037654049
	             0.0052403548       -0.0020180485       -0.0008634725
	            -0.0061806147        0.0019906250        0.0014866914
	             0.0020146034       -0.0057371368       -0.0024420417
	            -0.0050539341       -0.0041217458       -0.0020363675
	            -0.0012727727       -0.0030091590        0.0060863442
	            -0.0013115476        0.0027946443       -0.0066018767
	             0.0021429793       -0.0031542197        0.0052331079
	             0.0013467823        0.0021608319       -0.0059000287
	             0.0012741525       -0.0191070716       -0.0089614202
	             0.0035514837       -0.0001806193        0.0026838123
	             0.0008528521        0.0039920582       -0.0012775501
	             0.0061618933        0.0055867543        0.0069398802
	             0.0054543247        0.0094327173       -0.0012346050

	Previous optimization step data not found.  Starting new optimization.

	---Fragment 1 Intrafragment Coordinates---
	 - Coordinate -           - BOHR/RAD -       - ANG/DEG -
	 R(1,2)           =         2.619223	       1.386033
	 R(1,6)           =         2.751015	       1.455774
	 R(1,8)           =         2.851654	       1.509030
	 R(2,3)           =         2.685853	       1.421292
	 R(2,10)          =         2.812993	       1.488572
	 R(3,4)           =         2.719920	       1.439320
	 R(3,5)           =         1.928673	       1.020610
	 R(4,16)          =         2.678219	       1.417252
	 R(4,17)          =         2.680203	       1.418302
	 R(6,9)           =         2.568051	       1.358954
	 R(6,33)          =         2.042303	       1.080740
	 R(7,8)           =         2.621041	       1.386995
	 R(7,9)           =         2.618616	       1.385712
	 R(7,21)          =         1.908354	       1.009857
	 R(8,22)          =         2.326875	       1.231329
	 R(9,34)          =         2.043218	       1.081225
	 R(10,11)         =         2.678832	       1.417577
	 R(10,12)         =         2.679889	       1.418136
	 R(11,13)         =         2.646883	       1.400670
	 R(11,23)         =         2.061123	       1.090699
	 R(12,14)         =         2.646291	       1.400357
	 R(12,24)         =         2.062120	       1.091227
	 R(13,15)         =         2.663833	       1.409640
	 R(13,25)         =         2.061632	       1.090969
	 R(14,15)         =         2.663663	       1.409550
	 R(14,26)         =         2.061829	       1.091073
	 R(15,27)         =         2.062443	       1.091398
	 R(16,18)         =         2.648376	       1.401460
	 R(16,28)         =         2.064815	       1.092653
	 R(17,19)         =         2.648697	       1.401630
	 R(17,29)         =         2.062317	       1.091331
	 R(18,20)         =         2.675645	       1.415890
	 R(18,30)         =         2.064113	       1.092281
	 R(19,20)         =         2.675972	       1.416064
	 R(19,31)         =         2.063964	       1.092203
	 R(20,32)         =         2.695579	       1.426439
	 R(32,35)         =         1.928342	       1.020435
	 R(32,36)         =         1.928567	       1.020554
	 B(1,2,3)         =         2.075744	     118.931343
	 B(1,2,10)        =         2.193005	     125.649926
	 B(1,6,9)         =         1.882357	     107.851105
	 B(1,6,33)        =         2.195657	     125.801856
	 B(1,8,7)         =         1.822843	     104.441197
	 B(1,8,22)        =         2.316691	     132.736602
	 B(2,1,6)         =         2.219908	     127.191332
	 B(2,1,8)         =         2.215316	     126.928264
	 B(2,3,4)         =         2.237526	     128.200791
	 B(2,3,5)         =         1.922340	     110.141957
	 B(2,10,11)       =         2.113015	     121.066860
	 B(2,10,12)       =         2.095896	     120.085999
	 B(3,2,10)        =         2.011862	     115.271176
	 B(3,4,16)        =         2.081488	     119.260479
	 B(3,4,17)        =         2.142900	     122.779138
	 B(4,3,5)         =         1.953124	     111.905734
	 B(4,16,18)       =         2.110457	     120.920280
	 B(4,16,28)       =         2.099464	     120.290419
	 B(4,17,19)       =         2.108842	     120.827753
	 B(4,17,29)       =         2.108295	     120.796416
	 B(6,1,8)         =         1.847961	     105.880375
	 B(6,9,7)         =         1.927058	     110.412275
	 B(6,9,34)        =         2.266718	     129.873365
	 B(7,8,22)        =         2.143591	     122.818729
	 B(7,9,34)        =         2.089410	     119.714359
	 B(8,7,9)         =         1.944549	     111.414461
	 B(8,7,21)        =         2.122836	     121.629553
	 B(9,6,33)        =         2.205148	     126.345682
	 B(9,7,21)        =         2.215800	     126.955974
	 B(10,11,13)      =         2.103677	     120.531793
	 B(10,11,23)      =         2.092432	     119.887529
	 B(10,12,14)      =         2.104740	     120.592736
	 B(10,12,24)      =         2.085295	     119.478593
	 B(11,10,12)      =         2.072039	     118.719071
	 B(11,13,15)      =         2.099917	     120.316400
	 B(11,13,25)      =         2.084729	     119.446178
	 B(12,14,15)      =         2.098916	     120.259044
	 B(12,14,26)      =         2.085942	     119.515693
	 B(13,11,23)      =         2.087076	     119.580631
	 B(13,15,14)      =         2.086913	     119.571300
	 B(13,15,27)      =         2.097575	     120.182212
	 B(14,12,24)      =         2.093144	     119.928328
	 B(14,15,27)      =         2.098695	     120.246379
	 B(15,13,25)      =         2.098532	     120.237007
	 B(15,14,26)      =         2.098313	     120.224466
	 B(16,4,17)       =         2.058689	     117.954220
	 B(16,18,20)      =         2.117160	     121.304354
	 B(16,18,30)      =         2.068367	     118.508712
	 B(17,19,20)      =         2.118128	     121.359771
	 B(17,19,31)      =         2.069178	     118.555163
	 B(18,16,28)      =         2.073264	     118.789297
	 B(18,20,19)      =         2.052972	     117.626653
	 B(18,20,32)      =         2.115263	     121.195654
	 B(19,17,29)      =         2.066039	     118.375338
	 B(19,20,32)      =         2.114805	     121.169375
	 B(20,18,30)      =         2.097657	     120.186881
	 B(20,19,31)      =         2.095876	     120.084833
	 B(20,32,35)      =         1.983274	     113.633203
	 B(20,32,36)      =         1.981475	     113.530145
	 B(35,32,36)      =         1.901175	     108.929332
	*D(1,2,3,4)       =        -1.261034	     -72.251916
	 D(1,2,3,5)       =         2.533485	     145.158020
	*D(1,2,10,11)     =        -0.897223	     -51.407108
	*D(1,2,10,12)     =         2.317093	     132.759672
	 D(1,6,9,7)       =         0.002682	       0.153668
	 D(1,6,9,34)      =        -3.138755	    -179.837395
	 D(1,8,7,9)       =        -0.002560	      -0.146701
	 D(1,8,7,21)      =         3.139663	     179.889420
	 D(2,1,6,9)       =         3.136449	     179.705310
	 D(2,1,6,33)      =         0.001886	       0.108071
	 D(2,1,8,7)       =        -3.136567	    -179.712026
	 D(2,1,8,22)      =         0.016993	       0.973653
	*D(2,3,4,16)      =        -3.107692	    -178.057636
	 D(2,3,4,17)      =         0.017805	       1.020153
	 D(2,10,11,13)    =        -3.089284	    -177.002958
	 D(2,10,11,23)    =         0.053684	       3.075865
	 D(2,10,12,14)    =         3.089417	     177.010533
	 D(2,10,12,24)    =        -0.048456	      -2.776343
	 D(3,2,1,6)       =        -0.114079	      -6.536250
	 D(3,2,1,8)       =         3.026281	     173.393154
	*D(3,2,10,11)     =         2.166054	     124.105745
	 D(3,2,10,12)     =        -0.902815	     -51.727475
	 D(3,4,16,18)     =         3.130188	     179.346579
	 D(3,4,16,28)     =        -0.011764	      -0.674016
	 D(3,4,17,19)     =        -3.131364	    -179.413952
	 D(3,4,17,29)     =         0.005695	       0.326304
	*D(4,3,2,10)      =         1.953262	     111.913657
	 D(4,16,18,20)    =         0.007456	       0.427206
	 D(4,16,18,30)    =        -3.132685	    -179.489634
	 D(4,17,19,20)    =        -0.003897	      -0.223259
	 D(4,17,19,31)    =         3.134636	     179.601419
	 D(5,3,2,10)      =        -0.535404	     -30.676407
	 D(5,3,4,16)      =        -0.628162	     -35.991009
	 D(5,3,4,17)      =         2.497335	     143.086780
	 D(6,1,2,10)      =         2.946589	     168.827099
	 D(6,1,8,7)       =         0.004006	       0.229504
	 D(6,1,8,22)      =        -3.125620	    -179.084817
	 D(6,9,7,8)       =         0.000000	       0.000000
	 D(6,9,7,21)      =         3.140933	     179.962177
	 D(7,9,6,33)      =         3.137196	     179.748112
	 D(8,1,2,10)      =        -0.196236	     -11.243497
	 D(8,1,6,9)       =        -0.004119	      -0.236017
	 D(8,1,6,33)      =        -3.138682	    -179.833256
	 D(8,7,9,34)      =         3.141466	     179.992768
	 D(9,7,8,22)      =         3.128573	     179.254034
	 D(10,11,13,15)   =         0.008286	       0.474765
	 D(10,11,13,25)   =        -3.137385	    -179.758946
	 D(10,12,14,15)   =        -0.007082	      -0.405764
	 D(10,12,14,26)   =         3.140166	     179.918248
	 D(11,10,12,14)   =         0.018852	       1.080124
	 D(11,10,12,24)   =        -3.119021	    -178.706752
	 D(11,13,15,14)   =         0.003821	       0.218935
	 D(11,13,15,27)   =        -3.139859	    -179.900668
	 D(12,10,11,13)   =        -0.019443	      -1.113993
	 D(12,10,11,23)   =         3.123526	     178.964830
	 D(12,14,15,13)   =        -0.004421	      -0.253310
	 D(12,14,15,27)   =         3.139260	     179.866371
	 D(13,15,14,26)   =         3.131476	     179.420368
	 D(14,15,13,25)   =        -3.133660	    -179.545496
	 D(15,13,11,23)   =        -3.134678	    -179.603817
	 D(15,14,12,24)   =         3.130774	     179.380155
	 D(16,4,17,19)    =        -0.005668	      -0.324767
	 D(16,4,17,29)    =         3.131391	     179.415490
	 D(16,18,20,19)   =        -0.016612	      -0.951802
	 D(16,18,20,32)   =        -3.140100	    -179.914493
	 D(17,4,16,18)    =         0.003916	       0.224355
	 D(17,4,16,28)    =        -3.138036	    -179.796241
	 D(17,19,20,18)   =         0.014850	       0.850859
	 D(17,19,20,32)   =         3.138344	     179.813838
	 D(18,20,19,31)   =        -3.123636	    -178.971169
	*D(18,20,32,35)   =        -0.500446	     -28.673444
	 D(18,20,32,36)   =        -2.685990	    -153.895882
	 D(19,20,18,30)   =         3.123505	     178.963657
	 D(19,20,32,35)   =         2.659893	     152.400659
	 D(19,20,32,36)   =         0.474349	      27.178222
	 D(20,18,16,28)   =        -3.133782	    -179.552502
	 D(20,19,17,29)   =        -3.141063	    -179.969674
	 D(21,7,8,22)     =        -0.012389	      -0.709845
	 D(21,7,9,34)     =        -0.000798	      -0.045720
	 D(23,11,13,25)   =         0.002836	       0.162472
	 D(24,12,14,26)   =        -0.005163	      -0.295833
	 D(25,13,15,27)   =         0.005845	       0.334901
	 D(26,14,15,27)   =        -0.008028	      -0.459951
	 D(28,16,18,30)   =         0.009262	       0.530658
	 D(29,17,19,31)   =        -0.002531	      -0.144996
	 D(30,18,20,32)   =         0.000017	       0.000966
	 D(31,19,20,32)   =        -0.000143	      -0.008190
	 D(33,6,9,34)     =        -0.004240	      -0.242951
	 R(1,17)          =         6.561014	       3.471939
	 R(4,6)           =         6.557152	       3.469895
	 R(4,12)          =         7.085854	       3.749673
	 R(6,17)          =         6.819661	       3.608809
	 R(8,11)          =         6.368884	       3.370268
	 R(10,22)         =         6.036744	       3.194507
	 R(11,22)         =         5.841654	       3.091270

	Current energy   :      -895.9564837606

	Generating empirical Hessian (Schlegel '84) for each fragment.
	Taking RFO optimization step.
	Going to follow RFO solution 1.
	Using RFO vector 1.
	Norm of target step-size    0.34140
	Projected energy change by RFO approximation:        -0.0143077325

	Back-transformation to cartesian coordinates...
	Could not converge backtransformation.
	Using first guess instead.

	Back-transformation to cartesian coordinates to adjust frozen coordinates...

	--- Internal Coordinate Step in ANG or DEG, aJ/ANG or AJ/DEG ---
	 ---------------------------------------------------------------------------
	   Coordinate                Previous        Force       Change         New 
	   ----------                --------       ------       ------       ------
	    1 R(1,2)          =      1.386033    -0.125376    -0.024384     1.361649
	    2 R(1,6)          =      1.455774     0.054698     0.005009     1.460783
	    3 R(1,8)          =      1.509030    -0.018801    -0.008283     1.500748
	    4 R(2,3)          =      1.421292    -0.004465    -0.007927     1.413366
	    5 R(2,10)         =      1.488572     0.021144    -0.006550     1.482022
	    6 R(3,4)          =      1.439320    -0.049144    -0.014434     1.424886
	    7 R(3,5)          =      1.020610    -0.072101    -0.009887     1.010723
	    8 R(4,16)         =      1.417252    -0.150991    -0.022057     1.395195
	    9 R(4,17)         =      1.418302    -0.153015    -0.022508     1.395794
	   10 R(6,9)          =      1.358954    -0.095637    -0.010918     1.348036
	   11 R(6,33)         =      1.080740    -0.035794    -0.005744     1.074996
	   12 R(7,8)          =      1.386995     0.034084     0.005612     1.392607
	   13 R(7,9)          =      1.385712     0.074518     0.012051     1.397762
	   14 R(7,21)         =      1.009857    -0.065439    -0.008472     1.001386
	   15 R(8,22)         =      1.231329     0.127356     0.010207     1.241536
	   16 R(9,34)         =      1.081225    -0.029883    -0.004928     1.076296
	   17 R(10,11)        =      1.417577    -0.122239    -0.019826     1.397751
	   18 R(10,12)        =      1.418136    -0.104262    -0.017325     1.400812
	   19 R(11,13)        =      1.400670    -0.085496    -0.011645     1.389025
	   20 R(11,23)        =      1.090699    -0.057885    -0.010194     1.080505
	   21 R(12,14)        =      1.400357    -0.079671    -0.010657     1.389699
	   22 R(12,24)        =      1.091227    -0.046438    -0.008083     1.083144
	   23 R(13,15)        =      1.409640    -0.127258    -0.017092     1.392548
	   24 R(13,25)        =      1.090969    -0.054787    -0.009587     1.081382
	   25 R(14,15)        =      1.409550    -0.128209    -0.017205     1.392345
	   26 R(14,26)        =      1.091073    -0.053617    -0.009442     1.081631
	   27 R(15,27)        =      1.091398    -0.056260    -0.009919     1.081479
	   28 R(16,18)        =      1.401460    -0.097083    -0.013285     1.388176
	   29 R(16,28)        =      1.092653    -0.055044    -0.009759     1.082894
	   30 R(17,19)        =      1.401630    -0.093328    -0.012784     1.388846
	   31 R(17,29)        =      1.091331    -0.054938    -0.009484     1.081847
	   32 R(18,20)        =      1.415890    -0.131150    -0.018706     1.397184
	   33 R(18,30)        =      1.092281    -0.051879    -0.009111     1.083170
	   34 R(19,20)        =      1.416064    -0.132974    -0.019014     1.397050
	   35 R(19,31)        =      1.092203    -0.052011    -0.009203     1.082999
	   36 R(20,32)        =      1.426439    -0.113978    -0.015995     1.410444
	   37 R(32,35)        =      1.020435    -0.073292    -0.008065     1.012370
	   38 R(32,36)        =      1.020554    -0.074753    -0.003906     1.016648
	   39 B(1,2,3)        =    118.931343     0.000198     0.407400   119.338743
	   40 B(1,2,10)       =    125.649926     0.000153     0.307310   125.957236
	   41 B(1,6,9)        =    107.851105     0.000329     0.337257   108.188362
	   42 B(1,6,33)       =    125.801856    -0.000236    -0.482698   125.319158
	   43 B(1,8,7)        =    104.441197    -0.000111    -0.492569   103.948627
	   44 B(1,8,22)       =    132.736602    -0.000199    -0.709751   132.026850
	   45 B(2,1,6)        =    127.191332    -0.000115    -0.407982   126.783349
	   46 B(2,1,8)        =    126.928264     0.000183    -0.048223   126.880041
	   47 B(2,3,4)        =    128.200791     0.000161    -1.278078   126.922714
	   48 B(2,3,5)        =    110.141957     0.000138     1.635448   111.777405
	   49 B(2,10,11)      =    121.066860    -0.000067    -0.030309   121.036551
	   50 B(2,10,12)      =    120.085999     0.000271    -0.126858   119.959141
	   51 B(3,2,10)       =    115.271176    -0.000351    -0.715571   114.555605
	   52 B(3,4,16)       =    119.260479    -0.000361    -0.942403   118.318076
	   53 B(3,4,17)       =    122.779138     0.000184     0.404082   123.183220
	   54 B(4,3,5)        =    111.905734    -0.000249    -0.265052   111.640682
	   55 B(4,16,18)      =    120.920280    -0.000015    -0.083128   120.837152
	   56 B(4,16,28)      =    120.290419    -0.000122    -0.524880   119.765539
	   57 B(4,17,19)      =    120.827753    -0.000062    -0.227697   120.600055
	   58 B(4,17,29)      =    120.796416    -0.000197    -0.879568   119.916848
	   59 B(6,1,8)        =    105.880375    -0.000068     0.440129   106.320504
	   60 B(6,9,7)        =    110.412275    -0.000177    -0.550131   109.862144
	   61 B(6,9,34)       =    129.873365    -0.000075    -0.445104   129.428261
	   62 B(7,8,22)       =    122.818729     0.000311     1.181912   124.000640
	   63 B(7,9,34)       =    119.714359     0.000252     0.995123   120.709482
	   64 B(8,7,9)        =    111.414461     0.000027     0.255628   111.670089
	   65 B(8,7,21)       =    121.629553     0.000028     0.042974   121.672527
	   66 B(9,6,33)       =    126.345682    -0.000093     0.145434   126.491116
	   67 B(9,7,21)       =    126.955974    -0.000055    -0.300479   126.655495
	   68 B(10,11,13)     =    120.531793     0.000115    -0.041539   120.490254
	   69 B(10,11,23)     =    119.887529    -0.000190    -0.559719   119.327810
	   70 B(10,12,14)     =    120.592736     0.000109    -0.028802   120.563934
	   71 B(10,12,24)     =    119.478593    -0.000098    -0.174636   119.303957
	   72 B(11,10,12)     =    118.719071    -0.000203     0.156762   118.875834
	   73 B(11,13,15)     =    120.316400     0.000007    -0.065016   120.251384
	   74 B(11,13,25)     =    119.446178     0.000035     0.197777   119.643955
	   75 B(12,14,15)     =    120.259044    -0.000045    -0.187096   120.071948
	   76 B(12,14,26)     =    119.515693     0.000060     0.260987   119.776680
	   77 B(13,11,23)     =    119.580631     0.000075     0.598208   120.178839
	   78 B(13,15,14)     =    119.571300     0.000016     0.157377   119.728677
	   79 B(13,15,27)     =    120.182212    -0.000001    -0.049763   120.132448
	   80 B(14,12,24)     =    119.928328    -0.000011     0.199520   120.127848
	   81 B(14,15,27)     =    120.246379    -0.000015    -0.107526   120.138854
	   82 B(15,13,25)     =    120.237007    -0.000042    -0.132851   120.104156
	   83 B(15,14,26)     =    120.224466    -0.000015    -0.073263   120.151203
	   84 B(16,4,17)      =    117.954220     0.000176     0.518787   118.473006
	   85 B(16,18,20)     =    121.304354    -0.000139    -0.416408   120.887946
	   86 B(16,18,30)     =    118.508712     0.000186     0.715377   119.224090
	   87 B(17,19,20)     =    121.359771    -0.000099    -0.273097   121.086674
	   88 B(17,19,31)     =    118.555163     0.000145     0.550663   119.105826
	   89 B(18,16,28)     =    118.789297     0.000137     0.607994   119.397291
	   90 B(18,20,19)     =    117.626653     0.000138     0.461403   118.088056
	   91 B(18,20,32)     =    121.195654    -0.000082    -0.326332   120.869323
	   92 B(19,17,29)     =    118.375338     0.000259     1.107042   119.482380
	   93 B(19,20,32)     =    121.169375    -0.000059    -0.248931   120.920444
	   94 B(20,18,30)     =    120.186881    -0.000047    -0.298954   119.887927
	   95 B(20,19,31)     =    120.084833    -0.000046    -0.282568   119.802265
	   96 B(20,32,35)     =    113.633203     0.000125     1.952930   115.586134
	   97 B(20,32,36)     =    113.530145     0.000121     1.963852   115.493997
	   98 B(35,32,36)     =    108.929332     0.000165     2.374724   111.304056
	   99 *D(1,2,3,4)     =    -72.251916    -0.000000    -0.000107   -72.252022
	  100 D(1,2,3,5)      =    145.158020     0.000002    -0.251141   144.906878
	  101 *D(1,2,10,11)   =    -51.407108     0.000000    -0.000097   -51.407205
	  102 *D(1,2,10,12)   =    132.759672    -0.000000     0.000000   132.759672
	  103 D(1,6,9,7)      =      0.153668    -0.000009    -0.991613    -0.837946
	  104 D(1,6,9,34)     =   -179.837395    -0.000009    -0.876820  -180.714215
	  105 D(1,8,7,9)      =     -0.146701    -0.000006    -0.702532    -0.849233
	  106 D(1,8,7,21)     =    179.889420    -0.000001    -0.270171   179.619249
	  107 D(2,1,6,9)      =    179.705310    -0.000005    -0.783533   178.921777
	  108 D(2,1,6,33)     =      0.108071    -0.000013    -1.588911    -1.480840
	  109 D(2,1,8,7)      =   -179.712026     0.000011     1.427072  -178.284954
	  110 D(2,1,8,22)     =      0.973653    -0.000008    -1.032541    -0.058888
	  111 *D(2,3,4,16)    =   -178.057636    -0.000000    -0.000000  -178.057636
	  112 D(2,3,4,17)     =      1.020153    -0.000015    -0.952155     0.067998
	  113 D(2,10,11,13)   =   -177.002958    -0.000003    -0.040993  -177.043951
	  114 D(2,10,11,23)   =      3.075865     0.000002     0.519173     3.595038
	  115 D(2,10,12,14)   =    177.010533     0.000005     0.557719   177.568251
	  116 D(2,10,12,24)   =     -2.776343    -0.000003    -0.405326    -3.181668
	  117 D(3,2,1,6)      =     -6.536250    -0.000028     0.324442    -6.211808
	  118 D(3,2,1,8)      =    173.393154    -0.000041    -1.267743   172.125411
	  119 *D(3,2,10,11)   =    124.105745     0.000000     0.000099   124.105844
	  120 D(3,2,10,12)    =    -51.727475    -0.000000     0.000197   -51.727278
	  121 D(3,4,16,18)    =    179.346579    -0.000010    -0.833862   178.512717
	  122 D(3,4,16,28)    =     -0.674016    -0.000010    -0.764318    -1.438334
	  123 D(3,4,17,19)    =   -179.413952     0.000006     0.277815  -179.136137
	  124 D(3,4,17,29)    =      0.326304     0.000011     0.847189     1.173493
	  125 *D(4,3,2,10)    =    111.913657    -0.000000     0.000105   111.913763
	  126 D(4,16,18,20)   =      0.427206     0.000008     0.748745     1.175952
	  127 D(4,16,18,30)   =   -179.489634     0.000006     0.595122  -178.894512
	  128 D(4,17,19,20)   =     -0.223259     0.000004     0.497000     0.273742
	  129 D(4,17,19,31)   =    179.601419    -0.000002    -0.161727   179.439692
	  130 D(5,3,2,10)     =    -30.676407     0.000002    -0.250929   -30.927336
	  131 D(5,3,4,16)     =    -35.991009     0.000025     0.815697   -35.175311
	  132 D(5,3,4,17)     =    143.086780     0.000011    -0.136458   142.950322
	  133 D(6,1,2,10)     =    168.827099    -0.000033     0.279051   169.106150
	  134 D(6,1,8,7)      =      0.229504    -0.000000     0.097956     0.327460
	  135 D(6,1,8,22)     =   -179.084817    -0.000019    -2.361657  -181.446474
	  136 D(6,9,7,8)      =      0.000000     0.000010     1.106768     1.106768
	  137 D(6,9,7,21)     =    179.962177     0.000005     0.647596   180.609773
	  138 D(7,9,6,33)     =    179.748112    -0.000002    -0.177433   179.570679
	  139 D(8,1,2,10)     =    -11.243497    -0.000046    -1.313134   -12.556630
	  140 D(8,1,6,9)      =     -0.236017     0.000006     0.543627     0.307610
	  141 D(8,1,6,33)     =   -179.833256    -0.000002    -0.261751  -180.095007
	  142 D(8,7,9,34)     =    179.992768     0.000009     1.002840   180.995608
	  143 D(9,7,8,22)     =    179.254034     0.000010     1.486168   180.740202
	  144 D(10,11,13,15)  =      0.474765    -0.000004    -0.336792     0.137973
	  145 D(10,11,13,25)  =   -179.758946     0.000001     0.155251  -179.603695
	  146 D(10,12,14,15)  =     -0.405764    -0.000007    -0.688031    -1.093795
	  147 D(10,12,14,26)  =    179.918248    -0.000008    -0.862791   179.055457
	  148 D(11,10,12,14)  =      1.080124     0.000004     0.565251     1.645374
	  149 D(11,10,12,24)  =   -178.706752    -0.000005    -0.397794  -179.104546
	  150 D(11,13,15,14)  =      0.218935     0.000002     0.216074     0.435009
	  151 D(11,13,15,27)  =   -179.900668     0.000003     0.283617  -179.617051
	  152 D(12,10,11,13)  =     -1.113993     0.000001    -0.052568    -1.166561
	  153 D(12,10,11,23)  =    178.964830     0.000007     0.507598   179.472427
	  154 D(12,14,15,13)  =     -0.253310     0.000003     0.294844     0.041534
	  155 D(12,14,15,27)  =    179.866371     0.000002     0.227226   180.093597
	  156 D(13,15,14,26)  =    179.420368     0.000005     0.471352   179.891719
	  157 D(14,15,13,25)  =   -179.545496    -0.000003    -0.279022  -179.824517
	  158 D(15,13,11,23)  =   -179.603817    -0.000009    -0.902647  -180.506465
	  159 D(15,14,12,24)  =    179.380155     0.000002     0.282151   179.662306
	  160 D(16,4,17,19)   =     -0.324767    -0.000010    -0.688480    -1.013247
	  161 D(16,4,17,29)   =    179.415490    -0.000004    -0.119107   179.296383
	  162 D(16,18,20,19)  =     -0.951802    -0.000013    -0.935225    -1.887027
	  163 D(16,18,20,32)  =   -179.914493     0.000023     2.009587  -177.904906
	  164 D(17,4,16,18)   =      0.224355     0.000004     0.072893     0.297248
	  165 D(17,4,16,28)   =   -179.796241     0.000004     0.142438  -179.653803
	  166 D(17,19,20,18)  =      0.850859     0.000007     0.319060     1.169920
	  167 D(17,19,20,32)  =    179.813838    -0.000029    -2.628170   177.185669
	  168 D(18,20,19,31)  =   -178.971169     0.000014     0.980884  -177.990285
	  169 *D(18,20,32,35) =    -28.673444    -0.000000     0.000000   -28.673444
	  170 D(18,20,32,36)  =   -153.895882    -0.000100    -7.200427  -161.096308
	  171 D(19,20,18,30)  =    178.963657    -0.000011    -0.779756   178.183901
	  172 D(19,20,32,35)  =    152.400659     0.000037     3.021205   155.421864
	  173 D(19,20,32,36)  =     27.178222    -0.000063    -4.179222    22.999000
	  174 D(20,18,16,28)  =   -179.552502     0.000007     0.679683  -178.872819
	  175 D(20,19,17,29)  =   -179.969674    -0.000001    -0.064878  -180.034552
	  176 D(21,7,8,22)    =     -0.709845     0.000014     1.918529     1.208684
	  177 D(21,7,9,34)    =     -0.045720     0.000004     0.544334     0.498613
	  178 D(23,11,13,25)  =      0.162472    -0.000004    -0.410605    -0.248133
	  179 D(24,12,14,26)  =     -0.295833     0.000001     0.107390    -0.188443
	  180 D(25,13,15,27)  =      0.334901    -0.000002    -0.211478     0.123423
	  181 D(26,14,15,27)  =     -0.459951     0.000004     0.403733    -0.056218
	  182 D(28,16,18,30)  =      0.530658     0.000005     0.526060     1.056717
	  183 D(29,17,19,31)  =     -0.144996    -0.000007    -0.723606    -0.868602
	  184 D(30,18,20,32)  =      0.000966     0.000025     2.165056     2.166022
	  185 D(31,19,20,32)  =     -0.008190    -0.000023    -1.966346    -1.974536
	  186 D(33,6,9,34)    =     -0.242951    -0.000002    -0.062640    -0.305591
	  187 R(1,17)         =      3.471939    -0.022008    -0.051215     3.420725
	  188 R(4,6)          =      3.469895    -0.050737    -0.047309     3.422587
	  189 R(4,12)         =      3.749673    -0.056614    -0.057780     3.691893
	  190 R(6,17)         =      3.608809    -0.017834    -0.043304     3.565505
	  191 R(8,11)         =      3.370268    -0.033392    -0.017142     3.353126
	  192 R(10,22)        =      3.194507    -0.022677    -0.032415     3.162092
	  193 R(11,22)        =      3.091270    -0.004920    -0.006677     3.084593
	 ---------------------------------------------------------------------------
	Successfully symmetrized geometry.

  ==> Convergence Check <==

  Measures of convergence in internal coordinates in au.
  Criteria marked as inactive (o), active & met (*), and active & unmet ( ).
  --------------------------------------------------------------------------------------------- ~
   Step     Total Energy     Delta E     MAX Force     RMS Force      MAX Disp      RMS Disp    ~
  --------------------------------------------------------------------------------------------- ~
    Convergence Criteria             o    2.50e-03 *    1.70e-03 *    1.00e-02 *    6.70e-03 *  ~
  --------------------------------------------------------------------------------------------- ~
      1    -895.95648376   -8.96e+02 o    1.86e-02      4.93e-03      1.26e-01      2.44e-02    ~
  ---------------------------------------------------------------------------------------------

	Writing optimization data to binary file.
	Structure for next step:
	Cartesian Geometry (in Angstrom)
	    C    -0.7157928109   1.5875927894   0.1501660740
	    C    -0.7921902023   0.2459163450   0.3696113812
	    N     0.1740705927  -0.3775169101   1.1913615498
	    C     1.5395520310  -0.6264117165   0.8691647365
	    H    -0.2247098700  -1.1321714344   1.7326851916
	    C     0.2092352871   2.5258226296   0.7809878724
	    N    -1.0457207531   3.6860563222  -0.6785503554
	    C    -1.5406525889   2.3912375542  -0.8121254327
	    C    -0.0249076653   3.7527210393   0.2739390381
	    C    -1.8727554227  -0.6526695695  -0.1008267774
	    C    -3.2162469041  -0.3523318971   0.1411140247
	    C    -1.5522405562  -1.8663679372  -0.7225014141
	    C    -4.2168330729  -1.2323846053  -0.2509631090
	    C    -2.5546959217  -2.7414749365  -1.1231697296
	    C    -3.8904967561  -2.4269148447  -0.8879807570
	    C     2.3290906280  -1.2952500855   1.8050349157
	    C     2.1142305152  -0.2674094927  -0.3511233794
	    C     3.6575797550  -1.5920910465   1.5329443001
	    C     3.4475971921  -0.5521355632  -0.6156186802
	    C     4.2456193948  -1.2076288150   0.3252516438
	    H    -1.4129458797   4.4473245817  -1.2155693622
	    O    -2.4418546007   2.0706626939  -1.6036294519
	    H    -3.4712159793   0.5779669924   0.6279675946
	    H    -0.5125385360  -2.1126977788  -0.9001057681
	    H    -5.2521654898  -0.9833133492  -0.0627141069
	    H    -2.2933983725  -3.6682539806  -1.6158455330
	    H    -4.6714170814  -3.1078442093  -1.1979727280
	    H     1.9029530401  -1.5885971060   2.7563567582
	    H     1.5201746091   0.2418105895  -1.0982412219
	    H     4.2415599259  -2.1281912075   2.2710642966
	    H     3.8662677124  -0.2708571812  -1.5739947855
	    N     5.5824443780  -1.5475098248   0.0307479814
	    H     0.9415194728   2.2708638537   1.5255497141
	    H     0.4509706859   4.6900583020   0.5049212094
	    H     6.1935428302  -1.6517747364   0.8311104232
	    H     6.0230583967  -0.9962562655  -0.7010666128
			--------------------------
			 OPTKING Finished Execution 
			--------------------------

    Structure for next step:
    Molecular point group: c1
    Full point group: C1

    Geometry (in Angstrom), charge = 0, multiplicity = 1:

    C           -0.716731933038     1.585397883706     0.148479708727
    C           -0.793129324741     0.243721433945     0.367925016839
    N            0.173131473989    -0.379711823588     1.189675188672
    C            1.538612917636    -0.628606630928     0.867478374040
    H           -0.225648990272    -1.134366350848     1.730998832556
    C            0.208296168587     2.523627727506     0.779301509628
    N           -1.046659876549     3.683861424730    -0.680236723927
    C           -1.541591714296     2.389042651618    -0.813811801737
    C           -0.025846784733     3.750526142023     0.272252673302
    C           -1.873694549452    -0.654864484004    -0.102513143652
    C           -3.217186036097    -0.354526810458     0.139427659426
    C           -1.553179681625    -1.868562856493    -0.724187782803
    C           -4.217772208820    -1.234579522096    -0.252649475826
    C           -2.555635051082    -2.743669859276    -1.124856099803
    C           -3.891435890769    -2.429109766176    -0.889667126369
    C            2.328151517798    -1.297445002583     1.803348556954
    C            2.113291404156    -0.269604405710    -0.352809746631
    C            3.656640649976    -1.594285964688     1.531257940297
    C            3.446658086241    -0.554330477385    -0.617305048439
    C            4.244680292088    -1.209823731750     0.323565279229
    H           -1.413885004651     4.445129687175    -1.217255732797
    O           -2.442793729655     2.068467790041    -1.605315824020
    H           -3.472155112324     0.575772082731     0.626281231221
    H           -0.513477657340    -2.114892699101    -0.901792137507
    H           -5.253104629816    -0.985508265070    -0.064400472968
    H           -2.294337500922    -3.670448907043    -1.617531905179
    H           -4.672356219136    -3.110039133451    -1.199659098572
    H            1.902013928169    -1.590792024211     2.754670403202
    H            1.519235495683     0.239615678504    -1.099927592037
    H            4.240620823240    -2.130386127811     2.269377939687
    H            3.865328608219    -0.273052094207    -1.575681157552
    N            5.581505280616    -1.549704742869     0.029061615654
    H            0.940580357180     2.268668950647     1.523863354305
    H            0.450031568325     4.687863408414     0.503234845574
    H            6.192603735144    -1.653969654894     0.829424060679
    H            6.022119301050    -0.998451181380    -0.702752981339

gradient() will perform analytic gradient computation.

*** tstart() called on node44.bme.utexas.edu
*** at Fri Nov  5 07:30:08 2021

   => Loading Basis Set <=

    Name: 6-311G
    Role: ORBITAL
    Keyword: BASIS
    atoms 1-2, 4, 6, 8-20     entry C          line    92 file /home/bdw2292/miniconda3/envs/amoebamdpoltype/share/psi4/basis/6-311g.gbs 
    atoms 3, 7, 32            entry N          line   109 file /home/bdw2292/miniconda3/envs/amoebamdpoltype/share/psi4/basis/6-311g.gbs 
    atoms 5, 21, 23-31, 33-36 entry H          line    21 file /home/bdw2292/miniconda3/envs/amoebamdpoltype/share/psi4/basis/6-311g.gbs 
    atoms 22                  entry O          line   126 file /home/bdw2292/miniconda3/envs/amoebamdpoltype/share/psi4/basis/6-311g.gbs 


         ---------------------------------------------------------
                                   SCF
               by Justin Turney, Rob Parrish, Andy Simmonett
                          and Daniel G. A. Smith
                              RKS Reference
                        1 Threads,   7947 MiB Core
         ---------------------------------------------------------

  ==> Geometry <==

    Molecular point group: c1
    Full point group: C1

    Geometry (in Angstrom), charge = 0, multiplicity = 1:

       Center              X                  Y                   Z               Mass       
    ------------   -----------------  -----------------  -----------------  -----------------
         C           -0.716731933038     1.585397883706     0.148479708727    12.000000000000
         C           -0.793129324741     0.243721433945     0.367925016839    12.000000000000
         N            0.173131473989    -0.379711823588     1.189675188672    14.003074004430
         C            1.538612917636    -0.628606630928     0.867478374040    12.000000000000
         H           -0.225648990272    -1.134366350848     1.730998832556     1.007825032230
         C            0.208296168587     2.523627727506     0.779301509628    12.000000000000
         N           -1.046659876549     3.683861424730    -0.680236723927    14.003074004430
         C           -1.541591714296     2.389042651618    -0.813811801737    12.000000000000
         C           -0.025846784733     3.750526142023     0.272252673302    12.000000000000
         C           -1.873694549452    -0.654864484004    -0.102513143652    12.000000000000
         C           -3.217186036097    -0.354526810458     0.139427659426    12.000000000000
         C           -1.553179681625    -1.868562856493    -0.724187782803    12.000000000000
         C           -4.217772208820    -1.234579522096    -0.252649475826    12.000000000000
         C           -2.555635051082    -2.743669859276    -1.124856099803    12.000000000000
         C           -3.891435890769    -2.429109766176    -0.889667126369    12.000000000000
         C            2.328151517798    -1.297445002583     1.803348556954    12.000000000000
         C            2.113291404156    -0.269604405710    -0.352809746631    12.000000000000
         C            3.656640649976    -1.594285964688     1.531257940297    12.000000000000
         C            3.446658086241    -0.554330477385    -0.617305048439    12.000000000000
         C            4.244680292088    -1.209823731750     0.323565279229    12.000000000000
         H           -1.413885004651     4.445129687175    -1.217255732797     1.007825032230
         O           -2.442793729655     2.068467790041    -1.605315824020    15.994914619570
         H           -3.472155112324     0.575772082731     0.626281231221     1.007825032230
         H           -0.513477657340    -2.114892699101    -0.901792137507     1.007825032230
         H           -5.253104629816    -0.985508265070    -0.064400472968     1.007825032230
         H           -2.294337500922    -3.670448907043    -1.617531905179     1.007825032230
         H           -4.672356219136    -3.110039133451    -1.199659098572     1.007825032230
         H            1.902013928169    -1.590792024211     2.754670403202     1.007825032230
         H            1.519235495683     0.239615678504    -1.099927592037     1.007825032230
         H            4.240620823240    -2.130386127811     2.269377939687     1.007825032230
         H            3.865328608219    -0.273052094207    -1.575681157552     1.007825032230
         N            5.581505280616    -1.549704742869     0.029061615654    14.003074004430
         H            0.940580357180     2.268668950647     1.523863354305     1.007825032230
         H            0.450031568325     4.687863408414     0.503234845574     1.007825032230
         H            6.192603735144    -1.653969654894     0.829424060679     1.007825032230
         H            6.022119301050    -0.998451181380    -0.702752981339     1.007825032230

  Running in c1 symmetry.

  Rotational constants: A =      0.01437  B =      0.00709  C =      0.00527 [cm^-1]
  Rotational constants: A =    430.87410  B =    212.51473  C =    158.01521 [MHz]
  Nuclear repulsion = 1533.708477085907134

  Charge       = 0
  Multiplicity = 1
  Electrons    = 146
  Nalpha       = 73
  Nbeta        = 73

  ==> Algorithm <==

  SCF Algorithm Type is DF.
  DIIS enabled.
  MOM disabled.
  Fractional occupation disabled.
  Guess Type is READ.
  Energy threshold   = 1.00e-08
  Density threshold  = 1.00e-08
  Integral threshold = 0.00e+00

  ==> Primary Basis <==

  Basis Set: 6-311G
    Blend: 6-311G
    Number of shells: 192
    Number of basis function: 318
    Number of Cartesian functions: 318
    Spherical Harmonics?: true
    Max angular momentum: 1

  ==> DFT Potential <==

   => Composite Functional: WB97X-D <= 

    wB97X-D Hyb-GGA Exchange-Correlation Functional

    J.-D. Chai and M. Head-Gordon, Phys. Chem. Chem. Phys. 10, 6615 (2008)

    Deriv               =              1
    GGA                 =           TRUE
    Meta                =          FALSE

    Exchange Hybrid     =           TRUE
    MP2 Hybrid          =          FALSE

   => Exchange-Correlation Functionals <=

    1.0000   wB97D range-separated functional

   => Exact (HF) Exchange <=

    0.7780            HF,LR [omega = 0.2000]
    0.2220               HF 

   => Molecular Quadrature <=

    Radial Scheme          =       TREUTLER
    Pruning Scheme         =           FLAT
    Nuclear Scheme         =       TREUTLER

    BS radius alpha        =              1
    Pruning alpha          =              1
    Radial Points          =             75
    Spherical Points       =            302
    Total Points           =         806608
    Total Blocks           =           5704
    Max Points             =            256
    Max Functions          =            224

   => WB97X-D: Empirical Dispersion <=

    Chai and Head-Gordon Dispersion Correction
    Chai, J.-D.; Head-Gordon, M. (2010), J. Chem. Phys., 132: 6615-6620

        s6 =       1.000000

   => Loading Basis Set <=

    Name: (6-311G AUX)
    Role: JKFIT
    Keyword: DF_BASIS_SCF
    atoms 1-2, 4, 6, 8-20     entry C          line   125 file /home/bdw2292/miniconda3/envs/amoebamdpoltype/share/psi4/basis/cc-pvtz-jkfit.gbs 
    atoms 3, 7, 32            entry N          line   177 file /home/bdw2292/miniconda3/envs/amoebamdpoltype/share/psi4/basis/cc-pvtz-jkfit.gbs 
    atoms 5, 21, 23-31, 33-36 entry H          line    51 file /home/bdw2292/miniconda3/envs/amoebamdpoltype/share/psi4/basis/cc-pvtz-jkfit.gbs 
    atoms 22                  entry O          line   229 file /home/bdw2292/miniconda3/envs/amoebamdpoltype/share/psi4/basis/cc-pvtz-jkfit.gbs 

   => Loading Basis Set <=

    Name: 6-311G
    Role: ORBITAL
    Keyword: BASIS
    atoms 1-2, 4, 6, 8-20     entry C          line    92 file /home/bdw2292/miniconda3/envs/amoebamdpoltype/share/psi4/basis/6-311g.gbs 
    atoms 3, 7, 32            entry N          line   109 file /home/bdw2292/miniconda3/envs/amoebamdpoltype/share/psi4/basis/6-311g.gbs 
    atoms 5, 21, 23-31, 33-36 entry H          line    21 file /home/bdw2292/miniconda3/envs/amoebamdpoltype/share/psi4/basis/6-311g.gbs 
    atoms 22                  entry O          line   126 file /home/bdw2292/miniconda3/envs/amoebamdpoltype/share/psi4/basis/6-311g.gbs 

  Reading orbitals from file 180, no projection.

  ==> Pre-Iterations <==

   -------------------------------------------------------
    Irrep   Nso     Nmo     Nalpha   Nbeta   Ndocc  Nsocc
   -------------------------------------------------------
     A        318     318       0       0       0       0
   -------------------------------------------------------
    Total     318     318      73      73      73       0
   -------------------------------------------------------

  ==> Integral Setup <==

  ==> DiskDFJK: Density-Fitted J/K Matrices <==

    J tasked:                  Yes
    K tasked:                  Yes
    wK tasked:                 Yes
    Omega:               2.000E-01
    OpenMP threads:              1
    Integrals threads:           1
    Memory [MiB]:             2575
    Algorithm:                Core
    Integral Cache:           NONE
    Schwarz Cutoff:          1E-12
    Fitting Condition:       1E-10

   => Auxiliary Basis Set <=

  Basis Set: (6-311G AUX)
    Blend: CC-PVTZ-JKFIT
    Number of shells: 675
    Number of basis function: 2109
    Number of Cartesian functions: 2541
    Spherical Harmonics?: true
    Max angular momentum: 4

  Cached 100.0% of DFT collocation blocks in 3.305 [GiB].

  Minimum eigenvalue in the overlap matrix is 2.3569418732E-04.
  Using Symmetric Orthogonalization.

[...]
	   34 R(19,20)        =      1.400302     0.001263     0.000122     1.400424
	   35 R(19,31)        =      1.082905     0.000381     0.000063     1.082967
	   36 R(20,32)        =      1.393568    -0.000922    -0.000189     1.393379
	   37 R(32,35)        =      1.002244    -0.000674    -0.000108     1.002137
	   38 R(32,36)        =      1.002351    -0.000910     0.000031     1.002382
	   39 B(1,2,3)        =    119.066376     0.000001    -0.003593   119.062783
	   40 B(1,2,10)       =    125.743436     0.000001    -0.002750   125.740686
	   41 B(1,6,9)        =    107.898870     0.000013     0.036436   107.935306
	   42 B(1,6,33)       =    125.015698    -0.000003     0.004042   125.019741
	   43 B(1,8,7)        =    104.427406    -0.000002    -0.000343   104.427063
	   44 B(1,8,22)       =    131.218524    -0.000007    -0.020744   131.197779
	   45 B(2,1,6)        =    126.341258     0.000001     0.010307   126.351565
	   46 B(2,1,8)        =    126.943808     0.000001     0.027348   126.971155
	   47 B(2,3,4)        =    123.769303     0.000001     0.027003   123.796306
	   48 B(2,3,5)        =    112.586959     0.000001     0.008989   112.595947
	   49 B(2,10,11)      =    121.724373    -0.000002    -0.018369   121.706005
	   50 B(2,10,12)      =    118.799479     0.000006     0.038607   118.838086
	   51 B(3,2,10)       =    115.042354    -0.000002     0.006351   115.048705
	   52 B(3,4,16)       =    118.747017    -0.000004    -0.010558   118.736460
	   53 B(3,4,17)       =    122.697431     0.000002     0.003779   122.701210
	   54 B(4,3,5)        =    112.517300    -0.000002    -0.014497   112.502803
	   55 B(4,16,18)      =    120.922312    -0.000000    -0.002982   120.919330
	   56 B(4,16,28)      =    119.510067    -0.000000     0.003998   119.514065
	   57 B(4,17,19)      =    120.507363     0.000000    -0.000746   120.506616
	   58 B(4,17,29)      =    120.113413    -0.000008    -0.022746   120.090667
	   59 B(6,1,8)        =    106.487666    -0.000001    -0.020268   106.467399
	   60 B(6,9,7)        =    110.012204    -0.000007    -0.019937   109.992267
	   61 B(6,9,34)       =    129.585725     0.000002     0.004807   129.590532
	   62 B(7,8,22)       =    124.348865     0.000009     0.023305   124.372170
	   63 B(7,9,34)       =    120.399044     0.000005     0.014179   120.413223
	   64 B(8,7,9)        =    111.168492    -0.000003     0.004621   111.173114
	   65 B(8,7,21)       =    122.412977     0.000004     0.003298   122.416275
	   66 B(9,6,33)       =    127.076493    -0.000010    -0.037879   127.038614
	   67 B(9,7,21)       =    126.414652    -0.000001    -0.009723   126.404929
	   68 B(10,11,13)     =    120.214626     0.000001     0.011797   120.226423
	   69 B(10,11,23)     =    119.386151    -0.000002    -0.008494   119.377657
	   70 B(10,12,14)     =    120.329258     0.000001     0.009307   120.338565
	   71 B(10,12,24)     =    119.481107    -0.000003    -0.014398   119.466709
	   72 B(11,10,12)     =    119.346553    -0.000004    -0.020191   119.326363
	   73 B(11,13,15)     =    120.200236    -0.000001     0.000505   120.200741
	   74 B(11,13,25)     =    119.732269     0.000002     0.002120   119.734389
	   75 B(12,14,15)     =    119.940888     0.000003     0.008898   119.949786
	   76 B(12,14,26)     =    119.880893     0.000001     0.002268   119.883161
	   77 B(13,11,23)     =    120.392781     0.000001    -0.002635   120.390146
	   78 B(13,15,14)     =    119.950303    -0.000002    -0.009482   119.940820
	   79 B(13,15,27)     =    120.007545     0.000003     0.009337   120.016882
	   80 B(14,12,24)     =    120.184022     0.000002     0.005852   120.189873
	   81 B(14,15,27)     =    120.042100    -0.000001     0.000136   120.042235
	   82 B(15,13,25)     =    120.066712    -0.000001    -0.002348   120.064364
	   83 B(15,14,26)     =    120.178167    -0.000004    -0.011193   120.166974
	   84 B(16,4,17)      =    118.554349     0.000002     0.005671   118.560020
	   85 B(16,18,20)     =    120.810540    -0.000001    -0.002284   120.808256
	   86 B(16,18,30)     =    119.629614     0.000000     0.000698   119.630313
	   87 B(17,19,20)     =    121.234405    -0.000003    -0.008086   121.226319
	   88 B(17,19,31)     =    119.124266     0.000003     0.008466   119.132732
	   89 B(18,16,28)     =    119.565356     0.000001    -0.000569   119.564786
	   90 B(18,20,19)     =    117.934762     0.000003     0.005884   117.940646
	   91 B(18,20,32)     =    120.750329    -0.000005    -0.009535   120.740794
	   92 B(19,17,29)     =    119.376633     0.000008     0.021049   119.397682
	   93 B(19,20,32)     =    121.270108     0.000003     0.007094   121.277202
	   94 B(20,18,30)     =    119.559555     0.000000     0.001248   119.560803
	   95 B(20,19,31)     =    119.640982    -0.000000    -0.000195   119.640786
	   96 B(20,32,35)     =    119.326049     0.000010     0.081110   119.407159
	   97 B(20,32,36)     =    118.851994    -0.000002     0.039593   118.891587
	   98 B(35,32,36)     =    115.955886    -0.000005     0.044873   116.000760
	   99 *D(1,2,3,4)     =    -72.252067    -0.000000     0.000000   -72.252066
	  100 D(1,2,3,5)      =    146.750266     0.000000    -0.026613   146.723653
	  101 *D(1,2,10,11)   =    -51.407246    -0.000000     0.000000   -51.407245
	  102 *D(1,2,10,12)   =    132.759672     0.000000    -0.000000   132.759672
	  103 D(1,6,9,7)      =     -0.648185     0.000003     0.219583    -0.428602
	  104 D(1,6,9,34)     =    178.709124     0.000001     0.125526   178.834650
	  105 D(1,8,7,9)      =     -0.565827     0.000001    -0.110155    -0.675982
	  106 D(1,8,7,21)     =   -179.891743     0.000000     0.031732  -179.860012
	  107 D(2,1,6,9)      =    175.103684    -0.000001    -0.078502   175.025183
	  108 D(2,1,6,33)     =     -5.920279     0.000000     0.082827    -5.837453
	  109 D(2,1,8,7)      =   -174.600889    -0.000000     0.029887  -174.571002
	  110 D(2,1,8,22)     =      4.576899     0.000000     0.229331     4.806230
	  111 *D(2,3,4,16)    =   -178.057636    -0.000000    -0.000000  -178.057636
	  112 D(2,3,4,17)     =      2.347383     0.000001     0.156309     2.503692
	  113 D(2,10,11,13)   =   -176.728028     0.000000     0.009177  -176.718851
	  114 D(2,10,11,23)   =      4.191626    -0.000000    -0.039791     4.151835
	  115 D(2,10,12,14)   =    177.564795    -0.000000    -0.034677   177.530118
	  116 D(2,10,12,24)   =     -3.295480     0.000000     0.025764    -3.269716
	  117 D(3,2,1,6)      =     -1.652547    -0.000002    -0.266810    -1.919357
	  118 D(3,2,1,8)      =    172.118053    -0.000000    -0.025480   172.092573
	  119 *D(3,2,10,11)   =    124.105885     0.000000    -0.000000   124.105885
	  120 D(3,2,10,12)    =    -51.727197     0.000000    -0.000001   -51.727197
	  121 D(3,4,16,18)    =    178.920288     0.000001     0.172367   179.092655
	  122 D(3,4,16,28)    =     -0.529740     0.000001     0.115143    -0.414597
	  123 D(3,4,17,19)    =    179.494438    -0.000001    -0.262910   179.231528
	  124 D(3,4,17,29)    =      0.083710    -0.000000    -0.031052     0.052658
	  125 *D(4,3,2,10)    =    111.913807    -0.000000    -0.000000   111.913806
	  126 D(4,16,18,20)   =      2.344929     0.000000     0.056933     2.401862
	  127 D(4,16,18,30)   =   -177.852013    -0.000000    -0.035756  -177.887769
	  128 D(4,17,19,20)   =      0.821266     0.000001     0.113697     0.934963
	  129 D(4,17,19,31)   =   -179.393932     0.000001     0.181994  -179.211937
	  130 D(5,3,2,10)     =    -29.083860     0.000000    -0.026614   -29.110474
	  131 D(5,3,4,16)     =    -37.036552     0.000000     0.034471   -37.002081
	  132 D(5,3,4,17)     =    143.368468     0.000001     0.190780   143.559247
	  133 D(6,1,2,10)     =    173.696281    -0.000002    -0.266406   173.429875
	  134 D(6,1,8,7)      =      0.169187     0.000001     0.233468     0.402656
	  135 D(6,1,8,22)     =    179.346976     0.000002     0.432912   179.779888
	  136 D(6,9,7,8)      =      0.794706    -0.000003    -0.067825     0.726882
	  137 D(6,9,7,21)     =   -179.912436    -0.000002    -0.216532  -180.128968
	  138 D(7,9,6,33)     =   -179.597057     0.000002     0.053488  -179.543568
	  139 D(8,1,2,10)     =    -12.533119    -0.000000    -0.025077   -12.558195
	  140 D(8,1,6,9)      =      0.292744    -0.000003    -0.281617     0.011127
	  141 D(8,1,6,33)     =    179.268781    -0.000001    -0.120289   179.148492
	  142 D(8,7,9,34)     =   -178.631045    -0.000001     0.016265  -178.614780
	  143 D(9,7,8,22)     =   -179.816733     0.000000    -0.291523  -180.108256
	  144 D(10,11,13,15)  =     -0.116579     0.000000     0.022480    -0.094099
	  145 D(10,11,13,25)  =   -179.794730    -0.000000    -0.040616  -179.835346
	  146 D(10,12,14,15)  =     -1.306434     0.000000     0.023411    -1.283023
	  147 D(10,12,14,26)  =    178.776004     0.000000     0.042950   178.818954
	  148 D(11,10,12,14)  =      1.630753    -0.000000    -0.034677     1.596075
	  149 D(11,10,12,24)  =   -179.229523     0.000000     0.025764  -179.203759
	  150 D(11,13,15,14)  =      0.451516    -0.000000    -0.033539     0.417977
	  151 D(11,13,15,27)  =   -179.631649    -0.000000    -0.040936  -179.672585
	  152 D(12,10,11,13)  =     -0.917165     0.000000     0.011563    -0.905602
	  153 D(12,10,11,23)  =   -179.997511    -0.000000    -0.037404  -180.034916
	  154 D(12,14,15,13)  =      0.260008     0.000000     0.010404     0.270412
	  155 D(12,14,15,27)  =   -179.656798     0.000000     0.017796  -179.639002
	  156 D(13,15,14,26)  =   -179.822677    -0.000000    -0.009179  -179.831856
	  157 D(14,15,13,25)  =   -179.871415     0.000000     0.029781  -179.841634
	  158 D(15,13,11,23)  =    178.954432     0.000000     0.071895   179.026327
	  159 D(15,14,12,24)  =    179.559916    -0.000000    -0.037295   179.522621
	  160 D(16,4,17,19)   =     -0.101286    -0.000001    -0.106801    -0.208087
	  161 D(16,4,17,29)   =   -179.512014     0.000001     0.125056  -179.386958
	  162 D(16,18,20,19)  =     -1.584491    -0.000000    -0.051475    -1.635967
	  163 D(16,18,20,32)  =   -179.180570    -0.000001    -0.145821  -179.326391
	  164 D(17,4,16,18)   =     -1.467749     0.000000     0.022606    -1.445143
	  165 D(17,4,16,28)   =    179.082223    -0.000000    -0.034618   179.047606
	  166 D(17,19,20,18)  =      0.016937    -0.000000    -0.033194    -0.016257
	  167 D(17,19,20,32)  =    177.599864     0.000000     0.061263   177.661127
	  168 D(18,20,19,31)  =   -179.766769    -0.000001    -0.101852  -179.868622
	  169 *D(18,20,32,35) =    -28.673444     0.000000    -0.000000   -28.673444
	  170 D(18,20,32,36)  =    179.361453    -0.000002    -0.384375   178.977078
	  171 D(19,20,18,30)  =    178.612314     0.000000     0.041151   178.653465
	  172 D(19,20,32,35)  =    153.811391    -0.000000    -0.097475   153.713915
	  173 D(19,20,32,36)  =      1.846287    -0.000002    -0.481850     1.364437
	  174 D(20,18,16,28)  =   -178.205344     0.000001     0.114210  -178.091134
	  175 D(20,19,17,29)  =   -179.763691    -0.000001    -0.116820  -179.880511
	  176 D(21,7,8,22)    =      0.857351    -0.000000    -0.149637     0.707714
	  177 D(21,7,9,34)    =      0.661812     0.000000    -0.132442     0.529370
	  178 D(23,11,13,25)  =     -0.723719     0.000000     0.008799    -0.714919
	  179 D(24,12,14,26)  =     -0.357647    -0.000000    -0.017756    -0.375402
	  180 D(25,13,15,27)  =      0.045420     0.000000     0.022383     0.067803
	  181 D(26,14,15,27)  =      0.260517     0.000000    -0.001788     0.258729
	  182 D(28,16,18,30)  =      1.597714     0.000000     0.021521     1.619235
	  183 D(29,17,19,31)  =      0.021111    -0.000000    -0.048522    -0.027411
	  184 D(30,18,20,32)  =      1.016235    -0.000000    -0.053195     0.963040
	  185 D(31,19,20,32)  =     -2.183843    -0.000000    -0.007395    -2.191237
	  186 D(33,6,9,34)    =     -0.239748    -0.000001    -0.040569    -0.280316
	  187 R(1,17)         =      3.302000    -0.000704    -0.000302     3.301697
	  188 R(4,6)          =      3.326471     0.000873     0.002479     3.328951
	  189 R(4,12)         =      3.645648     0.000701     0.001395     3.647042
	  190 R(6,17)         =      3.380656     0.001144     0.002352     3.383008
	  191 R(8,11)         =      3.351245     0.000955     0.000716     3.351960
	  192 R(10,22)        =      3.125576     0.000885     0.000888     3.126465
	  193 R(11,22)        =      3.028858    -0.000634    -0.000363     3.028495
	 ---------------------------------------------------------------------------
	Successfully symmetrized geometry.

  ==> Convergence Check <==

  Measures of convergence in internal coordinates in au.
  Criteria marked as inactive (o), active & met (*), and active & unmet ( ).
  ---------------------------------------------------------------------------------------------
   Step     Total Energy     Delta E     MAX Force     RMS Force      MAX Disp      RMS Disp   
  ---------------------------------------------------------------------------------------------
    Convergence Criteria             o    2.50e-03 *    1.70e-03 *    1.00e-02 *    6.70e-03 *
  ---------------------------------------------------------------------------------------------
      7    -895.96680102   -3.11e-05 o    9.34e-04 *    1.23e-04 *    8.41e-03 *    1.67e-03 *  ~
  ---------------------------------------------------------------------------------------------


  **** Optimization is complete! (in 7 steps) ****

  ==> Optimization Summary <==

  Measures of convergence in internal coordinates in au.
  --------------------------------------------------------------------------------------------------------------- ~
   Step         Total Energy             Delta E       MAX Force       RMS Force        MAX Disp        RMS Disp  ~
  --------------------------------------------------------------------------------------------------------------- ~
      1    -895.956483760581   -895.956483760581      0.01857268      0.00493333      0.12567115      0.02439922  ~
      2    -895.964396096345     -0.007912335764      0.00821374      0.00108748      0.13729228      0.02232088  ~
      3    -895.965847093890     -0.001450997545      0.00611252      0.00072043      0.19366779      0.03512344  ~
      4    -895.965429342461      0.000417751429      0.00593920      0.00135098      0.09035737      0.01538738  ~
      5    -895.966718390862     -0.001289048401      0.00328517      0.00042796      0.03558987      0.00614059  ~
      6    -895.966769929135     -0.000051538273      0.00091643      0.00016507      0.02094467      0.00363154  ~
      7    -895.966801024254     -0.000031095119      0.00093404      0.00012302      0.00840987      0.00166934  ~
  --------------------------------------------------------------------------------------------------------------- ~

	Writing optimization data to binary file.
	Final energy is   -895.9668010242538
	Final (previous) structure:
	Cartesian Geometry (in Angstrom)
	    C    -0.7155221117   1.5520724687   0.1843086077
	    C    -0.8166936786   0.2161425292   0.3974498856
	    N     0.1050998704  -0.4114368567   1.2591005303
	    C     1.4732689307  -0.6384148003   0.9266503905
	    H    -0.3021575544  -1.1823302916   1.7672180895
	    C     0.2577472881   2.4552181536   0.7949147368
	    N    -0.9276687175   3.6323487378  -0.7172992284
	    C    -1.4819773631   2.3626592591  -0.8064012703
	    C     0.0951192299   3.6727407167   0.2436608519
	    C    -1.8870223863  -0.6648059622  -0.1246569174
	    C    -3.2397687824  -0.3595184971   0.0484429970
	    C    -1.5284207225  -1.8765086885  -0.7309774240
	    C    -4.2184425507  -1.2420143102  -0.3946374511
	    C    -2.5093375901  -2.7512436085  -1.1868504573
	    C    -3.8564673404  -2.4358244283  -1.0165377077
	    C     2.2863906089  -1.3082887090   1.8457901172
	    C     2.0375498794  -0.2118903557  -0.2763783731
	    C     3.6187454461  -1.5728979491   1.5593983406
	    C     3.3806294742  -0.4485938184  -0.5493865453
	    C     4.1970315099  -1.1319167435   0.3602309351
	    H    -1.2494130330   4.3983595687  -1.2748522574
	    O    -2.4020166123   2.0525029769  -1.5807609770
	    H    -3.5168146243   0.5740124601   0.5155366782
	    H    -0.4808251335  -2.1209090037  -0.8548360079
	    H    -5.2626936501  -0.9964593671  -0.2597035164
	    H    -2.2243711739  -3.6750779543  -1.6713938573
	    H    -4.6204455761  -3.1173169486  -1.3653679200
	    H     1.8682300046  -1.6328895836   2.7905960211
	    H     1.4341616277   0.3151247476  -1.0014179467
	    H     4.2201285352  -2.1236494493   2.2715106189
	    H     3.7976974546  -0.0991323340  -1.4856630275
	    N     5.5299846329  -1.4128628396   0.0663992447
	    H     0.9587829641   2.1794171430   1.5609258337
	    H     0.6122254466   4.5930143550   0.4497514060
	    H     6.1843917099  -1.5276939194   0.8167718273
	    H     5.9115429866  -1.0922086652  -0.8032567702
	Saving final (previous) structure.
			--------------------------
			 OPTKING Finished Execution 
			--------------------------

    Final optimized geometry and variables:
    Molecular point group: c1
    Full point group: C1

    Geometry (in Angstrom), charge = 0, multiplicity = 1:

    C           -0.715522114494     1.552072474780     0.184308608447
    C           -0.816693681829     0.216142530015     0.397449887188
    N            0.105099870815    -0.411436858361     1.259100535223
    C            1.473268936507    -0.638414802855     0.926650394155
    H           -0.302157555553    -1.182330296229     1.767218096469
    C            0.257747289159     2.455218163262     0.794914739920
    N           -0.927668721158     3.632348752050    -0.717299231261
    C           -1.481977368929     2.362659268348    -0.806401273503
    C            0.095119230258     3.672740731172     0.243660852859
    C           -1.887022393698    -0.664805964807    -0.124656917866
    C           -3.239768795184    -0.359518498470     0.048442997182
    C           -1.528420728536    -1.876508695892    -0.730977426884
    C           -4.218442567278    -1.242014315116    -0.394637452638
    C           -2.509337599928    -2.751243619276    -1.186850461940
    C           -3.856467355523    -2.435824437835    -1.016537711675
    C            2.286390617883    -1.308288714189     1.845790124412
    C            2.037549887383    -0.211890356557    -0.276378374236
    C            3.618745460347    -1.572897955295     1.559398346752
    C            3.380629487469    -0.448593820116    -0.549386547489
    C            4.197031526379    -1.131916747962     0.360230936511
    H           -1.249413037939     4.398359585984    -1.274852262409
    O           -2.402016621744     2.052502984970    -1.580760983181
    H           -3.516814638166     0.574012462325     0.515536680186
    H           -0.480825135383    -2.120909012047    -0.854836011292
    H           -5.262693670753    -0.996459370996    -0.259703517430
    H           -2.224371182626    -3.675077968759    -1.671393863897
    H           -4.620445594291    -3.117316960815    -1.365367925344
    H            1.868230011900    -1.632889589976     2.790596032074
    H            1.434161633383     0.315124748842    -1.001417950610
    H            4.220128551786    -2.123649457608     2.271510627863
    H            3.797697469561    -0.099132334428    -1.485663033368
    N            5.529984654669    -1.412862845192     0.066399244996
    H            0.958782967874     2.179417151530     1.560925839835
    H            0.612225448998     4.593014373082     0.449751407794
    H            6.184391734164    -1.527693925385     0.816771830496
    H            5.911543009824    -1.092208669514    -0.803256773350

	Removing binary optimization data file.
	Cleaning optimization helper files.

    Psi4 stopped on: Friday, 05 November 2021 08:35AM
    Psi4 wall time for execution: 1:17:33.33

*** Psi4 exiting successfully. Buy a developer a beer!
