
    -----------------------------------------------------------------------
          Psi4: An Open-Source Ab Initio Electronic Structure Package
                               Psi4 1.5 release

                         Git: Rev {HEAD} e9f4d6d 


    D. G. A. Smith, L. A. Burns, A. C. Simmonett, R. M. Parrish,
    M. C. Schieber, R. Galvelis, P. Kraus, H. Kruse, R. Di Remigio,
    A. Alenaizan, A. M. James, S. Lehtola, J. P. Misiewicz, M. Scheurer,
    R. A. Shaw, J. B. Schriber, Y. Xie, Z. L. Glick, D. A. Sirianni,
    J. S. O'Brien, J. M. Waldrop, A. Kumar, E. G. Hohenstein,
    B. P. Pritchard, B. R. Brooks, H. F. Schaefer III, A. Yu. Sokolov,
    K. Patkowski, A. E. DePrince III, U. Bozkaya, R. A. King,
    F. A. Evangelista, J. M. Turney, T. D. Crawford, C. D. Sherrill,
    J. Chem. Phys. 152(18) 184108 (2020). https://doi.org/10.1063/5.0006002

                            Additional Code Authors
    E. T. Seidl, C. L. Janssen, E. F. Valeev, M. L. Leininger,
    J. F. Gonthier, R. M. Richard, H. R. McAlexander, M. Saitow, X. Wang,
    P. Verma, M. H. Lechner, and A. Jiang

             Previous Authors, Complete List of Code Contributors,
                       and Citations for Specific Modules
    https://github.com/psi4/psi4/blob/master/codemeta.json
    https://github.com/psi4/psi4/graphs/contributors
    http://psicode.org/psi4manual/master/introduction.html#citing-psifour

    -----------------------------------------------------------------------


    Psi4 started on: Thursday, 09 June 2022 07:37AM

    Process ID: 1299471
    Host:       node74.bme.utexas.edu
    PSIDATADIR: /home/bdw2292/miniconda3/envs/newamoebamdpoltype/share/psi4
    Memory:     500.0 MiB
    Threads:    1
    
  ==> Input File <==

--------------------------------------------------------------------------
molecule { 
0 1
 C    1.605806   -0.543022   -0.197793
 N    0.281227   -0.869386   -0.612544
 C   -0.883361   -0.195473   -0.226446
 C   -1.449455   -0.338653    1.003081
 H    0.276777   -1.072045   -1.601730
 C   -1.587992    0.531893   -1.322460
 C   -2.702803    0.236600    1.497091
 N   -1.930275   -1.176652    3.069524
 C   -0.966846   -1.257836    2.070237
 C   -2.949538   -0.285843    2.715018
 C   -1.988191    1.862389   -1.156350
 C   -1.873807   -0.112346   -2.533303
 C   -2.643663    2.537098   -2.183423
 C   -2.531116    0.562304   -3.556976
 C   -2.916095    1.890527   -3.386359
 C    2.654809   -0.815435   -1.080476
 C    1.901694    0.074021    1.016636
 C    3.966780   -0.502553   -0.753005
 C    3.216121    0.381140    1.348355
 C    4.273924    0.087199    0.480097
 H   -1.871654   -1.708421    3.915565
 O    0.038125   -1.984477    2.119373
 H   -1.761795    2.372932   -0.230704
 H   -1.613770   -1.155166   -2.668732
 H   -2.936407    3.568826   -2.044520
 H   -2.750716    0.048249   -4.482491
 H   -3.425253    2.414744   -4.183089
 H    2.445699   -1.275218   -2.039625
 H    1.116213    0.307822    1.715755
 H    4.758877   -0.704901   -1.462635
 H    3.422563    0.844969    2.304970
 N    5.590958    0.418360    0.802560
 H   -3.335232    0.925956    0.969718
 H   -3.780513   -0.113395    3.375862
 H    6.335673   -0.129837    0.415330
 H    5.774906    0.825124    1.700245
}
memory 8.166666666666666GB
set_num_threads(2)
psi4_io.set_default_path("/scratch/bdw2292/Psi4-1_7_Index_0_GrowFragment_0-farH_in17")
set freeze_core True
E, wfn = energy('wb97x-d/6-311+G*',return_wfn=True)
oeprop(wfn,"WIBERG_LOWDIN_INDICES")
clean()
--------------------------------------------------------------------------

  Memory set to   7.606 GiB by Python driver.
  Threads set to 2 by Python driver.

Scratch directory: /scratch/bdw2292/Psi4-1_7_Index_0_GrowFragment_0-farH_in17/

Scratch directory: /scratch/bdw2292/Psi4-1_7_Index_0_GrowFragment_0-farH_in17/

*** tstart() called on node74.bme.utexas.edu
*** at Thu Jun  9 07:37:22 2022

   => Loading Basis Set <=

    Name: 6-311+G*
    Role: ORBITAL
    Keyword: BASIS
    atoms 1, 3-4, 6-7, 9-20   entry C          line   130 file /home/bdw2292/miniconda3/envs/newamoebamdpoltype/share/psi4/basis/6-311pgs.gbs 
    atoms 2, 8, 32            entry N          line   151 file /home/bdw2292/miniconda3/envs/newamoebamdpoltype/share/psi4/basis/6-311pgs.gbs 
    atoms 5, 21, 23-31, 33-36 entry H          line    47 file /home/bdw2292/miniconda3/envs/newamoebamdpoltype/share/psi4/basis/6-311pgs.gbs 
    atoms 22                  entry O          line   172 file /home/bdw2292/miniconda3/envs/newamoebamdpoltype/share/psi4/basis/6-311pgs.gbs 

   => WB97X-D: Empirical Dispersion <=

    Chai and Head-Gordon Dispersion Correction
    Chai, J.-D.; Head-Gordon, M. (2010), J. Chem. Phys., 132: 6615-6620

        s6 =       1.000000


         ---------------------------------------------------------
                                   SCF
               by Justin Turney, Rob Parrish, Andy Simmonett
                          and Daniel G. A. Smith
                              RKS Reference
                        2 Threads,   7788 MiB Core
         ---------------------------------------------------------

  ==> Geometry <==

    Molecular point group: c1
    Full point group: C1

    Geometry (in Angstrom), charge = 0, multiplicity = 1:

       Center              X                  Y                   Z               Mass       
    ------------   -----------------  -----------------  -----------------  -----------------
         C            1.605805949810    -0.543022070086    -0.197793012808    12.000000000000
         N            0.281226949810    -0.869386070086    -0.612544012808    14.003074004430
         C           -0.883361050190    -0.195473070086    -0.226446012808    12.000000000000
         C           -1.449455050190    -0.338653070086     1.003080987192    12.000000000000
         H            0.276776949810    -1.072045070086    -1.601730012808     1.007825032230
         C           -1.587992050190     0.531892929914    -1.322460012808    12.000000000000
         C           -2.702803050190     0.236599929914     1.497090987192    12.000000000000
         N           -1.930275050190    -1.176652070086     3.069523987192    14.003074004430
         C           -0.966846050190    -1.257836070086     2.070236987192    12.000000000000
         C           -2.949538050190    -0.285843070086     2.715017987192    12.000000000000
         C           -1.988191050190     1.862388929914    -1.156350012808    12.000000000000
         C           -1.873807050190    -0.112346070086    -2.533303012808    12.000000000000
         C           -2.643663050190     2.537097929914    -2.183423012808    12.000000000000
         C           -2.531116050190     0.562303929914    -3.556976012808    12.000000000000
         C           -2.916095050190     1.890526929914    -3.386359012808    12.000000000000
         C            2.654808949810    -0.815435070086    -1.080476012808    12.000000000000
         C            1.901693949810     0.074020929914     1.016635987192    12.000000000000
         C            3.966779949810    -0.502553070086    -0.753005012808    12.000000000000
         C            3.216120949810     0.381139929914     1.348354987192    12.000000000000
         C            4.273923949810     0.087198929914     0.480096987192    12.000000000000
         H           -1.871654050190    -1.708421070086     3.915564987192     1.007825032230
         O            0.038124949810    -1.984477070086     2.119372987192    15.994914619570
         H           -1.761795050190     2.372931929914    -0.230704012808     1.007825032230
         H           -1.613770050190    -1.155166070086    -2.668732012808     1.007825032230
         H           -2.936407050190     3.568825929914    -2.044520012808     1.007825032230
         H           -2.750716050190     0.048248929914    -4.482491012808     1.007825032230
         H           -3.425253050190     2.414743929914    -4.183089012808     1.007825032230
         H            2.445698949810    -1.275218070086    -2.039625012808     1.007825032230
         H            1.116212949810     0.307821929914     1.715754987192     1.007825032230
         H            4.758876949810    -0.704901070086    -1.462635012808     1.007825032230
         H            3.422562949810     0.844968929914     2.304969987192     1.007825032230
         N            5.590957949810     0.418359929914     0.802559987192    14.003074004430
         H           -3.335232050190     0.925955929914     0.969717987192     1.007825032230
         H           -3.780513050190    -0.113395070086     3.375861987192     1.007825032230
         H            6.335672949810    -0.129837070086     0.415329987192     1.007825032230
         H            5.774905949810     0.825123929914     1.700244987192     1.007825032230

  Running in c1 symmetry.

  Rotational constants: A =      0.01349  B =      0.00739  C =      0.00538 [cm^-1]
  Rotational constants: A =    404.50872  B =    221.43738  C =    161.18808 [MHz]
  Nuclear repulsion = 1538.007766545986442

  Charge       = 0
  Multiplicity = 1
  Electrons    = 146
  Nalpha       = 73
  Nbeta        = 73

  ==> Algorithm <==

  SCF Algorithm Type is DF.
  DIIS enabled.
  MOM disabled.
  Fractional occupation disabled.
  Guess Type is SAD.
  Energy threshold   = 1.00e-06
  Density threshold  = 1.00e-06
  Integral threshold = 1.00e-12

  ==> Primary Basis <==

  Basis Set: 6-311+G*
    Blend: 6-311+G*
    Number of shells: 255
    Number of basis functions: 507
    Number of Cartesian functions: 528
    Spherical Harmonics?: true
    Max angular momentum: 2

  ==> DFT Potential <==

   => LibXC <=

    Version 5.1.5
    S. Lehtola, C. Steigemann, M. J. Oliveira, and M. A. Marques, SoftwareX 7, 1 (2018) (10.1016/j.softx.2017.11.002)

   => Composite Functional: WB97X-D <= 

    wB97X-D Hyb-GGA Exchange-Correlation Functional

    J.-D. Chai and M. Head-Gordon, Phys. Chem. Chem. Phys. 10, 6615 (2008) (10.1039/B810189B)

    Deriv               =              1
    GGA                 =           TRUE
    Meta                =          FALSE

    Exchange Hybrid     =           TRUE
    MP2 Hybrid          =          FALSE

   => Exchange-Correlation Functionals <=

    1.0000   wB97X-D range-separated functional

   => Exact (HF) Exchange <=

    0.7780            HF,LR [omega = 0.2000]
    0.2220               HF 

   => LibXC Density Thresholds  <==

    XC_HYB_GGA_XC_WB97X_D:  1.00E-14 

   => Molecular Quadrature <=

    Radial Scheme          =       TREUTLER
    Pruning Scheme         =           NONE
    Nuclear Scheme         =       TREUTLER

    BS radius alpha        =              1
    Pruning alpha          =              1
    Radial Points          =             75
    Spherical Points       =            302
    Total Points           =         746229
    Total Blocks           =           5261
    Max Points             =            256
    Max Functions          =            387
    Weights Tolerance      =       1.00E-15

   => Loading Basis Set <=

    Name: (6-311+G* AUX)
    Role: JKFIT
    Keyword: DF_BASIS_SCF
    atoms 1, 3-4, 6-7, 9-20   entry C          line   200 file /home/bdw2292/miniconda3/envs/newamoebamdpoltype/share/psi4/basis/heavy-aug-cc-pvtz-jkfit.gbs 
    atoms 2, 8, 32            entry N          line   262 file /home/bdw2292/miniconda3/envs/newamoebamdpoltype/share/psi4/basis/heavy-aug-cc-pvtz-jkfit.gbs 
    atoms 5, 21, 23-31, 33-36 entry H          line   116 file /home/bdw2292/miniconda3/envs/newamoebamdpoltype/share/psi4/basis/heavy-aug-cc-pvtz-jkfit.gbs 
    atoms 22                  entry O          line   324 file /home/bdw2292/miniconda3/envs/newamoebamdpoltype/share/psi4/basis/heavy-aug-cc-pvtz-jkfit.gbs 

  ==> Integral Setup <==

  ==> DiskDFJK: Density-Fitted J/K Matrices <==

    J tasked:                  Yes
    K tasked:                  Yes
    wK tasked:                 Yes
    Omega:               2.000E-01
    OpenMP threads:              2
    Integrals threads:           2
    Memory [MiB]:             2217
    Algorithm:                Disk
    Integral Cache:           NONE
    Schwarz Cutoff:          1E-12
    Fitting Condition:       1E-10

   => Auxiliary Basis Set <=

  Basis Set: (6-311+G* AUX)
    Blend: HEAVY-AUG-CC-PVTZ-JKFIT
    Number of shells: 780
    Number of basis functions: 2634
    Number of Cartesian functions: 3276
    Spherical Harmonics?: true
    Max angular momentum: 4

  Cached 50.0% of DFT collocation blocks in 2.919 [GiB].

  Minimum eigenvalue in the overlap matrix is 4.8594745673E-07.
  Reciprocal condition number of the overlap matrix is 2.9079535991E-08.
    Using symmetric orthogonalization.

  ==> Pre-Iterations <==

  SCF Guess: Superposition of Atomic Densities via on-the-fly atomic UHF (no occupation information).

   -------------------------
    Irrep   Nso     Nmo    
   -------------------------
     A        507     507 
   -------------------------
    Total     507     507
   -------------------------

  ==> Iterations <==

                           Total Energy        Delta E     RMS |[F,P]|

   @DF-RKS iter SAD:  -895.68598762657962   -8.95686e+02   0.00000e+00 
   @DF-RKS iter   1:  -895.28085780674974    4.05130e-01   2.68534e-03 DIIS
   @DF-RKS iter   2:  -895.66650502606183   -3.85647e-01   2.19539e-03 DIIS
   @DF-RKS iter   3:  -896.17804910622442   -5.11544e-01   4.31227e-04 DIIS
   @DF-RKS iter   4:  -896.19334594673387   -1.52968e-02   1.70672e-04 DIIS
   @DF-RKS iter   5:  -896.19612842412289   -2.78248e-03   3.95631e-05 DIIS
   @DF-RKS iter   6:  -896.19629656927987   -1.68145e-04   1.30054e-05 DIIS
   @DF-RKS iter   7:  -896.19631835575569   -2.17865e-05   3.98678e-06 DIIS
   @DF-RKS iter   8:  -896.19632088915080   -2.53340e-06   1.68397e-06 DIIS
   @DF-RKS iter   9:  -896.19632158565378   -6.96503e-07   5.52812e-07 DIIS
  Energy and wave function converged.


  ==> Post-Iterations <==

   Electrons on quadrature grid:
      Ntotal   =  145.9999442394 ; deviation = -5.576e-05 

    Orbital Energies [Eh]
    ---------------------

    Doubly Occupied:                                                      

       1A    -19.206642     2A    -14.464626     3A    -14.456916  
       4A    -14.427274     5A    -10.383544     6A    -10.355349  
       7A    -10.327056     8A    -10.317526     9A    -10.317456  
      10A    -10.316541    11A    -10.305780    12A    -10.302913  
      13A    -10.302713    14A    -10.301918    15A    -10.300889  
      16A    -10.297815    17A    -10.280977    18A    -10.280365  
      19A    -10.274835    20A    -10.274047    21A    -10.272788  
      22A     -1.127263    23A     -1.055123    24A     -1.051549  
      25A     -1.012321    26A     -0.977096    27A     -0.935014  
      28A     -0.904861    29A     -0.870986    30A     -0.862948  
      31A     -0.841389    32A     -0.830825    33A     -0.809361  
      34A     -0.764829    35A     -0.721634    36A     -0.717249  
      37A     -0.703882    38A     -0.692665    39A     -0.684069  
      40A     -0.646945    41A     -0.631762    42A     -0.615675  
      43A     -0.602043    44A     -0.598455    45A     -0.588838  
      46A     -0.576142    47A     -0.557640    48A     -0.550548  
      49A     -0.529968    50A     -0.527207    51A     -0.524201  
      52A     -0.516577    53A     -0.514032    54A     -0.508950  
      55A     -0.498852    56A     -0.496186    57A     -0.487749  
      58A     -0.474744    59A     -0.468305    60A     -0.464739  
      61A     -0.448120    62A     -0.443664    63A     -0.432396  
      64A     -0.419001    65A     -0.407055    66A     -0.387467  
      67A     -0.345316    68A     -0.343248    69A     -0.337466  
      70A     -0.331095    71A     -0.319440    72A     -0.277849  
      73A     -0.247027  

    Virtual:                                                              

      74A     -0.002056    75A      0.041151    76A      0.048742  
      77A      0.053537    78A      0.061455    79A      0.064944  
      80A      0.067284    81A      0.069481    82A      0.077513  
      83A      0.081361    84A      0.084968    85A      0.087918  
      86A      0.094884    87A      0.096631    88A      0.098400  
      89A      0.105358    90A      0.107927    91A      0.110129  
      92A      0.116001    93A      0.123646    94A      0.126023  
      95A      0.130888    96A      0.135474    97A      0.143265  
      98A      0.144959    99A      0.147623   100A      0.152394  
     101A      0.155021   102A      0.160101   103A      0.166880  
     104A      0.170961   105A      0.175412   106A      0.179402  
     107A      0.180786   108A      0.181582   109A      0.185247  
     110A      0.190600   111A      0.196032   112A      0.200846  
     113A      0.202801   114A      0.204079   115A      0.207618  
     116A      0.208219   117A      0.209716   118A      0.214346  
     119A      0.217277   120A      0.223119   121A      0.224807  
     122A      0.225300   123A      0.231284   124A      0.231659  
     125A      0.240009   126A      0.241967   127A      0.244393  
     128A      0.249801   129A      0.251064   130A      0.254087  
     131A      0.254734   132A      0.257262   133A      0.261855  
     134A      0.264917   135A      0.265405   136A      0.267825  
     137A      0.270663   138A      0.272053   139A      0.275896  
     140A      0.277667   141A      0.277965   142A      0.285165  
     143A      0.285569   144A      0.288543   145A      0.292189  
     146A      0.296871   147A      0.298289   148A      0.300297  
     149A      0.302151   150A      0.307589   151A      0.310027  
     152A      0.313333   153A      0.315532   154A      0.316181  
     155A      0.323757   156A      0.326593   157A      0.331007  
     158A      0.335040   159A      0.338408   160A      0.342278  
     161A      0.343034   162A      0.347582   163A      0.351403  
     164A      0.354317   165A      0.358102   166A      0.359015  
     167A      0.361818   168A      0.368345   169A      0.375037  
     170A      0.379654   171A      0.387498   172A      0.389955  
     173A      0.391619   174A      0.393999   175A      0.396927  
     176A      0.399709   177A      0.402375   178A      0.414091  
     179A      0.419149   180A      0.425145   181A      0.432616  
     182A      0.435243   183A      0.439304   184A      0.440860  
     185A      0.449894   186A      0.456246   187A      0.459943  
     188A      0.464955   189A      0.472628   190A      0.476433  
     191A      0.478110   192A      0.482702   193A      0.493925  
     194A      0.506311   195A      0.520900   196A      0.529256  
     197A      0.531106   198A      0.551406   199A      0.568807  
     200A      0.587975   201A      0.591828   202A      0.596960  
     203A      0.607777   204A      0.610249   205A      0.618968  
     206A      0.621045   207A      0.630438   208A      0.638382  
     209A      0.642610   210A      0.646750   211A      0.651035  
     212A      0.654604   213A      0.658627   214A      0.663732  
     215A      0.667388   216A      0.680286   217A      0.682887  
     218A      0.689525   219A      0.692461   220A      0.696170  
     221A      0.707708   222A      0.715206   223A      0.722791  
     224A      0.729708   225A      0.731375   226A      0.736461  
     227A      0.748594   228A      0.755220   229A      0.758512  
     230A      0.761976   231A      0.768640   232A      0.777323  
     233A      0.781582   234A      0.785323   235A      0.791202  
     236A      0.801186   237A      0.802627   238A      0.807953  
     239A      0.809763   240A      0.816974   241A      0.821292  
     242A      0.825363   243A      0.827967   244A      0.831803  
     245A      0.835694   246A      0.836554   247A      0.845740  
     248A      0.849879   249A      0.854359   250A      0.871100  
     251A      0.882792   252A      0.887258   253A      0.895537  
     254A      0.900753   255A      0.915525   256A      0.916957  
     257A      0.921514   258A      0.924588   259A      0.929422  
     260A      0.935713   261A      0.942979   262A      0.948844  
     263A      0.956399   264A      0.965758   265A      0.970025  
     266A      0.970613   267A      0.977200   268A      0.981454  
     269A      0.992646   270A      0.999099   271A      1.008093  
     272A      1.011597   273A      1.017092   274A      1.026063  
     275A      1.039742   276A      1.049706   277A      1.053770  
     278A      1.063912   279A      1.066853   280A      1.068388  
     281A      1.078934   282A      1.093032   283A      1.103294  
     284A      1.105450   285A      1.116940   286A      1.127449  
     287A      1.137708   288A      1.141322   289A      1.150212  
     290A      1.158169   291A      1.173426   292A      1.179486  
     293A      1.199188   294A      1.213080   295A      1.229120  
     296A      1.240643   297A      1.260284   298A      1.265532  
     299A      1.286994   300A      1.290355   301A      1.306331  
     302A      1.308643   303A      1.316097   304A      1.321947  
     305A      1.325882   306A      1.344509   307A      1.349696  
     308A      1.363902   309A      1.375279   310A      1.390085  
     311A      1.402285   312A      1.408633   313A      1.429653  
     314A      1.441939   315A      1.457125   316A      1.469200  
     317A      1.489311   318A      1.508701   319A      1.540669  
     320A      1.563583   321A      1.585814   322A      1.595115  
     323A      1.608729   324A      1.611159   325A      1.624865  
     326A      1.651424   327A      1.656270   328A      1.669981  
     329A      1.678946   330A      1.700360   331A      1.717321  
     332A      1.732641   333A      1.737967   334A      1.758306  
     335A      1.801501   336A      1.817625   337A      1.848476  
     338A      1.853484   339A      1.858601   340A      1.870410  
     341A      1.875023   342A      1.880200   343A      1.882962  
     344A      1.892677   345A      1.914608   346A      1.915922  
     347A      1.920661   348A      1.935150   349A      1.946698  
     350A      1.949944   351A      1.968126   352A      1.972995  
     353A      1.984898   354A      1.994421   355A      2.003829  
     356A      2.016608   357A      2.024627   358A      2.035647  
     359A      2.045492   360A      2.055781   361A      2.068268  
     362A      2.078302   363A      2.084033   364A      2.102356  
     365A      2.115367   366A      2.125567   367A      2.155683  
     368A      2.159243   369A      2.176357   370A      2.186397  
     371A      2.198296   372A      2.217174   373A      2.257309  
     374A      2.271864   375A      2.316709   376A      2.328719  
     377A      2.339979   378A      2.349968   379A      2.351516  
     380A      2.384660   381A      2.392928   382A      2.397766  
     383A      2.415574   384A      2.417766   385A      2.424004  
     386A      2.435111   387A      2.450762   388A      2.464400  
     389A      2.482845   390A      2.496647   391A      2.511827  
     392A      2.526691   393A      2.547743   394A      2.557111  
     395A      2.564905   396A      2.602586   397A      2.630238  
     398A      2.653983   399A      2.708827   400A      2.733107  
     401A      2.748877   402A      2.754073   403A      2.772011  
     404A      2.793889   405A      2.800870   406A      2.801680  
     407A      2.813512   408A      2.839488   409A      2.840850  
     410A      2.865242   411A      2.885942   412A      2.892000  
     413A      2.898869   414A      2.921288   415A      2.935181  
     416A      2.942448   417A      2.952866   418A      2.976037  
     419A      2.993959   420A      3.009201   421A      3.016114  
     422A      3.033899   423A      3.042524   424A      3.054487  
     425A      3.074032   426A      3.076537   427A      3.084622  
     428A      3.125512   429A      3.147848   430A      3.180072  
     431A      3.186728   432A      3.208159   433A      3.216747  
     434A      3.233918   435A      3.263715   436A      3.276056  
     437A      3.303766   438A      3.314877   439A      3.392449  
     440A      3.405900   441A      3.416285   442A      3.419824  
     443A      3.429193   444A      3.441535   445A      3.444344  
     446A      3.452872   447A      3.457867   448A      3.471396  
     449A      3.486008   450A      3.490904   451A      3.524897  
     452A      3.542971   453A      3.572422   454A      3.602122  
     455A      3.640962   456A      3.644667   457A      3.678270  
     458A      3.696484   459A      3.743774   460A      3.771548  
     461A      3.782976   462A      3.793818   463A      3.865613  
     464A      3.882299   465A      3.998553   466A      4.003932  
     467A      4.007158   468A      4.049826   469A      4.126395  
     470A      4.131006   471A      4.150682   472A      4.191789  
     473A      4.233310   474A      4.324483   475A      4.358071  
     476A      4.529624   477A      4.647541   478A      4.690964  
     479A      4.878332   480A      4.882667   481A      4.917269  
     482A      5.123467   483A      5.182467   484A      5.249518  
     485A      5.414688   486A      5.938547   487A     23.493545  
     488A     23.568233   489A     23.710695   490A     23.907034  
     491A     23.978088   492A     24.002787   493A     24.007936  
     494A     24.024609   495A     24.058692   496A     24.141563  
     497A     24.166916   498A     24.171729   499A     24.214514  
     500A     24.254183   501A     24.283809   502A     24.295395  
     503A     24.308346   504A     35.640359   505A     35.649164  
     506A     35.738232   507A     50.207731  

    Final Occupation by Irrep:
              A 
    DOCC [    73 ]

  @DF-RKS Final Energy:  -896.19632158565378

   => Energetics <=

    Nuclear Repulsion Energy =           1538.0077665459864420
    One-Electron Energy =               -4269.8752236979107693
    Two-Electron Energy =                1923.4430235921806798
    DFT Exchange-Correlation Energy =     -87.7464844733841431
    Empirical Dispersion Energy =          -0.0254035525261936
    VV10 Nonlocal Energy =                  0.0000000000000000
    Total Energy =                       -896.1963215856537772

Computation Completed


Properties will be evaluated at   0.000000,   0.000000,   0.000000 [a0]

Properties computed using the SCF density matrix

  Nuclear Dipole Moment: [e a0]
     X:     2.4781      Y:     4.8228      Z:    -4.0455

  Electronic Dipole Moment: [e a0]
     X:    -3.0918      Y:    -4.0640      Z:     3.7731

  Dipole Moment: [e a0]
     X:    -0.6137      Y:     0.7588      Z:    -0.2724     Total:     1.0132

  Dipole Moment: [D]
     X:    -1.5599      Y:     1.9288      Z:    -0.6924     Total:     2.5754


*** tstop() called on node74.bme.utexas.edu at Thu Jun  9 07:44:47 2022
Module time:
	user time   =     825.52 seconds =      13.76 minutes
	system time =      38.76 seconds =       0.65 minutes
	total time  =        445 seconds =       7.42 minutes
Total time:
	user time   =     825.52 seconds =      13.76 minutes
	system time =      38.76 seconds =       0.65 minutes
	total time  =        445 seconds =       7.42 minutes


Properties will be evaluated at   0.000000,   0.000000,   0.000000 [a0]
OEProp: No title given, name of density matrix used for the following properties is 'SCF density'


  Wiberg Bond Indices using Orthogonal Lowdin Orbitals:

  Irrep: 1 Size: 36 x 36

                 1                   2                   3                   4                   5

    1     0.00000000000000     1.17665138600891     0.09588510131010     0.03405021188632     0.04133846755345
    2     1.17665138600891     0.00000000000000     1.27112266608173     0.15804635996204     0.79312971825350
    3     0.09588510131010     1.27112266608173     0.00000000000000     1.55345213556457     0.04276453022666
    4     0.03405021188632     0.15804635996204     1.55345213556457     0.00000000000000     0.00968221339960
    5     0.04133846755345     0.79312971825350     0.04276453022666     0.00968221339960     0.00000000000000
    6     0.01948501992812     0.10876900328222     1.00809740285769     0.11982243576384     0.01454182955646
    7     0.00263099140029     0.01770671034156     0.11544214622443     1.12603285873142     0.00087982383163
    8     0.00176589594740     0.00285315996016     0.01669883493041     0.13083582630473     0.00009568819651
    9     0.01502365563729     0.04679268176516     0.12740862527921     1.01747757997056     0.00105454446293
   10     0.00418355709584     0.01724315700370     0.08140695943253     0.15501536714580     0.00065070320721
   11     0.00420629431990     0.02299541612242     0.11635889275558     0.04663704375076     0.00143640794038
   12     0.00632657399668     0.04911766402988     0.11506558279078     0.03113965348147     0.01216307663963
   13     0.00057794014374     0.00294107788780     0.01616681010951     0.00483302604122     0.00059875899217
   14     0.00071772657590     0.00569690368023     0.01700790230684     0.00351218098338     0.00147800401470
   15     0.00078962744790     0.00556867898550     0.00920687877894     0.00684525463477     0.00048592078849
   16     1.39697501726214     0.13804261401725     0.02513151786144     0.00639109613832     0.01695472517910
   17     1.38623327881974     0.12446743788365     0.03982449627238     0.03198143099858     0.00769043666447
   18     0.13815588518765     0.01750905723785     0.00377142542616     0.00134292771733     0.00150270176590
   19     0.13631616802241     0.01646184085970     0.00421980021156     0.00323630764025     0.00080178783833
   20     0.11718674286327     0.01580157708572     0.00447437828754     0.00264666545279     0.00083706535644
   21     0.00014901970883     0.00019346254955     0.00150481751838     0.01123846763062     0.00000540834379
   22     0.03367452456740     0.04789738141358     0.08257373543091     0.13555768028196     0.00050129431761
   23     0.00024818269211     0.00053600411332     0.01639295600446     0.00800291955168     0.00005015526959
   24     0.00109856824379     0.01154660325273     0.01653221579495     0.00221640117374     0.00249357983703
   25     0.00005525328898     0.00020274204998     0.00121062334366     0.00025795881380     0.00004992174233
   26     0.00002418818497     0.00014320018424     0.00116866575220     0.00037672822088     0.00003069515824
   27     0.00001620197482     0.00008066638084     0.00027938438948     0.00006227984302     0.00000820147910
   28     0.05692010893848     0.02037377851430     0.00197587286387     0.00029088795794     0.00285833738508
   29     0.05316434657982     0.01289848766499     0.00942822177206     0.01109389586711     0.00013807081720
   30     0.01057605970424     0.00085374050019     0.00034966830327     0.00015346993303     0.00003186531410
   31     0.01062117102522     0.00080751293792     0.00026387878749     0.00017935583148     0.00030400407187
   32     0.02506603819618     0.00306598902599     0.00151885625845     0.00078684724198     0.00019278774426
   33     0.00009892221709     0.00013014744078     0.01079355320984     0.04666633675993     0.00005663331678
   34     0.00012237920045     0.00043653969616     0.00169532352496     0.01372974406491     0.00001830523830
   35     0.00111595892434     0.00019785819330     0.00006314024716     0.00005328017081     0.00002791331321
   36     0.00046142115673     0.00008652056070     0.00003950169655     0.00001923120515     0.00002741103056

                 6                   7                   8                   9                  10

    1     0.01948501992812     0.00263099140029     0.00176589594740     0.01502365563729     0.00418355709584
    2     0.10876900328222     0.01770671034156     0.00285315996016     0.04679268176516     0.01724315700370
    3     1.00809740285769     0.11544214622443     0.01669883493041     0.12740862527921     0.08140695943253
    4     0.11982243576384     1.12603285873142     0.13083582630473     1.01747757997056     0.15501536714580
    5     0.01454182955646     0.00087982383163     0.00009568819651     0.00105454446293     0.00065070320721
    6     0.00000000000000     0.03769668856117     0.00276939546529     0.01582502664800     0.00718770630916
    7     0.03769668856117     0.00000000000000     0.20415008717230     0.12620417283373     1.81603818548357
    8     0.00276939546529     0.20415008717230     0.00000000000000     1.30842880958290     1.27470817665388
    9     0.01582502664800     0.12620417283373     1.30842880958290     0.00000000000000     0.12798608539440
   10     0.00718770630916     1.81603818548357     1.27470817665388     0.12798608539440     0.00000000000000
   11     1.41205885392430     0.04021285492056     0.00168423598161     0.00497944729706     0.00632456299955
   12     1.40644771350107     0.00745734286374     0.00066017710425     0.00378534517717     0.00233748636229
   13     0.13350398452494     0.00729487531751     0.00028729704125     0.00064318142063     0.00085491824712
   14     0.13347133458866     0.00202297159068     0.00016373357843     0.00052595684930     0.00039127532482
   15     0.13609028043103     0.00184704664765     0.00013926346848     0.00115276748291     0.00106979764702
   16     0.00439364559021     0.00076419446299     0.00031485895761     0.00320791707543     0.00133764483346
   17     0.00675181080643     0.00340678489984     0.00277154099019     0.02780017885571     0.00361462941045
   18     0.00067584988067     0.00021135672125     0.00016218089648     0.00114447117467     0.00021880286937
   19     0.00057610660404     0.00031607340160     0.00039862231254     0.00357945809805     0.00049931555951
   20     0.00091003342113     0.00025204234976     0.00011944078414     0.00146972736074     0.00094816626543
   21     0.00043026196555     0.01069641204927     0.80898351504197     0.04246396321670     0.04211624364458
   22     0.00446926000403     0.02309877314239     0.22275785562541     2.16466521084698     0.02606676430716
   23     0.05451464311175     0.01004630778714     0.00033616606792     0.00047768700814     0.00072139197012
   24     0.05512812053585     0.00026374715887     0.00004035007712     0.00012152696129     0.00003001005255
   25     0.01065593065552     0.00012474773664     0.00001122585771     0.00005582270289     0.00008610159587
   26     0.01061979999609     0.00007800471235     0.00001509408204     0.00006359071757     0.00004565625358
   27     0.00282374903470     0.00003433733838     0.00000722070170     0.00001454439413     0.00000878250342
   28     0.00038646182742     0.00005472198372     0.00000803936890     0.00008796793892     0.00002924515668
   29     0.00081114276535     0.00139325973789     0.00073175467498     0.01192295711690     0.00085889464656
   30     0.00004823340623     0.00001942253583     0.00000465889727     0.00006574941361     0.00003387834510
   31     0.00004603696070     0.00001667487281     0.00001490264873     0.00010669664571     0.00002951755266
   32     0.00028246702638     0.00008930826096     0.00002384645502     0.00043780926413     0.00033522391867
   33     0.00933390319567     0.81096287921601     0.01103259123925     0.00924901036280     0.05982122872373
   34     0.00031498054000     0.05891959982629     0.05495281910809     0.01203320057409     0.83431124682696
   35     0.00001160044632     0.00000813749696     0.00000273052340     0.00003637516385     0.00001734175838
   36     0.00000719551055     0.00000317977990     0.00000110280332     0.00001394799486     0.00000302700691

                11                  12                  13                  14                  15

    1     0.00420629431990     0.00632657399668     0.00057794014374     0.00071772657590     0.00078962744790
    2     0.02299541612242     0.04911766402988     0.00294107788780     0.00569690368023     0.00556867898550
    3     0.11635889275558     0.11506558279078     0.01616681010951     0.01700790230684     0.00920687877894
    4     0.04663704375076     0.03113965348147     0.00483302604122     0.00351218098338     0.00684525463477
    5     0.00143640794038     0.01216307663963     0.00059875899217     0.00147800401470     0.00048592078849
    6     1.41205885392430     1.40644771350107     0.13350398452494     0.13347133458866     0.13609028043103
    7     0.04021285492056     0.00745734286374     0.00729487531751     0.00202297159068     0.00184704664765
    8     0.00168423598161     0.00066017710425     0.00028729704125     0.00016373357843     0.00013926346848
    9     0.00497944729706     0.00378534517717     0.00064318142063     0.00052595684930     0.00115276748291
   10     0.00632456299955     0.00233748636229     0.00085491824712     0.00039127532482     0.00106979764702
   11     0.00000000000000     0.12823293771618     1.51546421138993     0.14350142925078     0.13783882246911
   12     0.12823293771618     0.00000000000000     0.14538066166676     1.52630477069004     0.13789841783164
   13     1.51546421138993     0.14538066166676     0.00000000000000     0.13763871072151     1.52187975660886
   14     0.14350142925078     1.52630477069004     0.13763871072151     0.00000000000000     1.51411976277315
   15     0.13783882246911     0.13789841783164     1.52187975660886     1.51411976277315     0.00000000000000
   16     0.00083055839863     0.00212270684474     0.00022292780844     0.00019895199260     0.00051270211713
   17     0.00199526062122     0.00156840243041     0.00022209678670     0.00038034934929     0.00042773453350
   18     0.00028973607262     0.00024167584231     0.00003906715681     0.00004345501670     0.00008489384937
   19     0.00016872729729     0.00027967391686     0.00002666866603     0.00005387186334     0.00005006926109
   20     0.00045509019841     0.00033906858059     0.00004998077037     0.00006468265221     0.00023905589526
   21     0.00012886663953     0.00008068832448     0.00003314667245     0.00002991558416     0.00002638961866
   22     0.00322839053017     0.00264247504030     0.00042510914073     0.00028868432065     0.00130076426153
   23     0.80817339655766     0.00939308037008     0.05469204460950     0.00212448175474     0.01028011759082
   24     0.00971544178108     0.81189305876847     0.00222141852509     0.05577379653221     0.01046055884004
   25     0.06001763737501     0.00247670216157     0.83329646825314     0.01128224555741     0.05887040676589
   26     0.00252629722217     0.06026997856457     0.01125015831360     0.83347696340754     0.05871217416236
   27     0.01121817359334     0.01121154372355     0.05896747845158     0.05908598433725     0.83544861433340
   28     0.00003401291960     0.00041405888937     0.00001585688910     0.00001932884857     0.00002075517732
   29     0.00022502955870     0.00014023213280     0.00001479771215     0.00003511512869     0.00003844902352
   30     0.00001307816517     0.00001087531888     0.00000252183039     0.00000194514331     0.00000181376785
   31     0.00000883093345     0.00005028109088     0.00000191746252     0.00000582533104     0.00000170691475
   32     0.00017932095909     0.00012324064111     0.00001618932355     0.00002745265519     0.00010186133358
   33     0.01460325645772     0.00142087798206     0.00256184949006     0.00068934758385     0.00035983758526
   34     0.00019506284183     0.00006252661861     0.00002146817526     0.00001497906985     0.00000997124820
   35     0.00000483024928     0.00000452216975     0.00000074379901     0.00000128041896     0.00000216907784
   36     0.00000208246227     0.00000456823165     0.00000023094985     0.00000052019104     0.00000032603878

                16                  17                  18                  19                  20

    1     1.39697501726214     1.38623327881974     0.13815588518765     0.13631616802241     0.11718674286327
    2     0.13804261401725     0.12446743788365     0.01750905723785     0.01646184085970     0.01580157708572
    3     0.02513151786144     0.03982449627238     0.00377142542616     0.00421980021156     0.00447437828754
    4     0.00639109613832     0.03198143099858     0.00134292771733     0.00323630764025     0.00264666545279
    5     0.01695472517910     0.00769043666447     0.00150270176590     0.00080178783833     0.00083706535644
    6     0.00439364559021     0.00675181080643     0.00067584988067     0.00057610660404     0.00091003342113
    7     0.00076419446299     0.00340678489984     0.00021135672125     0.00031607340160     0.00025204234976
    8     0.00031485895761     0.00277154099019     0.00016218089648     0.00039862231254     0.00011944078414
    9     0.00320791707543     0.02780017885571     0.00114447117467     0.00357945809805     0.00146972736074
   10     0.00133764483346     0.00361462941045     0.00021880286937     0.00049931555951     0.00094816626543
   11     0.00083055839863     0.00199526062122     0.00028973607262     0.00016872729729     0.00045509019841
   12     0.00212270684474     0.00156840243041     0.00024167584231     0.00027967391686     0.00033906858059
   13     0.00022292780844     0.00022209678670     0.00003906715681     0.00002666866603     0.00004998077037
   14     0.00019895199260     0.00038034934929     0.00004345501670     0.00005387186334     0.00006468265221
   15     0.00051270211713     0.00042773453350     0.00008489384937     0.00005006926109     0.00023905589526
   16     0.00000000000000     0.12974855239548     1.53503501226410     0.13977569247277     0.13598380380837
   17     0.12974855239548     0.00000000000000     0.13606581033629     1.51572606130589     0.13517508525504
   18     1.53503501226410     0.13606581033629     0.00000000000000     0.13300577022857     1.39454935887981
   19     0.13977569247277     1.51572606130589     0.13300577022857     0.00000000000000     1.40447031821031
   20     0.13598380380837     0.13517508525504     1.39454935887981     1.40447031821031     0.00000000000000
   21     0.00002134400019     0.00013147979089     0.00000766095790     0.00001118725740     0.00000385615374
   22     0.00468175084689     0.05067911737750     0.00262039195975     0.00837277033334     0.00193602086673
   23     0.00002290008902     0.00020379720979     0.00001008520584     0.00000875468715     0.00001899762519
   24     0.00020146451043     0.00018886619715     0.00001100918503     0.00004606446650     0.00001232605641
   25     0.00001488610495     0.00001169612266     0.00000303834759     0.00000328569883     0.00000203202690
   26     0.00001231827581     0.00002019513278     0.00000156647832     0.00000202889878     0.00000275344020
   27     0.00000613094928     0.00000927377026     0.00000115930667     0.00000182248745     0.00000137931188
   28     0.81666550732594     0.01023189431606     0.05790403935455     0.00252353204251     0.01017403202309
   29     0.00900435879818     0.78986410960230     0.00214478661404     0.05499482244271     0.00920510201793
   30     0.05936777947413     0.00275060925944     0.82133356180306     0.01035797804146     0.05711754181349
   31     0.00262955168035     0.05848892131029     0.01049793383720     0.82113120481844     0.05770489961264
   32     0.01988123069463     0.01980513987547     0.15476697481623     0.15473612127145     1.33185087894690
   33     0.00004133722363     0.00011643983901     0.00001431528596     0.00001764472138     0.00000879131913
   34     0.00003452981424     0.00010093874632     0.00000695667750     0.00001910733208     0.00000525265711
   35     0.00127017643331     0.00128884334006     0.01408672925382     0.01090168108618     0.04627404715678
   36     0.00126039422431     0.00132605181205     0.00979189873517     0.01463480287151     0.04666336050720

                21                  22                  23                  24                  25

    1     0.00014901970883     0.03367452456740     0.00024818269211     0.00109856824379     0.00005525328898
    2     0.00019346254955     0.04789738141358     0.00053600411332     0.01154660325273     0.00020274204998
    3     0.00150481751838     0.08257373543091     0.01639295600446     0.01653221579495     0.00121062334366
    4     0.01123846763062     0.13555768028196     0.00800291955168     0.00221640117374     0.00025795881380
    5     0.00000540834379     0.00050129431761     0.00005015526959     0.00249357983703     0.00004992174233
    6     0.00043026196555     0.00446926000403     0.05451464311175     0.05512812053585     0.01065593065552
    7     0.01069641204927     0.02309877314239     0.01004630778714     0.00026374715887     0.00012474773664
    8     0.80898351504197     0.22275785562541     0.00033616606792     0.00004035007712     0.00001122585771
    9     0.04246396321670     2.16466521084698     0.00047768700814     0.00012152696129     0.00005582270289
   10     0.04211624364458     0.02606676430716     0.00072139197012     0.00003001005255     0.00008610159587
   11     0.00012886663953     0.00322839053017     0.80817339655766     0.00971544178108     0.06001763737501
   12     0.00008068832448     0.00264247504030     0.00939308037008     0.81189305876847     0.00247670216157
   13     0.00003314667245     0.00042510914073     0.05469204460950     0.00222141852509     0.83329646825314
   14     0.00002991558416     0.00028868432065     0.00212448175474     0.05577379653221     0.01128224555741
   15     0.00002638961866     0.00130076426153     0.01028011759082     0.01046055884004     0.05887040676589
   16     0.00002134400019     0.00468175084689     0.00002290008902     0.00020146451043     0.00001488610495
   17     0.00013147979089     0.05067911737750     0.00020379720979     0.00018886619715     0.00001169612266
   18     0.00000766095790     0.00262039195975     0.00001008520584     0.00001100918503     0.00000303834759
   19     0.00001118725740     0.00837277033334     0.00000875468715     0.00004606446650     0.00000328569883
   20     0.00000385615374     0.00193602086673     0.00001899762519     0.00001232605641     0.00000203202690
   21     0.00000000000000     0.01064588968828     0.00001248670831     0.00000218366112     0.00000108035012
   22     0.01064588968828     0.00000000000000     0.00013934703461     0.00005799353272     0.00004432889975
   23     0.00001248670831     0.00013934703461     0.00000000000000     0.00034435491026     0.00517700396396
   24     0.00000218366112     0.00005799353272     0.00034435491026     0.00000000000000     0.00025963634898
   25     0.00000108035012     0.00004432889975     0.00517700396396     0.00025963634898     0.00000000000000
   26     0.00000097659337     0.00003661685468     0.00024659637344     0.00533151296909     0.00025181577448
   27     0.00000036971719     0.00000443983542     0.00024236115787     0.00022377919262     0.00521181709124
   28     0.00000066905660     0.00004987995986     0.00000761690325     0.00002722985065     0.00000159314319
   29     0.00000309786982     0.01139714109606     0.00002817581572     0.00005941956582     0.00000218807804
   30     0.00000012107410     0.00003329063239     0.00000113864098     0.00000342538080     0.00000061942193
   31     0.00000230186730     0.00011169384176     0.00000204882987     0.00000691158672     0.00000028695836
   32     0.00000078550729     0.00043836244780     0.00000665558399     0.00000457843425     0.00000033918804
   33     0.00046670387432     0.00199089402339     0.00149977212889     0.00000139904941     0.00004525993915
   34     0.00278510690051     0.00176821894519     0.00002050596460     0.00000850537640     0.00000404560735
   35     0.00000006744051     0.00002245352413     0.00000017213447     0.00000068729425     0.00000012850416
   36     0.00000006780767     0.00001191047388     0.00000019330390     0.00000023377859     0.00000004322359

                26                  27                  28                  29                  30

    1     0.00002418818497     0.00001620197482     0.05692010893848     0.05316434657982     0.01057605970424
    2     0.00014320018424     0.00008066638084     0.02037377851430     0.01289848766499     0.00085374050019
    3     0.00116866575220     0.00027938438948     0.00197587286387     0.00942822177206     0.00034966830327
    4     0.00037672822088     0.00006227984302     0.00029088795794     0.01109389586711     0.00015346993303
    5     0.00003069515824     0.00000820147910     0.00285833738508     0.00013807081720     0.00003186531410
    6     0.01061979999609     0.00282374903470     0.00038646182742     0.00081114276535     0.00004823340623
    7     0.00007800471235     0.00003433733838     0.00005472198372     0.00139325973789     0.00001942253583
    8     0.00001509408204     0.00000722070170     0.00000803936890     0.00073175467498     0.00000465889727
    9     0.00006359071757     0.00001454439413     0.00008796793892     0.01192295711690     0.00006574941361
   10     0.00004565625358     0.00000878250342     0.00002924515668     0.00085889464656     0.00003387834510
   11     0.00252629722217     0.01121817359334     0.00003401291960     0.00022502955870     0.00001307816517
   12     0.06026997856457     0.01121154372355     0.00041405888937     0.00014023213280     0.00001087531888
   13     0.01125015831360     0.05896747845158     0.00001585688910     0.00001479771215     0.00000252183039
   14     0.83347696340754     0.05908598433725     0.00001932884857     0.00003511512869     0.00000194514331
   15     0.05871217416236     0.83544861433340     0.00002075517732     0.00003844902352     0.00000181376785
   16     0.00001231827581     0.00000613094928     0.81666550732594     0.00900435879818     0.05936777947413
   17     0.00002019513278     0.00000927377026     0.01023189431606     0.78986410960230     0.00275060925944
   18     0.00000156647832     0.00000115930667     0.05790403935455     0.00214478661404     0.82133356180306
   19     0.00000202889878     0.00000182248745     0.00252353204251     0.05499482244271     0.01035797804146
   20     0.00000275344020     0.00000137931188     0.01017403202309     0.00920510201793     0.05711754181349
   21     0.00000097659337     0.00000036971719     0.00000066905660     0.00000309786982     0.00000012107410
   22     0.00003661685468     0.00000443983542     0.00004987995986     0.01139714109606     0.00003329063239
   23     0.00024659637344     0.00024236115787     0.00000761690325     0.00002817581572     0.00000113864098
   24     0.00533151296909     0.00022377919262     0.00002722985065     0.00005941956582     0.00000342538080
   25     0.00025181577448     0.00521181709124     0.00000159314319     0.00000218807804     0.00000061942193
   26     0.00000000000000     0.00520061247493     0.00000243890272     0.00000159415745     0.00000017794657
   27     0.00520061247493     0.00000000000000     0.00000177414681     0.00000193272843     0.00000011068254
   28     0.00000243890272     0.00000177414681     0.00000000000000     0.00044243030035     0.00545377087274
   29     0.00000159415745     0.00000193272843     0.00044243030035     0.00000000000000     0.00015054003246
   30     0.00000017794657     0.00000011068254     0.00545377087274     0.00015054003246     0.00000000000000
   31     0.00000018930451     0.00000016239705     0.00018987220005     0.00553755591425     0.00043031207175
   32     0.00000098438328     0.00000028970526     0.00081274459785     0.00080635374570     0.01705257445689
   33     0.00000387791922     0.00001014864718     0.00000386726049     0.00000392005773     0.00000025297287
   34     0.00000147200365     0.00000063078750     0.00000242045706     0.00000116488682     0.00000087693856
   35     0.00000003285633     0.00000003744708     0.00006102466201     0.00029912494514     0.00103435428435
   36     0.00000004614954     0.00000004001064     0.00040400339450     0.00004917022331     0.00045541635782

                31                  32                  33                  34                  35

    1     0.01062117102522     0.02506603819618     0.00009892221709     0.00012237920045     0.00111595892434
    2     0.00080751293792     0.00306598902599     0.00013014744078     0.00043653969616     0.00019785819330
    3     0.00026387878749     0.00151885625845     0.01079355320984     0.00169532352496     0.00006314024716
    4     0.00017935583148     0.00078684724198     0.04666633675993     0.01372974406491     0.00005328017081
    5     0.00030400407187     0.00019278774426     0.00005663331678     0.00001830523830     0.00002791331321
    6     0.00004603696070     0.00028246702638     0.00933390319567     0.00031498054000     0.00001160044632
    7     0.00001667487281     0.00008930826096     0.81096287921601     0.05891959982629     0.00000813749696
    8     0.00001490264873     0.00002384645502     0.01103259123925     0.05495281910809     0.00000273052340
    9     0.00010669664571     0.00043780926413     0.00924901036280     0.01203320057409     0.00003637516385
   10     0.00002951755266     0.00033522391867     0.05982122872373     0.83431124682696     0.00001734175838
   11     0.00000883093345     0.00017932095909     0.01460325645772     0.00019506284183     0.00000483024928
   12     0.00005028109088     0.00012324064111     0.00142087798206     0.00006252661861     0.00000452216975
   13     0.00000191746252     0.00001618932355     0.00256184949006     0.00002146817526     0.00000074379901
   14     0.00000582533104     0.00002745265519     0.00068934758385     0.00001497906985     0.00000128041896
   15     0.00000170691475     0.00010186133358     0.00035983758526     0.00000997124820     0.00000216907784
   16     0.00262955168035     0.01988123069463     0.00004133722363     0.00003452981424     0.00127017643331
   17     0.05848892131029     0.01980513987547     0.00011643983901     0.00010093874632     0.00128884334006
   18     0.01049793383720     0.15476697481623     0.00001431528596     0.00000695667750     0.01408672925382
   19     0.82113120481844     0.15473612127145     0.00001764472138     0.00001910733208     0.01090168108618
   20     0.05770489961264     1.33185087894690     0.00000879131913     0.00000525265711     0.04627404715678
   21     0.00000230186730     0.00000078550729     0.00046670387432     0.00278510690051     0.00000006744051
   22     0.00011169384176     0.00043836244780     0.00199089402339     0.00176821894519     0.00002245352413
   23     0.00000204882987     0.00000665558399     0.00149977212889     0.00002050596460     0.00000017213447
   24     0.00000691158672     0.00000457843425     0.00000139904941     0.00000850537640     0.00000068729425
   25     0.00000028695836     0.00000033918804     0.00004525993915     0.00000404560735     0.00000012850416
   26     0.00000018930451     0.00000098438328     0.00000387791922     0.00000147200365     0.00000003285633
   27     0.00000016239705     0.00000028970526     0.00001014864718     0.00000063078750     0.00000003744708
   28     0.00018987220005     0.00081274459785     0.00000386726049     0.00000242045706     0.00006102466201
   29     0.00553755591425     0.00080635374570     0.00000392005773     0.00000116488682     0.00029912494514
   30     0.00043031207175     0.01705257445689     0.00000025297287     0.00000087693856     0.00103435428435
   31     0.00000000000000     0.01710002105789     0.00000243272245     0.00000056086635     0.00035482606904
   32     0.01710002105789     0.00000000000000     0.00000085532960     0.00000048000375     0.86125023821726
   33     0.00000243272245     0.00000085532960     0.00000000000000     0.00268403464218     0.00000015484557
   34     0.00000056086635     0.00000048000375     0.00268403464218     0.00000000000000     0.00000015594465
   35     0.00035482606904     0.86125023821726     0.00000015484557     0.00000015594465     0.00000000000000
   36     0.00151707867373     0.86347655644120     0.00000011621303     0.00000019445105     0.01118362461107

                36

    1     0.00046142115673
    2     0.00008652056070
    3     0.00003950169655
    4     0.00001923120515
    5     0.00002741103056
    6     0.00000719551055
    7     0.00000317977990
    8     0.00000110280332
    9     0.00001394799486
   10     0.00000302700691
   11     0.00000208246227
   12     0.00000456823165
   13     0.00000023094985
   14     0.00000052019104
   15     0.00000032603878
   16     0.00126039422431
   17     0.00132605181205
   18     0.00979189873517
   19     0.01463480287151
   20     0.04666336050720
   21     0.00000006780767
   22     0.00001191047388
   23     0.00000019330390
   24     0.00000023377859
   25     0.00000004322359
   26     0.00000004614954
   27     0.00000004001064
   28     0.00040400339450
   29     0.00004917022331
   30     0.00045541635782
   31     0.00151707867373
   32     0.86347655644120
   33     0.00000011621303
   34     0.00000019445105
   35     0.01118362461107
   36     0.00000000000000



  Atomic Valences: 

 #  #
 Irrep: 1
      1:    4.771911886010506
      2:    4.090367744927549
      3:    4.809296501605745
      4:    4.673666060115758
      5:    0.954880988246639
      6:    4.718957908626526
      7:    4.426376721391072
      8:    4.047931098501402
      9:    5.076305692688449
     10:    4.466531051508056
     11:    4.495944491672373
     12:    4.477067641494616
     13:    4.452147350899281
     14:    4.450151839667005
     15:    4.451882647391613
     16:    4.453059799925513
     17:    4.491068752317287
     18:    4.437251546342504
     19:    4.437725142227335
     20:    4.776953555012662
     21:    0.932178014785151
     22:    2.844190415404921
     23:    0.983982498730179
     24:    0.986326978882021
     25:    0.989688912693687
     26:    0.989919001821565
     27:    0.990185434326020
     28:    0.988449775429558
     29:    0.986891644090983
     30:    0.987711432736816
     31:    0.988167078687230
     32:    3.474239403009266
     33:    0.984692592795437
     34:    0.984283305556810
     35:    0.949576442002760
     36:    0.951445469882603


    Psi4 stopped on: Thursday, 09 June 2022 07:44AM
    Psi4 wall time for execution: 0:07:25.63

*** Psi4 exiting successfully. Buy a developer a beer!
