
    -----------------------------------------------------------------------
          Psi4: An Open-Source Ab Initio Electronic Structure Package
                               Psi4 1.5 release

                         Git: Rev {HEAD} e9f4d6d 


    D. G. A. Smith, L. A. Burns, A. C. Simmonett, R. M. Parrish,
    M. C. Schieber, R. Galvelis, P. Kraus, H. Kruse, R. Di Remigio,
    A. Alenaizan, A. M. James, S. Lehtola, J. P. Misiewicz, M. Scheurer,
    R. A. Shaw, J. B. Schriber, Y. Xie, Z. L. Glick, D. A. Sirianni,
    J. S. O'Brien, J. M. Waldrop, A. Kumar, E. G. Hohenstein,
    B. P. Pritchard, B. R. Brooks, H. F. Schaefer III, A. Yu. Sokolov,
    K. Patkowski, A. E. DePrince III, U. Bozkaya, R. A. King,
    F. A. Evangelista, J. M. Turney, T. D. Crawford, C. D. Sherrill,
    J. Chem. Phys. 152(18) 184108 (2020). https://doi.org/10.1063/5.0006002

                            Additional Code Authors
    E. T. Seidl, C. L. Janssen, E. F. Valeev, M. L. Leininger,
    J. F. Gonthier, R. M. Richard, H. R. McAlexander, M. Saitow, X. Wang,
    P. Verma, M. H. Lechner, and A. Jiang

             Previous Authors, Complete List of Code Contributors,
                       and Citations for Specific Modules
    https://github.com/psi4/psi4/blob/master/codemeta.json
    https://github.com/psi4/psi4/graphs/contributors
    http://psicode.org/psi4manual/master/introduction.html#citing-psifour

    -----------------------------------------------------------------------


    Psi4 started on: Thursday, 09 June 2022 08:00AM

    Process ID: 1301809
    Host:       node74.bme.utexas.edu
    PSIDATADIR: /home/bdw2292/miniconda3/envs/newamoebamdpoltype/share/psi4
    Memory:     500.0 MiB
    Threads:    1
    
  ==> Input File <==

--------------------------------------------------------------------------
molecule { 
0 1
 C    1.870116   -0.100052   -0.408219
 N    0.589671    0.277418   -0.892786
 C   -0.625928    0.339553   -0.252787
 C   -0.807018    0.290596    1.106236
 H    0.570017    0.558294   -1.859178
 C   -1.758925    0.431596   -1.214614
 C    0.160745    0.541323    2.176360
 N   -1.817366    0.070932    3.133373
 C   -2.096611   -0.012713    1.772504
 C   -0.478958    0.413863    3.357016
 C   -2.752481    1.401162   -1.054712
 C   -1.815889   -0.431854   -2.314192
 C   -3.781425    1.509089   -1.981395
 C   -2.852773   -0.328472   -3.238018
 C   -3.835093    0.644469   -3.074349
 C    3.002036    0.483821   -0.980313
 C    2.043960   -1.140200    0.509314
 C    4.278588    0.079963   -0.611578
 C    3.318077   -1.544862    0.880742
 C    4.459894   -0.945500    0.326913
 H   -2.513182   -0.109453    3.830099
 O   -3.212242   -0.331244    1.314718
 H   -2.714647    2.060839   -0.199989
 H   -1.064766   -1.203096   -2.426474
 H   -4.546885    2.260818   -1.848010
 H   -2.898143   -1.011743   -4.075082
 H   -4.642101    0.725897   -3.789901
 H    2.884152    1.283794   -1.700909
 H    1.182305   -1.631006    0.935830
 H    5.141768    0.570242   -1.042641
 H    3.430291   -2.348176    1.597972
 N    5.736027   -1.318085    0.733798
 H    1.185690    0.836165    2.051472
 H   -0.107076    0.562936    4.355336
 H    6.504270   -1.219260    0.097709
 H    5.833012   -2.034673    1.428259
}
memory 8.166666666666666GB
set_num_threads(2)
psi4_io.set_default_path("/scratch/bdw2292/Psi4-1_7_Index_0_GrowFragment_0-farH_in17")
set freeze_core True
E, wfn = energy('wb97x-d/6-311+G*',return_wfn=True)
oeprop(wfn,"WIBERG_LOWDIN_INDICES")
clean()
--------------------------------------------------------------------------

  Memory set to   7.606 GiB by Python driver.
  Threads set to 2 by Python driver.

Scratch directory: /scratch/bdw2292/Psi4-1_7_Index_0_GrowFragment_0-farH_in17/

Scratch directory: /scratch/bdw2292/Psi4-1_7_Index_0_GrowFragment_0-farH_in17/

*** tstart() called on node74.bme.utexas.edu
*** at Thu Jun  9 08:00:12 2022

   => Loading Basis Set <=

    Name: 6-311+G*
    Role: ORBITAL
    Keyword: BASIS
    atoms 1, 3-4, 6-7, 9-20   entry C          line   130 file /home/bdw2292/miniconda3/envs/newamoebamdpoltype/share/psi4/basis/6-311pgs.gbs 
    atoms 2, 8, 32            entry N          line   151 file /home/bdw2292/miniconda3/envs/newamoebamdpoltype/share/psi4/basis/6-311pgs.gbs 
    atoms 5, 21, 23-31, 33-36 entry H          line    47 file /home/bdw2292/miniconda3/envs/newamoebamdpoltype/share/psi4/basis/6-311pgs.gbs 
    atoms 22                  entry O          line   172 file /home/bdw2292/miniconda3/envs/newamoebamdpoltype/share/psi4/basis/6-311pgs.gbs 

   => WB97X-D: Empirical Dispersion <=

    Chai and Head-Gordon Dispersion Correction
    Chai, J.-D.; Head-Gordon, M. (2010), J. Chem. Phys., 132: 6615-6620

        s6 =       1.000000


         ---------------------------------------------------------
                                   SCF
               by Justin Turney, Rob Parrish, Andy Simmonett
                          and Daniel G. A. Smith
                              RKS Reference
                        2 Threads,   7788 MiB Core
         ---------------------------------------------------------

  ==> Geometry <==

    Molecular point group: c1
    Full point group: C1

    Geometry (in Angstrom), charge = 0, multiplicity = 1:

       Center              X                  Y                   Z               Mass       
    ------------   -----------------  -----------------  -----------------  -----------------
         C            1.870116107579    -0.100052022941    -0.408219083912    12.000000000000
         N            0.589671107579     0.277417977059    -0.892786083912    14.003074004430
         C           -0.625927892421     0.339552977059    -0.252787083912    12.000000000000
         C           -0.807017892421     0.290595977059     1.106235916088    12.000000000000
         H            0.570017107579     0.558293977059    -1.859178083912     1.007825032230
         C           -1.758924892421     0.431595977059    -1.214614083912    12.000000000000
         C            0.160745107579     0.541322977059     2.176359916088    12.000000000000
         N           -1.817365892421     0.070931977059     3.133372916088    14.003074004430
         C           -2.096610892421    -0.012713022941     1.772503916088    12.000000000000
         C           -0.478957892421     0.413862977059     3.357015916088    12.000000000000
         C           -2.752480892421     1.401161977059    -1.054712083912    12.000000000000
         C           -1.815888892421    -0.431854022941    -2.314192083912    12.000000000000
         C           -3.781424892421     1.509088977059    -1.981395083912    12.000000000000
         C           -2.852772892421    -0.328472022941    -3.238018083912    12.000000000000
         C           -3.835092892421     0.644468977059    -3.074349083912    12.000000000000
         C            3.002036107579     0.483820977059    -0.980313083912    12.000000000000
         C            2.043960107579    -1.140200022941     0.509313916088    12.000000000000
         C            4.278588107579     0.079962977059    -0.611578083912    12.000000000000
         C            3.318077107579    -1.544862022941     0.880741916088    12.000000000000
         C            4.459894107579    -0.945500022941     0.326912916088    12.000000000000
         H           -2.513181892421    -0.109453022941     3.830098916088     1.007825032230
         O           -3.212241892421    -0.331244022941     1.314717916088    15.994914619570
         H           -2.714646892421     2.060838977059    -0.199989083912     1.007825032230
         H           -1.064765892421    -1.203096022941    -2.426474083912     1.007825032230
         H           -4.546884892421     2.260817977059    -1.848010083912     1.007825032230
         H           -2.898142892421    -1.011743022941    -4.075082083912     1.007825032230
         H           -4.642100892421     0.725896977059    -3.789901083912     1.007825032230
         H            2.884152107579     1.283793977059    -1.700909083912     1.007825032230
         H            1.182305107579    -1.631006022941     0.935829916088     1.007825032230
         H            5.141768107579     0.570241977059    -1.042641083912     1.007825032230
         H            3.430291107579    -2.348176022941     1.597971916088     1.007825032230
         N            5.736027107579    -1.318085022941     0.733797916088    14.003074004430
         H            1.185690107579     0.836164977059     2.051471916088     1.007825032230
         H           -0.107075892421     0.562935977059     4.355335916088     1.007825032230
         H            6.504270107579    -1.219260022941     0.097708916088     1.007825032230
         H            5.833012107579    -2.034673022941     1.428258916088     1.007825032230

  Running in c1 symmetry.

  Rotational constants: A =      0.01715  B =      0.00650  C =      0.00504 [cm^-1]
  Rotational constants: A =    514.10943  B =    194.80085  C =    151.10236 [MHz]
  Nuclear repulsion = 1536.524525353398531

  Charge       = 0
  Multiplicity = 1
  Electrons    = 146
  Nalpha       = 73
  Nbeta        = 73

  ==> Algorithm <==

  SCF Algorithm Type is DF.
  DIIS enabled.
  MOM disabled.
  Fractional occupation disabled.
  Guess Type is SAD.
  Energy threshold   = 1.00e-06
  Density threshold  = 1.00e-06
  Integral threshold = 1.00e-12

  ==> Primary Basis <==

  Basis Set: 6-311+G*
    Blend: 6-311+G*
    Number of shells: 255
    Number of basis functions: 507
    Number of Cartesian functions: 528
    Spherical Harmonics?: true
    Max angular momentum: 2

  ==> DFT Potential <==

   => LibXC <=

    Version 5.1.5
    S. Lehtola, C. Steigemann, M. J. Oliveira, and M. A. Marques, SoftwareX 7, 1 (2018) (10.1016/j.softx.2017.11.002)

   => Composite Functional: WB97X-D <= 

    wB97X-D Hyb-GGA Exchange-Correlation Functional

    J.-D. Chai and M. Head-Gordon, Phys. Chem. Chem. Phys. 10, 6615 (2008) (10.1039/B810189B)

    Deriv               =              1
    GGA                 =           TRUE
    Meta                =          FALSE

    Exchange Hybrid     =           TRUE
    MP2 Hybrid          =          FALSE

   => Exchange-Correlation Functionals <=

    1.0000   wB97X-D range-separated functional

   => Exact (HF) Exchange <=

    0.7780            HF,LR [omega = 0.2000]
    0.2220               HF 

   => LibXC Density Thresholds  <==

    XC_HYB_GGA_XC_WB97X_D:  1.00E-14 

   => Molecular Quadrature <=

    Radial Scheme          =       TREUTLER
    Pruning Scheme         =           NONE
    Nuclear Scheme         =       TREUTLER

    BS radius alpha        =              1
    Pruning alpha          =              1
    Radial Points          =             75
    Spherical Points       =            302
    Total Points           =         745765
    Total Blocks           =           5306
    Max Points             =            256
    Max Functions          =            382
    Weights Tolerance      =       1.00E-15

   => Loading Basis Set <=

    Name: (6-311+G* AUX)
    Role: JKFIT
    Keyword: DF_BASIS_SCF
    atoms 1, 3-4, 6-7, 9-20   entry C          line   200 file /home/bdw2292/miniconda3/envs/newamoebamdpoltype/share/psi4/basis/heavy-aug-cc-pvtz-jkfit.gbs 
    atoms 2, 8, 32            entry N          line   262 file /home/bdw2292/miniconda3/envs/newamoebamdpoltype/share/psi4/basis/heavy-aug-cc-pvtz-jkfit.gbs 
    atoms 5, 21, 23-31, 33-36 entry H          line   116 file /home/bdw2292/miniconda3/envs/newamoebamdpoltype/share/psi4/basis/heavy-aug-cc-pvtz-jkfit.gbs 
    atoms 22                  entry O          line   324 file /home/bdw2292/miniconda3/envs/newamoebamdpoltype/share/psi4/basis/heavy-aug-cc-pvtz-jkfit.gbs 

  ==> Integral Setup <==

  ==> DiskDFJK: Density-Fitted J/K Matrices <==

    J tasked:                  Yes
    K tasked:                  Yes
    wK tasked:                 Yes
    Omega:               2.000E-01
    OpenMP threads:              2
    Integrals threads:           2
    Memory [MiB]:             2213
    Algorithm:                Disk
    Integral Cache:           NONE
    Schwarz Cutoff:          1E-12
    Fitting Condition:       1E-10

   => Auxiliary Basis Set <=

  Basis Set: (6-311+G* AUX)
    Blend: HEAVY-AUG-CC-PVTZ-JKFIT
    Number of shells: 780
    Number of basis functions: 2634
    Number of Cartesian functions: 3276
    Spherical Harmonics?: true
    Max angular momentum: 4

  Cached 50.0% of DFT collocation blocks in 2.923 [GiB].

  Minimum eigenvalue in the overlap matrix is 4.7494216576E-07.
  Reciprocal condition number of the overlap matrix is 2.8461746912E-08.
    Using symmetric orthogonalization.

  ==> Pre-Iterations <==

  SCF Guess: Superposition of Atomic Densities via on-the-fly atomic UHF (no occupation information).

   -------------------------
    Irrep   Nso     Nmo    
   -------------------------
     A        507     507 
   -------------------------
    Total     507     507
   -------------------------

  ==> Iterations <==

                           Total Energy        Delta E     RMS |[F,P]|

   @DF-RKS iter SAD:  -895.71929942194413   -8.95719e+02   0.00000e+00 
   @DF-RKS iter   1:  -895.29717736486191    4.22122e-01   2.68290e-03 DIIS
   @DF-RKS iter   2:  -895.67840871586054   -3.81231e-01   2.20033e-03 DIIS
   @DF-RKS iter   3:  -896.18911234648476   -5.10704e-01   4.50510e-04 DIIS
   @DF-RKS iter   4:  -896.20660637855383   -1.74940e-02   1.62200e-04 DIIS
   @DF-RKS iter   5:  -896.20919393121608   -2.58755e-03   4.07343e-05 DIIS
   @DF-RKS iter   6:  -896.20937796424028   -1.84033e-04   1.31240e-05 DIIS
   @DF-RKS iter   7:  -896.20940212808375   -2.41638e-05   4.07085e-06 DIIS
   @DF-RKS iter   8:  -896.20940519128339   -3.06320e-06   1.72157e-06 DIIS
   @DF-RKS iter   9:  -896.20940615721941   -9.65936e-07   7.23701e-07 DIIS
  Energy and wave function converged.


  ==> Post-Iterations <==

   Electrons on quadrature grid:
      Ntotal   =  145.9998957732 ; deviation = -1.042e-04 

    Orbital Energies [Eh]
    ---------------------

    Doubly Occupied:                                                      

       1A    -19.187922     2A    -14.477162     3A    -14.452681  
       4A    -14.445200     5A    -10.370850     6A    -10.357494  
       7A    -10.339267     8A    -10.332053     9A    -10.313304  
      10A    -10.302502    11A    -10.298950    12A    -10.294586  
      13A    -10.293317    14A    -10.292287    15A    -10.291793  
      16A    -10.290553    17A    -10.289448    18A    -10.289065  
      19A    -10.286719    20A    -10.279894    21A    -10.269928  
      22A     -1.110542    23A     -1.070890    24A     -1.036461  
      25A     -1.031458    26A     -0.967777    27A     -0.947890  
      28A     -0.898092    29A     -0.865783    30A     -0.858843  
      31A     -0.849745    32A     -0.832660    33A     -0.810336  
      34A     -0.759912    35A     -0.730110    36A     -0.716740  
      37A     -0.700195    38A     -0.699070    39A     -0.673099  
      40A     -0.652266    41A     -0.639386    42A     -0.624301  
      43A     -0.614171    44A     -0.603713    45A     -0.591245  
      46A     -0.562159    47A     -0.551121    48A     -0.539286  
      49A     -0.537291    50A     -0.529022    51A     -0.520142  
      52A     -0.517862    53A     -0.513011    54A     -0.508491  
      55A     -0.504522    56A     -0.491674    57A     -0.484122  
      58A     -0.479549    59A     -0.470016    60A     -0.458680  
      61A     -0.453712    62A     -0.436072    63A     -0.429868  
      64A     -0.427202    65A     -0.398912    66A     -0.393142  
      67A     -0.344394    68A     -0.340342    69A     -0.333827  
      70A     -0.327750    71A     -0.313262    72A     -0.280318  
      73A     -0.248849  

    Virtual:                                                              

      74A      0.003940    75A      0.044365    76A      0.052228  
      77A      0.056091    78A      0.059069    79A      0.062453  
      80A      0.066167    81A      0.070391    82A      0.077288  
      83A      0.078904    84A      0.084943    85A      0.087076  
      86A      0.090042    87A      0.094639    88A      0.102047  
      89A      0.106702    90A      0.110383    91A      0.116873  
      92A      0.120551    93A      0.123502    94A      0.126071  
      95A      0.130752    96A      0.133670    97A      0.140032  
      98A      0.142531    99A      0.143846   100A      0.151008  
     101A      0.154096   102A      0.158675   103A      0.169032  
     104A      0.173430   105A      0.174116   106A      0.178954  
     107A      0.180291   108A      0.189289   109A      0.191934  
     110A      0.193967   111A      0.195479   112A      0.198216  
     113A      0.200743   114A      0.205115   115A      0.208581  
     116A      0.212904   117A      0.213676   118A      0.217707  
     119A      0.220047   120A      0.223332   121A      0.225129  
     122A      0.228223   123A      0.231828   124A      0.233010  
     125A      0.235022   126A      0.237068   127A      0.239776  
     128A      0.246176   129A      0.249675   130A      0.253815  
     131A      0.257281   132A      0.259540   133A      0.261489  
     134A      0.263255   135A      0.264688   136A      0.269321  
     137A      0.270821   138A      0.277312   139A      0.278682  
     140A      0.279352   141A      0.281425   142A      0.283863  
     143A      0.287189   144A      0.289262   145A      0.290678  
     146A      0.296012   147A      0.298204   148A      0.301428  
     149A      0.303234   150A      0.307538   151A      0.310663  
     152A      0.312229   153A      0.313168   154A      0.320490  
     155A      0.322325   156A      0.324016   157A      0.327282  
     158A      0.331718   159A      0.335473   160A      0.339771  
     161A      0.341625   162A      0.349139   163A      0.352243  
     164A      0.354095   165A      0.358710   166A      0.359560  
     167A      0.366856   168A      0.369599   169A      0.374921  
     170A      0.378273   171A      0.381482   172A      0.383930  
     173A      0.386751   174A      0.393709   175A      0.396964  
     176A      0.401693   177A      0.406607   178A      0.408716  
     179A      0.416845   180A      0.422088   181A      0.423882  
     182A      0.430705   183A      0.431297   184A      0.438022  
     185A      0.443246   186A      0.450477   187A      0.451502  
     188A      0.460471   189A      0.466246   190A      0.466952  
     191A      0.473529   192A      0.482309   193A      0.488437  
     194A      0.499112   195A      0.510453   196A      0.514609  
     197A      0.544806   198A      0.552436   199A      0.565419  
     200A      0.577804   201A      0.595659   202A      0.606408  
     203A      0.610014   204A      0.612665   205A      0.619621  
     206A      0.625731   207A      0.627008   208A      0.637115  
     209A      0.647158   210A      0.647570   211A      0.650569  
     212A      0.655562   213A      0.657757   214A      0.661801  
     215A      0.665201   216A      0.675586   217A      0.684107  
     218A      0.689040   219A      0.696714   220A      0.701071  
     221A      0.712966   222A      0.717413   223A      0.720194  
     224A      0.730396   225A      0.739966   226A      0.749410  
     227A      0.755447   228A      0.756457   229A      0.760491  
     230A      0.762955   231A      0.767643   232A      0.775768  
     233A      0.781007   234A      0.785878   235A      0.792226  
     236A      0.795423   237A      0.802332   238A      0.806466  
     239A      0.809347   240A      0.812002   241A      0.817174  
     242A      0.819817   243A      0.827459   244A      0.836183  
     245A      0.838446   246A      0.845323   247A      0.850185  
     248A      0.853594   249A      0.859700   250A      0.863224  
     251A      0.871320   252A      0.883874   253A      0.892255  
     254A      0.901384   255A      0.906681   256A      0.914971  
     257A      0.920191   258A      0.922598   259A      0.927395  
     260A      0.934981   261A      0.936672   262A      0.945447  
     263A      0.950623   264A      0.954035   265A      0.955723  
     266A      0.964994   267A      0.972654   268A      0.975966  
     269A      0.986649   270A      0.994221   271A      1.007994  
     272A      1.012801   273A      1.024727   274A      1.028126  
     275A      1.037014   276A      1.047172   277A      1.050243  
     278A      1.054293   279A      1.066404   280A      1.070787  
     281A      1.086825   282A      1.093881   283A      1.103013  
     284A      1.114949   285A      1.126493   286A      1.133262  
     287A      1.144575   288A      1.154457   289A      1.162822  
     290A      1.175286   291A      1.189990   292A      1.195366  
     293A      1.215806   294A      1.223116   295A      1.229042  
     296A      1.241754   297A      1.254883   298A      1.265523  
     299A      1.286450   300A      1.289148   301A      1.297551  
     302A      1.308298   303A      1.314560   304A      1.319637  
     305A      1.323767   306A      1.329041   307A      1.348629  
     308A      1.367941   309A      1.376175   310A      1.381759  
     311A      1.395591   312A      1.413622   313A      1.426495  
     314A      1.451540   315A      1.454497   316A      1.463510  
     317A      1.468607   318A      1.520551   319A      1.548135  
     320A      1.559005   321A      1.585387   322A      1.595933  
     323A      1.610235   324A      1.621178   325A      1.632438  
     326A      1.646150   327A      1.662849   328A      1.669032  
     329A      1.684805   330A      1.693489   331A      1.714547  
     332A      1.724177   333A      1.734229   334A      1.770585  
     335A      1.793859   336A      1.820141   337A      1.839126  
     338A      1.853400   339A      1.859782   340A      1.870526  
     341A      1.873137   342A      1.883605   343A      1.893080  
     344A      1.899219   345A      1.911663   346A      1.920154  
     347A      1.928974   348A      1.934201   349A      1.942620  
     350A      1.952847   351A      1.955014   352A      1.970466  
     353A      1.984864   354A      1.991731   355A      2.010101  
     356A      2.018132   357A      2.024330   358A      2.030289  
     359A      2.035148   360A      2.058823   361A      2.068108  
     362A      2.083844   363A      2.090327   364A      2.098171  
     365A      2.112341   366A      2.126478   367A      2.147362  
     368A      2.163991   369A      2.169831   370A      2.171331  
     371A      2.190228   372A      2.221152   373A      2.255338  
     374A      2.281621   375A      2.294542   376A      2.320182  
     377A      2.326013   378A      2.343316   379A      2.365682  
     380A      2.379488   381A      2.390132   382A      2.401180  
     383A      2.406598   384A      2.415463   385A      2.420552  
     386A      2.434866   387A      2.447139   388A      2.456494  
     389A      2.476995   390A      2.489921   391A      2.510724  
     392A      2.532926   393A      2.537294   394A      2.544027  
     395A      2.575597   396A      2.595519   397A      2.621448  
     398A      2.669337   399A      2.691712   400A      2.702752  
     401A      2.756170   402A      2.759207   403A      2.778314  
     404A      2.792522   405A      2.801151   406A      2.816924  
     407A      2.823861   408A      2.830453   409A      2.840630  
     410A      2.884598   411A      2.897657   412A      2.901654  
     413A      2.908974   414A      2.918396   415A      2.929486  
     416A      2.945144   417A      2.952016   418A      2.971957  
     419A      2.989562   420A      3.000731   421A      3.017155  
     422A      3.030618   423A      3.035954   424A      3.049792  
     425A      3.066408   426A      3.083154   427A      3.104704  
     428A      3.147144   429A      3.160499   430A      3.184958  
     431A      3.193417   432A      3.196082   433A      3.210483  
     434A      3.245175   435A      3.285994   436A      3.288980  
     437A      3.311653   438A      3.322339   439A      3.410689  
     440A      3.419619   441A      3.423062   442A      3.427365  
     443A      3.434309   444A      3.439687   445A      3.448895  
     446A      3.451744   447A      3.461905   448A      3.476676  
     449A      3.485504   450A      3.509698   451A      3.535520  
     452A      3.558438   453A      3.572393   454A      3.601393  
     455A      3.648610   456A      3.666956   457A      3.679470  
     458A      3.692653   459A      3.750006   460A      3.780411  
     461A      3.785117   462A      3.795065   463A      3.878938  
     464A      3.933311   465A      3.982409   466A      4.007213  
     467A      4.010368   468A      4.046680   469A      4.107087  
     470A      4.136844   471A      4.139696   472A      4.147167  
     473A      4.207559   474A      4.313613   475A      4.355239  
     476A      4.549392   477A      4.655120   478A      4.683767  
     479A      4.866866   480A      4.894906   481A      4.898371  
     482A      5.137292   483A      5.242441   484A      5.246353  
     485A      5.411588   486A      5.931344   487A     23.502799  
     488A     23.566593   489A     23.718632   490A     23.933150  
     491A     23.980921   492A     23.987862   493A     24.014186  
     494A     24.039742   495A     24.044804   496A     24.145736  
     497A     24.158683   498A     24.190779   499A     24.195815  
     500A     24.257158   501A     24.273134   502A     24.296199  
     503A     24.305507   504A     35.626727   505A     35.651158  
     506A     35.725726   507A     50.218575  

    Final Occupation by Irrep:
              A 
    DOCC [    73 ]

  @DF-RKS Final Energy:  -896.20940615721941

   => Energetics <=

    Nuclear Repulsion Energy =           1536.5245253533985306
    One-Electron Energy =               -4266.9589739699658821
    Two-Electron Energy =                1922.0061879560116722
    DFT Exchange-Correlation Energy =     -87.7553145557101573
    Empirical Dispersion Energy =          -0.0258309409537063
    VV10 Nonlocal Energy =                  0.0000000000000000
    Total Energy =                       -896.2094061572195187

Computation Completed


Properties will be evaluated at   0.000000,   0.000000,   0.000000 [a0]

Properties computed using the SCF density matrix

  Nuclear Dipole Moment: [e a0]
     X:     7.7006      Y:    -0.6535      Z:    -2.4824

  Electronic Dipole Moment: [e a0]
     X:    -5.6183      Y:     0.6005      Z:     2.2222

  Dipole Moment: [e a0]
     X:     2.0823      Y:    -0.0530      Z:    -0.2602     Total:     2.0992

  Dipole Moment: [D]
     X:     5.2927      Y:    -0.1348      Z:    -0.6615     Total:     5.3355


*** tstop() called on node74.bme.utexas.edu at Thu Jun  9 08:07:36 2022
Module time:
	user time   =     833.81 seconds =      13.90 minutes
	system time =      30.07 seconds =       0.50 minutes
	total time  =        444 seconds =       7.40 minutes
Total time:
	user time   =     833.81 seconds =      13.90 minutes
	system time =      30.07 seconds =       0.50 minutes
	total time  =        444 seconds =       7.40 minutes


Properties will be evaluated at   0.000000,   0.000000,   0.000000 [a0]
OEProp: No title given, name of density matrix used for the following properties is 'SCF density'


  Wiberg Bond Indices using Orthogonal Lowdin Orbitals:

  Irrep: 1 Size: 36 x 36

                 1                   2                   3                   4                   5

    1     0.00000000000000     1.16736675502543     0.09851206718024     0.02982272032980     0.04003415482122
    2     1.16736675502543     0.00000000000000     1.34378645520731     0.17028342381342     0.78359628976935
    3     0.09851206718024     1.34378645520731     0.00000000000000     1.47001826778305     0.04389874274622
    4     0.02982272032980     0.17028342381342     1.47001826778305     0.00000000000000     0.00840736453738
    5     0.04003415482122     0.78359628976935     0.04389874274622     0.00840736453738     0.00000000000000
    6     0.01705495837639     0.12184247220498     1.01320310006853     0.11256386886555     0.01627049559117
    7     0.03215515507839     0.03111068275085     0.11107664460742     1.12817609875158     0.00077018220172
    8     0.00160126782725     0.00312544227784     0.01702326167595     0.13254438106302     0.00027206179926
    9     0.00363175267227     0.03189682356927     0.12999211151971     1.05303668258868     0.00100761854964
   10     0.00631170986452     0.01824775535767     0.07419814861760     0.15869239410572     0.00040428985658
   11     0.00323347453918     0.02338245002400     0.11917771100165     0.04731960775737     0.00182909474353
   12     0.00767303534803     0.06399603124273     0.11787434469397     0.02676490761528     0.00986553339160
   13     0.00068219847644     0.00335893248640     0.01712970670673     0.00472463783573     0.00067841501231
   14     0.00076834049470     0.00646976732546     0.01687096859829     0.00337439299958     0.00098066143444
   15     0.00092063357911     0.00580539976338     0.01101752437481     0.00731855142899     0.00066813986338
   16     1.40626046475114     0.13665606785054     0.02450980461678     0.00983926733470     0.01316612869181
   17     1.38278906126145     0.11652631243664     0.03726478024305     0.03338975953852     0.00848719578685
   18     0.13964192174865     0.01710063495127     0.00352269281423     0.00162189427819     0.00109811660251
   19     0.13684900354274     0.01682843485544     0.00438924099644     0.00389503824315     0.00090101791020
   20     0.11850089917026     0.01208925404455     0.00482836839028     0.00436971110538     0.00102234702727
   21     0.00008616775315     0.00037391661592     0.00149845828295     0.01124796198493     0.00001840676118
   22     0.00149178168748     0.01717113038250     0.07407899753859     0.14413547218442     0.00050033312116
   23     0.00012112129773     0.00089970042931     0.01679038535029     0.00912160699309     0.00003812277150
   24     0.00203804045180     0.01421684912230     0.01697039964763     0.00215265601210     0.00098032465010
   25     0.00007673311167     0.00031974287063     0.00118773511028     0.00016465471863     0.00002879609186
   26     0.00002996118370     0.00013206506441     0.00116257463185     0.00040111680475     0.00002605284312
   27     0.00001756445581     0.00008531413908     0.00028192494429     0.00007383828955     0.00000506216151
   28     0.05684326187731     0.01969788231025     0.00196371648081     0.00039677071333     0.00133594472219
   29     0.05311067220853     0.01346377326158     0.00776889821050     0.01088226873890     0.00009622011398
   30     0.01059969358103     0.00085143214467     0.00033079471583     0.00006673705480     0.00002972549526
   31     0.01061091277625     0.00080880841016     0.00021316054513     0.00022299074432     0.00027537144857
   32     0.02757129824369     0.00237398621831     0.00180989088729     0.00129820411757     0.00038241784122
   33     0.01223370062097     0.00416560778915     0.01004244651111     0.04546724510474     0.00001462196476
   34     0.00024126657861     0.00018557743602     0.00168183191464     0.01375710797143     0.00001819997619
   35     0.00110960347988     0.00016145663690     0.00009901094729     0.00007274449607     0.00001070036965
   36     0.00044019719462     0.00008395915815     0.00003623851701     0.00001464391008     0.00001954695655

                 6                   7                   8                   9                  10

    1     0.01705495837639     0.03215515507839     0.00160126782725     0.00363175267227     0.00631170986452
    2     0.12184247220498     0.03111068275085     0.00312544227784     0.03189682356927     0.01824775535767
    3     1.01320310006853     0.11107664460742     0.01702326167595     0.12999211151971     0.07419814861760
    4     0.11256386886555     1.12817609875158     0.13254438106302     1.05303668258868     0.15869239410572
    5     0.01627049559117     0.00077018220172     0.00027206179926     0.00100761854964     0.00040428985658
    6     0.00000000000000     0.01444055777256     0.00310044290344     0.03109898574281     0.00530557737715
    7     0.01444055777256     0.00000000000000     0.20256407859241     0.12803547626051     1.80378148300615
    8     0.00310044290344     0.20256407859241     0.00000000000000     1.30667456055490     1.27557708906279
    9     0.03109898574281     0.12803547626051     1.30667456055490     0.00000000000000     0.12957340931081
   10     0.00530557737715     1.80378148300615     1.27557708906279     0.12957340931081     0.00000000000000
   11     1.39412042321374     0.00451736818758     0.00283102462800     0.02853455868732     0.00445795732359
   12     1.40827059307295     0.00268730729504     0.00064680574876     0.00755247272831     0.00330609387239
   13     0.13464675234313     0.00058347601345     0.00061716293861     0.00466099314121     0.00052384885351
   14     0.13387882431939     0.00051320820930     0.00021801131565     0.00164506486671     0.00040688149097
   15     0.13455597579793     0.00070307684928     0.00020296731770     0.00238020624866     0.00171220122441
   16     0.00279100038876     0.00763837576555     0.00038263994506     0.00195534418872     0.00246063493291
   17     0.00355380051303     0.05149092283509     0.00252164000326     0.00608366125568     0.01229024739465
   18     0.00054803562484     0.00275325690799     0.00034911753432     0.00029109502979     0.00081382360731
   19     0.00046120226940     0.01293271551282     0.00082058210204     0.00079120990054     0.00374004473748
   20     0.00033224562617     0.00243214930163     0.00016964048835     0.00125989988024     0.00167135441479
   21     0.00028121076451     0.01091663691946     0.80988664365366     0.04228879030259     0.04207726603153
   22     0.04119670342342     0.02271856477238     0.22187756116029     2.13135406327523     0.02578616914773
   23     0.05441886190950     0.00094891460348     0.00042297287237     0.00784532462009     0.00059588774421
   24     0.05481368398294     0.00015911776054     0.00003187927001     0.00033186931808     0.00008949512844
   25     0.01085450547129     0.00002323048472     0.00000761953789     0.00010049011662     0.00001597894879
   26     0.01062806326375     0.00006081723782     0.00001204481727     0.00011013173015     0.00006755736886
   27     0.00289511705391     0.00001526281564     0.00000303043858     0.00002412859560     0.00000775253839
   28     0.00024174578380     0.00015057857147     0.00001225521651     0.00005091949463     0.00005722246257
   29     0.00057532487851     0.01208252886371     0.00057015129279     0.00131303612991     0.00274506757817
   30     0.00005834404604     0.00003953607745     0.00000337599189     0.00001565000497     0.00001296948507
   31     0.00005117246673     0.00036394637130     0.00000934489791     0.00003772589706     0.00005641341420
   32     0.00010749757048     0.00044298207189     0.00002781637191     0.00050379809214     0.00057551036961
   33     0.00037490054784     0.80304513807608     0.01087330350763     0.00887763653677     0.05847501368740
   34     0.00051410722620     0.05895200540112     0.05508799619467     0.01207475600855     0.83432549584859
   35     0.00001138601055     0.00003641786625     0.00000150053211     0.00001630331516     0.00003428665520
   36     0.00000746538935     0.00002037490731     0.00000077504319     0.00000295069791     0.00000456433734

                11                  12                  13                  14                  15

    1     0.00323347453918     0.00767303534803     0.00068219847644     0.00076834049470     0.00092063357911
    2     0.02338245002400     0.06399603124273     0.00335893248640     0.00646976732546     0.00580539976338
    3     0.11917771100165     0.11787434469397     0.01712970670673     0.01687096859829     0.01101752437481
    4     0.04731960775737     0.02676490761528     0.00472463783573     0.00337439299958     0.00731855142899
    5     0.00182909474353     0.00986553339160     0.00067841501231     0.00098066143444     0.00066813986338
    6     1.39412042321374     1.40827059307295     0.13464675234313     0.13387882431939     0.13455597579793
    7     0.00451736818758     0.00268730729504     0.00058347601345     0.00051320820930     0.00070307684928
    8     0.00283102462800     0.00064680574876     0.00061716293861     0.00021801131565     0.00020296731770
    9     0.02853455868732     0.00755247272831     0.00466099314121     0.00164506486671     0.00238020624866
   10     0.00445795732359     0.00330609387239     0.00052384885351     0.00040688149097     0.00171220122441
   11     0.00000000000000     0.12804106077167     1.52369553195774     0.14341694293621     0.13926932019176
   12     0.12804106077167     0.00000000000000     0.14251192970783     1.51566628806321     0.13860745398533
   13     1.52369553195774     0.14251192970783     0.00000000000000     0.13700476062344     1.50977627999494
   14     0.14341694293621     1.51566628806321     0.13700476062344     0.00000000000000     1.52280033352087
   15     0.13926932019176     0.13860745398533     1.50977627999494     1.52280033352087     0.00000000000000
   16     0.00065695336721     0.00173959206568     0.00015092841827     0.00024001275890     0.00023017972953
   17     0.00103551469921     0.00245878941525     0.00020124030409     0.00037066770482     0.00037463323865
   18     0.00013658675670     0.00027331306027     0.00003604162684     0.00003220912859     0.00004024033756
   19     0.00018586031403     0.00035374957221     0.00003274295519     0.00004554423642     0.00008711551178
   20     0.00017838218213     0.00053002315283     0.00004284840007     0.00010171822933     0.00010543929213
   21     0.00016832741354     0.00005985831278     0.00002423616764     0.00001519896874     0.00001473884484
   22     0.04656292699077     0.01226062734721     0.01345675598988     0.00378714956826     0.00399811621764
   23     0.80332990531268     0.00924655140247     0.05425573417033     0.00207335189629     0.01022158113649
   24     0.00949007018647     0.80940523285144     0.00222943682932     0.05524675929543     0.01041790742703
   25     0.06032894873410     0.00248231409119     0.83293460554087     0.01118311605585     0.05892236307622
   26     0.00249670709243     0.06017033823616     0.01127128143607     0.83402937638526     0.05899830036712
   27     0.01114649341443     0.01128997297822     0.05876116381889     0.05911522722758     0.83604868255121
   28     0.00004543220706     0.00011601004078     0.00001230726652     0.00000892695975     0.00001755243884
   29     0.00013812499485     0.00018334640207     0.00003041944639     0.00001636714328     0.00003456513754
   30     0.00001710406552     0.00002015648589     0.00000325369000     0.00000338466691     0.00000222248409
   31     0.00001898090531     0.00003031286590     0.00000279298744     0.00000583129620     0.00000448053458
   32     0.00006888822408     0.00024085957069     0.00001754355838     0.00004028242893     0.00005362409519
   33     0.00013612137473     0.00010494729945     0.00003333688512     0.00003875089805     0.00001886090300
   34     0.00017642389978     0.00012340136492     0.00004481986059     0.00003695666008     0.00003759654403
   35     0.00000544818203     0.00001141461180     0.00000135259162     0.00000149296662     0.00000245099285
   36     0.00000148733065     0.00000348659684     0.00000042197450     0.00000039141644     0.00000032699926

                16                  17                  18                  19                  20

    1     1.40626046475114     1.38278906126145     0.13964192174865     0.13684900354274     0.11850089917026
    2     0.13665606785054     0.11652631243664     0.01710063495127     0.01682843485544     0.01208925404455
    3     0.02450980461678     0.03726478024305     0.00352269281423     0.00438924099644     0.00482836839028
    4     0.00983926733470     0.03338975953852     0.00162189427819     0.00389503824315     0.00436971110538
    5     0.01316612869181     0.00848719578685     0.00109811660251     0.00090101791020     0.00102234702727
    6     0.00279100038876     0.00355380051303     0.00054803562484     0.00046120226940     0.00033224562617
    7     0.00763837576555     0.05149092283509     0.00275325690799     0.01293271551282     0.00243214930163
    8     0.00038263994506     0.00252164000326     0.00034911753432     0.00082058210204     0.00016964048835
    9     0.00195534418872     0.00608366125568     0.00029109502979     0.00079120990054     0.00125989988024
   10     0.00246063493291     0.01229024739465     0.00081382360731     0.00374004473748     0.00167135441479
   11     0.00065695336721     0.00103551469921     0.00013658675670     0.00018586031403     0.00017838218213
   12     0.00173959206568     0.00245878941525     0.00027331306027     0.00035374957221     0.00053002315283
   13     0.00015092841827     0.00020124030409     0.00003604162684     0.00003274295519     0.00004284840007
   14     0.00024001275890     0.00037066770482     0.00003220912859     0.00004554423642     0.00010171822933
   15     0.00023017972953     0.00037463323865     0.00004024033756     0.00008711551178     0.00010543929213
   16     0.00000000000000     0.12870022553287     1.53161598249038     0.13546300710566     0.13543208783322
   17     0.12870022553287     0.00000000000000     0.13528986679639     1.53187939948640     0.13532182557161
   18     1.53161598249038     0.13528986679639     0.00000000000000     0.13243817604606     1.39416172017802
   19     0.13546300710566     1.53187939948640     0.13243817604606     0.00000000000000     1.38830539624182
   20     0.13543208783322     0.13532182557161     1.39416172017802     1.38830539624182     0.00000000000000
   21     0.00001548259854     0.00004861807953     0.00000886831207     0.00002177694804     0.00000295254554
   22     0.00171590257561     0.00245500757856     0.00017744388653     0.00039381828956     0.00129159160015
   23     0.00005184397475     0.00009551048105     0.00000994015131     0.00002571182261     0.00001415567253
   24     0.00030511815467     0.00055067142189     0.00001615762134     0.00001656919777     0.00005440240300
   25     0.00002433534388     0.00002478267254     0.00000445605321     0.00000268309557     0.00000332858783
   26     0.00001038766216     0.00001278009008     0.00000195656834     0.00000220614542     0.00000162785390
   27     0.00000642796772     0.00000782698870     0.00000124764215     0.00000135219910     0.00000208017746
   28     0.81711361921726     0.01014748435114     0.05794836517063     0.00248619442214     0.01021672206135
   29     0.00878920712680     0.79408465789125     0.00208572937623     0.05476684293224     0.00936941987129
   30     0.05915337601103     0.00268047864242     0.82093048894243     0.01031970291268     0.05716674267268
   31     0.00254203520735     0.05881954981106     0.01033672996444     0.82003580404805     0.05737288029433
   32     0.02100635659299     0.02090703444983     0.15710649739889     0.15496750391751     1.34785498161773
   33     0.00258026704662     0.01453504316729     0.00092030953521     0.00362669376848     0.00077407111972
   34     0.00002819824991     0.00027553825070     0.00000551360595     0.00003029685126     0.00000631450086
   35     0.00124133772749     0.00128961455006     0.01394549214650     0.01089565707536     0.04673530581098
   36     0.00127526278706     0.00134269582270     0.00982210270020     0.01460338093497     0.04698764713251

                21                  22                  23                  24                  25

    1     0.00008616775315     0.00149178168748     0.00012112129773     0.00203804045180     0.00007673311167
    2     0.00037391661592     0.01717113038250     0.00089970042931     0.01421684912230     0.00031974287063
    3     0.00149845828295     0.07407899753859     0.01679038535029     0.01697039964763     0.00118773511028
    4     0.01124796198493     0.14413547218442     0.00912160699309     0.00215265601210     0.00016465471863
    5     0.00001840676118     0.00050033312116     0.00003812277150     0.00098032465010     0.00002879609186
    6     0.00028121076451     0.04119670342342     0.05441886190950     0.05481368398294     0.01085450547129
    7     0.01091663691946     0.02271856477238     0.00094891460348     0.00015911776054     0.00002323048472
    8     0.80988664365366     0.22187756116029     0.00042297287237     0.00003187927001     0.00000761953789
    9     0.04228879030259     2.13135406327523     0.00784532462009     0.00033186931808     0.00010049011662
   10     0.04207726603153     0.02578616914773     0.00059588774421     0.00008949512844     0.00001597894879
   11     0.00016832741354     0.04656292699077     0.80332990531268     0.00949007018647     0.06032894873410
   12     0.00005985831278     0.01226062734721     0.00924655140247     0.80940523285144     0.00248231409119
   13     0.00002423616764     0.01345675598988     0.05425573417033     0.00222943682932     0.83293460554087
   14     0.00001519896874     0.00378714956826     0.00207335189629     0.05524675929543     0.01118311605585
   15     0.00001473884484     0.00399811621764     0.01022158113649     0.01041790742703     0.05892236307622
   16     0.00001548259854     0.00171590257561     0.00005184397475     0.00030511815467     0.00002433534388
   17     0.00004861807953     0.00245500757856     0.00009551048105     0.00055067142189     0.00002478267254
   18     0.00000886831207     0.00017744388653     0.00000994015131     0.00001615762134     0.00000445605321
   19     0.00002177694804     0.00039381828956     0.00002571182261     0.00001656919777     0.00000268309557
   20     0.00000295254554     0.00129159160015     0.00001415567253     0.00005440240300     0.00000332858783
   21     0.00000000000000     0.01114041138744     0.00000143709900     0.00000383883712     0.00000194478688
   22     0.01114041138744     0.00000000000000     0.00640777476161     0.00021219289456     0.00016341936017
   23     0.00000143709900     0.00640777476161     0.00000000000000     0.00033252060488     0.00516742355997
   24     0.00000383883712     0.00021219289456     0.00033252060488     0.00000000000000     0.00025667689319
   25     0.00000194478688     0.00016341936017     0.00516742355997     0.00025667689319     0.00000000000000
   26     0.00000033501489     0.00006688853965     0.00024934919625     0.00516473688143     0.00024713028217
   27     0.00000023593141     0.00001511216736     0.00023967520769     0.00023996721000     0.00521705117749
   28     0.00000321995263     0.00004514175012     0.00000772529614     0.00000198552105     0.00000138882963
   29     0.00000458063557     0.00022026174421     0.00006393847978     0.00003889652730     0.00000254970215
   30     0.00000014619723     0.00000121147867     0.00000142729994     0.00000400762647     0.00000118853201
   31     0.00000149788333     0.00003058920220     0.00000052991198     0.00000079655550     0.00000024197984
   32     0.00000058518334     0.00047223536736     0.00000190153456     0.00002138226830     0.00000127932194
   33     0.00047880635519     0.00192245412569     0.00000185406661     0.00004345482611     0.00000275438426
   34     0.00271904475399     0.00178625030398     0.00000184834121     0.00000383711746     0.00000051778850
   35     0.00000008462548     0.00001590589963     0.00000018343866     0.00000070905165     0.00000008936268
   36     0.00000002322524     0.00000033986150     0.00000021246696     0.00000044405472     0.00000011408407

                26                  27                  28                  29                  30

    1     0.00002996118370     0.00001756445581     0.05684326187731     0.05311067220853     0.01059969358103
    2     0.00013206506441     0.00008531413908     0.01969788231025     0.01346377326158     0.00085143214467
    3     0.00116257463185     0.00028192494429     0.00196371648081     0.00776889821050     0.00033079471583
    4     0.00040111680475     0.00007383828955     0.00039677071333     0.01088226873890     0.00006673705480
    5     0.00002605284312     0.00000506216151     0.00133594472219     0.00009622011398     0.00002972549526
    6     0.01062806326375     0.00289511705391     0.00024174578380     0.00057532487851     0.00005834404604
    7     0.00006081723782     0.00001526281564     0.00015057857147     0.01208252886371     0.00003953607745
    8     0.00001204481727     0.00000303043858     0.00001225521651     0.00057015129279     0.00000337599189
    9     0.00011013173015     0.00002412859560     0.00005091949463     0.00131303612991     0.00001565000497
   10     0.00006755736886     0.00000775253839     0.00005722246257     0.00274506757817     0.00001296948507
   11     0.00249670709243     0.01114649341443     0.00004543220706     0.00013812499485     0.00001710406552
   12     0.06017033823616     0.01128997297822     0.00011601004078     0.00018334640207     0.00002015648589
   13     0.01127128143607     0.05876116381889     0.00001230726652     0.00003041944639     0.00000325369000
   14     0.83402937638526     0.05911522722758     0.00000892695975     0.00001636714328     0.00000338466691
   15     0.05899830036712     0.83604868255121     0.00001755243884     0.00003456513754     0.00000222248409
   16     0.00001038766216     0.00000642796772     0.81711361921726     0.00878920712680     0.05915337601103
   17     0.00001278009008     0.00000782698870     0.01014748435114     0.79408465789125     0.00268047864242
   18     0.00000195656834     0.00000124764215     0.05794836517063     0.00208572937623     0.82093048894243
   19     0.00000220614542     0.00000135219910     0.00248619442214     0.05476684293224     0.01031970291268
   20     0.00000162785390     0.00000208017746     0.01021672206135     0.00936941987129     0.05716674267268
   21     0.00000033501489     0.00000023593141     0.00000321995263     0.00000458063557     0.00000014619723
   22     0.00006688853965     0.00001511216736     0.00004514175012     0.00022026174421     0.00000121147867
   23     0.00024934919625     0.00023967520769     0.00000772529614     0.00006393847978     0.00000142729994
   24     0.00516473688143     0.00023996721000     0.00000198552105     0.00003889652730     0.00000400762647
   25     0.00024713028217     0.00521705117749     0.00000138882963     0.00000254970215     0.00000118853201
   26     0.00000000000000     0.00521393213868     0.00000191005670     0.00000106196221     0.00000016308829
   27     0.00521393213868     0.00000000000000     0.00000023774738     0.00000122024369     0.00000012187056
   28     0.00000191005670     0.00000023774738     0.00000000000000     0.00042804151335     0.00539269054182
   29     0.00000106196221     0.00000122024369     0.00042804151335     0.00000000000000     0.00015313285298
   30     0.00000016308829     0.00000012187056     0.00539269054182     0.00015313285298     0.00000000000000
   31     0.00000008881951     0.00000004016522     0.00018766280266     0.00545876412192     0.00043259673035
   32     0.00000046586397     0.00000067672527     0.00081646498404     0.00081715280676     0.01700651022463
   33     0.00000129682693     0.00000175282145     0.00002507894862     0.00187494572109     0.00000105640232
   34     0.00000121452651     0.00000048427164     0.00000118180467     0.00000973297450     0.00000056224496
   35     0.00000005825832     0.00000002937056     0.00006188838969     0.00032796436568     0.00102148152049
   36     0.00000002815894     0.00000004180871     0.00040644921395     0.00005130364003     0.00044534211579

                31                  32                  33                  34                  35

    1     0.01061091277625     0.02757129824369     0.01223370062097     0.00024126657861     0.00110960347988
    2     0.00080880841016     0.00237398621831     0.00416560778915     0.00018557743602     0.00016145663690
    3     0.00021316054513     0.00180989088729     0.01004244651111     0.00168183191464     0.00009901094729
    4     0.00022299074432     0.00129820411757     0.04546724510474     0.01375710797143     0.00007274449607
    5     0.00027537144857     0.00038241784122     0.00001462196476     0.00001819997619     0.00001070036965
    6     0.00005117246673     0.00010749757048     0.00037490054784     0.00051410722620     0.00001138601055
    7     0.00036394637130     0.00044298207189     0.80304513807608     0.05895200540112     0.00003641786625
    8     0.00000934489791     0.00002781637191     0.01087330350763     0.05508799619467     0.00000150053211
    9     0.00003772589706     0.00050379809214     0.00887763653677     0.01207475600855     0.00001630331516
   10     0.00005641341420     0.00057551036961     0.05847501368740     0.83432549584859     0.00003428665520
   11     0.00001898090531     0.00006888822408     0.00013612137473     0.00017642389978     0.00000544818203
   12     0.00003031286590     0.00024085957069     0.00010494729945     0.00012340136492     0.00001141461180
   13     0.00000279298744     0.00001754355838     0.00003333688512     0.00004481986059     0.00000135259162
   14     0.00000583129620     0.00004028242893     0.00003875089805     0.00003695666008     0.00000149296662
   15     0.00000448053458     0.00005362409519     0.00001886090300     0.00003759654403     0.00000245099285
   16     0.00254203520735     0.02100635659299     0.00258026704662     0.00002819824991     0.00124133772749
   17     0.05881954981106     0.02090703444983     0.01453504316729     0.00027553825070     0.00128961455006
   18     0.01033672996444     0.15710649739889     0.00092030953521     0.00000551360595     0.01394549214650
   19     0.82003580404805     0.15496750391751     0.00362669376848     0.00003029685126     0.01089565707536
   20     0.05737288029433     1.34785498161773     0.00077407111972     0.00000631450086     0.04673530581098
   21     0.00000149788333     0.00000058518334     0.00047880635519     0.00271904475399     0.00000008462548
   22     0.00003058920220     0.00047223536736     0.00192245412569     0.00178625030398     0.00001590589963
   23     0.00000052991198     0.00000190153456     0.00000185406661     0.00000184834121     0.00000018343866
   24     0.00000079655550     0.00002138226830     0.00004345482611     0.00000383711746     0.00000070905165
   25     0.00000024197984     0.00000127932194     0.00000275438426     0.00000051778850     0.00000008936268
   26     0.00000008881951     0.00000046586397     0.00000129682693     0.00000121452651     0.00000005825832
   27     0.00000004016522     0.00000067672527     0.00000175282145     0.00000048427164     0.00000002937056
   28     0.00018766280266     0.00081646498404     0.00002507894862     0.00000118180467     0.00006188838969
   29     0.00545876412192     0.00081715280676     0.00187494572109     0.00000973297450     0.00032796436568
   30     0.00043259673035     0.01700651022463     0.00000105640232     0.00000056224496     0.00102148152049
   31     0.00000000000000     0.01703345100006     0.00003431484897     0.00000376706658     0.00034960511158
   32     0.01703345100006     0.00000000000000     0.00003763540924     0.00000302098464     0.85880383660935
   33     0.00003431484897     0.00003763540924     0.00000000000000     0.00268402876252     0.00000056249571
   34     0.00000376706658     0.00000302098464     0.00268402876252     0.00000000000000     0.00000011193153
   35     0.00034960511158     0.85880383660935     0.00000056249571     0.00000011193153     0.00000000000000
   36     0.00149322748394     0.86114291754964     0.00000280911261     0.00000014521092     0.01131082978613

                36

    1     0.00044019719462
    2     0.00008395915815
    3     0.00003623851701
    4     0.00001464391008
    5     0.00001954695655
    6     0.00000746538935
    7     0.00002037490731
    8     0.00000077504319
    9     0.00000295069791
   10     0.00000456433734
   11     0.00000148733065
   12     0.00000348659684
   13     0.00000042197450
   14     0.00000039141644
   15     0.00000032699926
   16     0.00127526278706
   17     0.00134269582270
   18     0.00982210270020
   19     0.01460338093497
   20     0.04698764713251
   21     0.00000002322524
   22     0.00000033986150
   23     0.00000021246696
   24     0.00000044405472
   25     0.00000011408407
   26     0.00000002815894
   27     0.00000004180871
   28     0.00040644921395
   29     0.00005130364003
   30     0.00044534211579
   31     0.00149322748394
   32     0.86114291754964
   33     0.00000280911261
   34     0.00000014521092
   35     0.01131082978613
   36     0.00000000000000



  Atomic Valences: 

 #  #
 Irrep: 1
      1:    4.770431550589422
      2:    4.148460586945894
      3:    4.794210406077728
      4:    4.645638989813798
      5:    0.937137697625235
      6:    4.725069401860718
      7:    4.448338268699922
      8:    4.050070448577264
      9:    5.075049500831278
     10:    4.468401595157083
     11:    4.500151213611081
     12:    4.484568155261175
     13:    4.454137890009490
     14:    4.450407162089931
     15:    4.455369042000142
     16:    4.455747856011520
     17:    4.497306838266297
     18:    4.435086024595344
     19:    4.442595676100591
     20:    4.778709534451928
     21:    0.933411709129892
     22:    2.788910305581519
     23:    0.983004985877306
     24:    0.985842087602006
     25:    0.989754189758591
     26:    0.990574006397082
     27:    0.990720049254916
     28:    0.986243979120769
     29:    0.981560168889723
     30:    0.986766807897186
     31:    0.986846418569945
     32:    3.493516489471433
     33:    0.983450821451436
     34:    0.984819152427697
     35:    0.947576317181522
     36:    0.949522147579783


    Psi4 stopped on: Thursday, 09 June 2022 08:07AM
    Psi4 wall time for execution: 0:07:24.63

*** Psi4 exiting successfully. Buy a developer a beer!
