
    -----------------------------------------------------------------------
          Psi4: An Open-Source Ab Initio Electronic Structure Package
                               Psi4 1.5 release

                         Git: Rev {HEAD} e9f4d6d 


    D. G. A. Smith, L. A. Burns, A. C. Simmonett, R. M. Parrish,
    M. C. Schieber, R. Galvelis, P. Kraus, H. Kruse, R. Di Remigio,
    A. Alenaizan, A. M. James, S. Lehtola, J. P. Misiewicz, M. Scheurer,
    R. A. Shaw, J. B. Schriber, Y. Xie, Z. L. Glick, D. A. Sirianni,
    J. S. O'Brien, J. M. Waldrop, A. Kumar, E. G. Hohenstein,
    B. P. Pritchard, B. R. Brooks, H. F. Schaefer III, A. Yu. Sokolov,
    K. Patkowski, A. E. DePrince III, U. Bozkaya, R. A. King,
    F. A. Evangelista, J. M. Turney, T. D. Crawford, C. D. Sherrill,
    J. Chem. Phys. 152(18) 184108 (2020). https://doi.org/10.1063/5.0006002

                            Additional Code Authors
    E. T. Seidl, C. L. Janssen, E. F. Valeev, M. L. Leininger,
    J. F. Gonthier, R. M. Richard, H. R. McAlexander, M. Saitow, X. Wang,
    P. Verma, M. H. Lechner, and A. Jiang

             Previous Authors, Complete List of Code Contributors,
                       and Citations for Specific Modules
    https://github.com/psi4/psi4/blob/master/codemeta.json
    https://github.com/psi4/psi4/graphs/contributors
    http://psicode.org/psi4manual/master/introduction.html#citing-psifour

    -----------------------------------------------------------------------


    Psi4 started on: Wednesday, 08 June 2022 04:44PM

    Process ID: 1155485
    Host:       node74.bme.utexas.edu
    PSIDATADIR: /home/bdw2292/miniconda3/envs/newamoebamdpoltype/share/psi4
    Memory:     500.0 MiB
    Threads:    1
    
  ==> Input File <==

--------------------------------------------------------------------------
molecule { 
0 1
 C    1.657526   -0.399238    0.056684
 N    0.443863   -0.797552    0.681772
 C   -0.735020   -0.119185    0.706183
 C   -1.713160   -0.534182    1.611631
 H    0.367214   -1.748731    1.090732
 C   -1.128050    0.690611   -0.491851
 C   -2.630416    0.221119    2.428293
 N   -3.024433   -1.978519    2.737021
 C   -1.978893   -1.956005    1.844448
 C   -3.408230   -0.679715    3.088100
 C   -1.566736    2.029698   -0.337227
 C   -1.055298    0.137535   -1.796451
 C   -1.915733    2.794832   -1.457728
 C   -1.403910    0.908338   -2.913161
 C   -1.835338    2.240927   -2.751549
 C    2.531089   -1.404217   -0.424604
 C    1.935881    0.958789   -0.241569
 C    3.687562   -1.051895   -1.135289
 C    3.092929    1.298563   -0.957369
 C    3.999633    0.305368   -1.408552
 H   -3.423016   -2.843784    3.071723
 O   -1.377594   -2.949126    1.375900
 H   -1.624194    2.466591    0.660945
 H   -0.725238   -0.895045   -1.926764
 H   -2.247672    3.826309   -1.326502
 H   -1.339804    0.474035   -3.912243
 H   -2.105283    2.840235   -3.623016
 H    2.283032   -2.451627   -0.235678
 H    1.248178    1.734414    0.095658
 H    4.347333   -1.849493   -1.484163
 H    3.283983    2.353389   -1.167335
 N    5.172848    0.661301   -2.128210
 H   -2.703787    1.296134    2.503133
 H   -4.215253   -0.520931    3.789585
 H    5.899148   -0.037413   -1.952036
 H    5.571227    1.506971   -1.711634
}
set optking { 
  frozen_dihedral = ("
    1 2 3 4
    16 1 2 3
    2 3 6 11
    18 20 32 35
  ")
}
set {
  geom_maxiter 400
  g_convergence GAU_LOOSE
  dynamic_level 1
}
memory 8.166666666666666GB
set_num_threads(2)
psi4_io.set_default_path("/scratch/bdw2292/Psi4-1_7_Index_0_GrowFragment_0-farH_in17")
for _ in range(1):
  try:
    set opt_coordinates both
    optimize('wb97x-d/6-311G')
    break
  except OptimizationConvergenceError:
    break
  else:
    try:
      set opt_coordinates cartesian
      optimize('wb97x-d/6-311G')
      break
    except OptimizationConvergenceError:
      pass
clean()
--------------------------------------------------------------------------

  Memory set to   7.606 GiB by Python driver.
  Threads set to 2 by Python driver.

Scratch directory: /scratch/bdw2292/Psi4-1_7_Index_0_GrowFragment_0-farH_in17/

Scratch directory: /scratch/bdw2292/Psi4-1_7_Index_0_GrowFragment_0-farH_in17/
gradient() will perform analytic gradient computation.

*** tstart() called on node74.bme.utexas.edu
*** at Wed Jun  8 16:44:33 2022

   => Loading Basis Set <=

    Name: 6-311G
    Role: ORBITAL
    Keyword: BASIS
    atoms 1, 3-4, 6-7, 9-20   entry C          line    92 file /home/bdw2292/miniconda3/envs/newamoebamdpoltype/share/psi4/basis/6-311g.gbs 
    atoms 2, 8, 32            entry N          line   109 file /home/bdw2292/miniconda3/envs/newamoebamdpoltype/share/psi4/basis/6-311g.gbs 
    atoms 5, 21, 23-31, 33-36 entry H          line    21 file /home/bdw2292/miniconda3/envs/newamoebamdpoltype/share/psi4/basis/6-311g.gbs 
    atoms 22                  entry O          line   126 file /home/bdw2292/miniconda3/envs/newamoebamdpoltype/share/psi4/basis/6-311g.gbs 

   => WB97X-D: Empirical Dispersion <=

    Chai and Head-Gordon Dispersion Correction
    Chai, J.-D.; Head-Gordon, M. (2010), J. Chem. Phys., 132: 6615-6620

        s6 =       1.000000


         ---------------------------------------------------------
                                   SCF
               by Justin Turney, Rob Parrish, Andy Simmonett
                          and Daniel G. A. Smith
                              RKS Reference
                        2 Threads,   7788 MiB Core
         ---------------------------------------------------------

  ==> Geometry <==

    Molecular point group: c1
    Full point group: C1

    Geometry (in Angstrom), charge = 0, multiplicity = 1:

       Center              X                  Y                   Z               Mass       
    ------------   -----------------  -----------------  -----------------  -----------------
         C            1.696052848165    -0.380152519596     0.115344705267    12.000000000000
         N            0.482389848165    -0.778466519596     0.740432705267    14.003074004430
         C           -0.696493151835    -0.100099519596     0.764843705267    12.000000000000
         C           -1.674633151835    -0.515096519596     1.670291705267    12.000000000000
         H            0.405740848165    -1.729645519596     1.149392705267     1.007825032230
         C           -1.089523151835     0.709696480404    -0.433190294733    12.000000000000
         C           -2.591889151835     0.240204480404     2.486953705267    12.000000000000
         N           -2.985906151835    -1.959433519596     2.795681705267    14.003074004430
         C           -1.940366151835    -1.936919519596     1.903108705267    12.000000000000
         C           -3.369703151835    -0.660629519596     3.146760705267    12.000000000000
         C           -1.528209151835     2.048783480404    -0.278566294733    12.000000000000
         C           -1.016771151835     0.156620480404    -1.737790294733    12.000000000000
         C           -1.877206151835     2.813917480404    -1.399067294733    12.000000000000
         C           -1.365383151835     0.927423480404    -2.854500294733    12.000000000000
         C           -1.796811151835     2.260012480404    -2.692888294733    12.000000000000
         C            2.569615848165    -1.385131519596    -0.365943294733    12.000000000000
         C            1.974407848165     0.977874480404    -0.182908294733    12.000000000000
         C            3.726088848165    -1.032809519596    -1.076628294733    12.000000000000
         C            3.131455848165     1.317648480404    -0.898708294733    12.000000000000
         C            4.038159848165     0.324453480404    -1.349891294733    12.000000000000
         H           -3.384489151835    -2.824698519596     3.130383705267     1.007825032230
         O           -1.339067151835    -2.930040519596     1.434560705267    15.994914619570
         H           -1.585667151835     2.485676480404     0.719605705267     1.007825032230
         H           -0.686711151835    -0.875959519596    -1.868103294733     1.007825032230
         H           -2.209145151835     3.845394480404    -1.267841294733     1.007825032230
         H           -1.301277151835     0.493120480404    -3.853582294733     1.007825032230
         H           -2.066756151835     2.859320480404    -3.564355294733     1.007825032230
         H            2.321558848165    -2.432541519596    -0.177017294733     1.007825032230
         H            1.286704848165     1.753499480404     0.154318705267     1.007825032230
         H            4.385859848165    -1.830407519596    -1.425502294733     1.007825032230
         H            3.322509848165     2.372474480404    -1.108674294733     1.007825032230
         N            5.211374848165     0.680386480404    -2.069549294733    14.003074004430
         H           -2.665260151835     1.315219480404     2.561793705267     1.007825032230
         H           -4.176726151835    -0.501845519596     3.848245705267     1.007825032230
         H            5.937674848165    -0.018327519596    -1.893375294733     1.007825032230
         H            5.609753848165     1.526056480404    -1.652973294733     1.007825032230

  Running in c1 symmetry.

  Rotational constants: A =      0.01509  B =      0.00715  C =      0.00550 [cm^-1]
  Rotational constants: A =    452.24865  B =    214.43178  C =    164.91934 [MHz]
  Nuclear repulsion = 1538.835805976912525

  Charge       = 0
  Multiplicity = 1
  Electrons    = 146
  Nalpha       = 73
  Nbeta        = 73

  ==> Algorithm <==

  SCF Algorithm Type is DF.
  DIIS enabled.
  MOM disabled.
  Fractional occupation disabled.
  Guess Type is SAD.
  Energy threshold   = 1.00e-08
  Density threshold  = 1.00e-08
  Integral threshold = 1.00e-12

  ==> Primary Basis <==

  Basis Set: 6-311G
    Blend: 6-311G
    Number of shells: 192
    Number of basis functions: 318
    Number of Cartesian functions: 318
    Spherical Harmonics?: true
    Max angular momentum: 1

  ==> DFT Potential <==

   => LibXC <=

    Version 5.1.5
    S. Lehtola, C. Steigemann, M. J. Oliveira, and M. A. Marques, SoftwareX 7, 1 (2018) (10.1016/j.softx.2017.11.002)

   => Composite Functional: WB97X-D <= 

    wB97X-D Hyb-GGA Exchange-Correlation Functional

    J.-D. Chai and M. Head-Gordon, Phys. Chem. Chem. Phys. 10, 6615 (2008) (10.1039/B810189B)

    Deriv               =              1
    GGA                 =           TRUE
    Meta                =          FALSE

    Exchange Hybrid     =           TRUE
    MP2 Hybrid          =          FALSE

   => Exchange-Correlation Functionals <=

    1.0000   wB97X-D range-separated functional

   => Exact (HF) Exchange <=

    0.7780            HF,LR [omega = 0.2000]
    0.2220               HF 

   => LibXC Density Thresholds  <==

    XC_HYB_GGA_XC_WB97X_D:  1.00E-14 

   => Molecular Quadrature <=

    Radial Scheme          =       TREUTLER
    Pruning Scheme         =           NONE
    Nuclear Scheme         =       TREUTLER

    BS radius alpha        =              1
    Pruning alpha          =              1
    Radial Points          =             75
    Spherical Points       =            302
    Total Points           =         741499
    Total Blocks           =           5323
    Max Points             =            256
    Max Functions          =            230
    Weights Tolerance      =       1.00E-15

   => Loading Basis Set <=

    Name: (6-311G AUX)
    Role: JKFIT
    Keyword: DF_BASIS_SCF
    atoms 1, 3-4, 6-7, 9-20   entry C          line   125 file /home/bdw2292/miniconda3/envs/newamoebamdpoltype/share/psi4/basis/cc-pvtz-jkfit.gbs 
    atoms 2, 8, 32            entry N          line   177 file /home/bdw2292/miniconda3/envs/newamoebamdpoltype/share/psi4/basis/cc-pvtz-jkfit.gbs 
    atoms 5, 21, 23-31, 33-36 entry H          line    51 file /home/bdw2292/miniconda3/envs/newamoebamdpoltype/share/psi4/basis/cc-pvtz-jkfit.gbs 
    atoms 22                  entry O          line   229 file /home/bdw2292/miniconda3/envs/newamoebamdpoltype/share/psi4/basis/cc-pvtz-jkfit.gbs 

  ==> Integral Setup <==

  DFHelper Memory: AOs need 3.578 GiB; user supplied 3.578 GiB. Using in-core AOs.

  ==> MemDFJK: Density-Fitted J/K Matrices <==

    J tasked:                   Yes
    K tasked:                   Yes
    wK tasked:                  Yes
    Omega:                2.000E-01
    OpenMP threads:               2
    Memory [MiB]:              3663
    Algorithm:                 Core
    Schwarz Cutoff:           1E-12
    Mask sparsity (%):      26.0967
    Fitting Condition:        1E-10

   => Auxiliary Basis Set <=

  Basis Set: (6-311G AUX)
    Blend: CC-PVTZ-JKFIT
    Number of shells: 675
    Number of basis functions: 2109
    Number of Cartesian functions: 2541
    Spherical Harmonics?: true
    Max angular momentum: 4

  Cached 50.0% of DFT collocation blocks in 1.591 [GiB].

  Minimum eigenvalue in the overlap matrix is 2.6679078853E-04.
  Reciprocal condition number of the overlap matrix is 4.0007008075E-05.
    Using symmetric orthogonalization.

  ==> Pre-Iterations <==

  SCF Guess: Superposition of Atomic Densities via on-the-fly atomic UHF (no occupation information).

   -------------------------
    Irrep   Nso     Nmo    
   -------------------------
     A        318     318 
   -------------------------
    Total     318     318
   -------------------------

  ==> Iterations <==

                           Total Energy        Delta E     RMS |[F,P]|

   @DF-RKS iter SAD:  -895.23781472882422   -8.95238e+02   0.00000e+00 
   @DF-RKS iter   1:  -895.28767584943682   -4.98611e-02   3.63923e-03 DIIS
   @DF-RKS iter   2:  -895.50578744516213   -2.18112e-01   3.22679e-03 DIIS
   @DF-RKS iter   3:  -895.90138943212935   -3.95602e-01   8.45737e-04 DIIS
   @DF-RKS iter   4:  -895.92980261477646   -2.84132e-02   1.97824e-04 DIIS
   @DF-RKS iter   5:  -895.93141646804975   -1.61385e-03   7.08288e-05 DIIS
   @DF-RKS iter   6:  -895.93167617273014   -2.59705e-04   1.48541e-05 DIIS
   @DF-RKS iter   7:  -895.93170180934476   -2.56366e-05   1.00149e-05 DIIS
   @DF-RKS iter   8:  -895.93171177527131   -9.96593e-06   3.31927e-06 DIIS
   @DF-RKS iter   9:  -895.93171579924308   -4.02397e-06   2.41428e-06 DIIS
   @DF-RKS iter  10:  -895.93171670132665   -9.02084e-07   5.85121e-07 DIIS
   @DF-RKS iter  11:  -895.93171678598947   -8.46628e-08   2.84848e-07 DIIS
   @DF-RKS iter  12:  -895.93171679817908   -1.21896e-08   1.03809e-07 DIIS
   @DF-RKS iter  13:  -895.93171680068201   -2.50293e-09   4.95090e-08 DIIS
   @DF-RKS iter  14:  -895.93171680093462   -2.52612e-10   2.17045e-08 DIIS
   @DF-RKS iter  15:  -895.93171680103796   -1.03341e-10   7.46473e-09 DIIS
  Energy and wave function converged.


  ==> Post-Iterations <==

   Electrons on quadrature grid:
      Ntotal   =  145.9999090104 ; deviation = -9.099e-05 

    Orbital Energies [Eh]
    ---------------------

    Doubly Occupied:                                                      

       1A    -19.190785     2A    -14.485190     3A    -14.459752  
       4A    -14.449309     5A    -10.375086     6A    -10.373735  
       7A    -10.348493     8A    -10.347364     9A    -10.327099  
      10A    -10.311329    11A    -10.308317    12A    -10.307441  
      13A    -10.306672    14A    -10.306258    15A    -10.304606  
      16A    -10.304289    17A    -10.304206    18A    -10.303512  
      19A    -10.303469    20A    -10.278905    21A    -10.277444  
      22A     -1.129279    23A     -1.078111    24A     -1.049696  
      25A     -1.037998    26A     -0.971931    27A     -0.953349  
      28A     -0.902971    29A     -0.868476    30A     -0.860586  
      31A     -0.858433    32A     -0.844742    33A     -0.806524  
      34A     -0.765664    35A     -0.730539    36A     -0.719781  
      37A     -0.713615    38A     -0.693607    39A     -0.678720  
      40A     -0.665160    41A     -0.638614    42A     -0.621634  
      43A     -0.605107    44A     -0.595953    45A     -0.588376  
      46A     -0.573760    47A     -0.560431    48A     -0.546514  
      49A     -0.539088    50A     -0.529638    51A     -0.525046  
      52A     -0.520601    53A     -0.515982    54A     -0.509851  
      55A     -0.508276    56A     -0.498480    57A     -0.487135  
      58A     -0.484061    59A     -0.471987    60A     -0.461619  
      61A     -0.453208    62A     -0.440125    63A     -0.437763  
      64A     -0.436149    65A     -0.396202    66A     -0.389525  
      67A     -0.349396    68A     -0.342460    69A     -0.338431  
      70A     -0.325426    71A     -0.316909    72A     -0.285082  
      73A     -0.234500  

    Virtual:                                                              

      74A     -0.014707    75A      0.045630    76A      0.052358  
      77A      0.058499    78A      0.082427    79A      0.111936  
      80A      0.119638    81A      0.133710    82A      0.135751  
      83A      0.139967    84A      0.142645    85A      0.151620  
      86A      0.161629    87A      0.165310    88A      0.174723  
      89A      0.181268    90A      0.190431    91A      0.191069  
      92A      0.204212    93A      0.207700    94A      0.220242  
      95A      0.221845    96A      0.234831    97A      0.246388  
      98A      0.277017    99A      0.289246   100A      0.300110  
     101A      0.301842   102A      0.313948   103A      0.332318  
     104A      0.337267   105A      0.342801   106A      0.347472  
     107A      0.356932   108A      0.362208   109A      0.366790  
     110A      0.375207   111A      0.386658   112A      0.392117  
     113A      0.401028   114A      0.414155   115A      0.418616  
     116A      0.428647   117A      0.432395   118A      0.446418  
     119A      0.449345   120A      0.459314   121A      0.465073  
     122A      0.469219   123A      0.474841   124A      0.480312  
     125A      0.483512   126A      0.491974   127A      0.494027  
     128A      0.498450   129A      0.502264   130A      0.503513  
     131A      0.509810   132A      0.511315   133A      0.513155  
     134A      0.518847   135A      0.530891   136A      0.539722  
     137A      0.543753   138A      0.546386   139A      0.551347  
     140A      0.560873   141A      0.564763   142A      0.568727  
     143A      0.575651   144A      0.581289   145A      0.598894  
     146A      0.606713   147A      0.619284   148A      0.623334  
     149A      0.631422   150A      0.641307   151A      0.648132  
     152A      0.656076   153A      0.662179   154A      0.671521  
     155A      0.680831   156A      0.687120   157A      0.690018  
     158A      0.693589   159A      0.698861   160A      0.706626  
     161A      0.713032   162A      0.720087   163A      0.723148  
     164A      0.726566   165A      0.733448   166A      0.737166  
     167A      0.744911   168A      0.750320   169A      0.752076  
     170A      0.755234   171A      0.773796   172A      0.778990  
     173A      0.787255   174A      0.793860   175A      0.799872  
     176A      0.810162   177A      0.821939   178A      0.833880  
     179A      0.842693   180A      0.845331   181A      0.857454  
     182A      0.863974   183A      0.869329   184A      0.876026  
     185A      0.888828   186A      0.890143   187A      0.906802  
     188A      0.910102   189A      0.918742   190A      0.931810  
     191A      0.943713   192A      0.955920   193A      0.962749  
     194A      0.971710   195A      0.983931   196A      0.991268  
     197A      0.998759   198A      1.017765   199A      1.031938  
     200A      1.049899   201A      1.064861   202A      1.074755  
     203A      1.094611   204A      1.107544   205A      1.120209  
     206A      1.136303   207A      1.149553   208A      1.175025  
     209A      1.189134   210A      1.228056   211A      1.271958  
     212A      1.291607   213A      1.341402   214A      1.367428  
     215A      1.371717   216A      1.461370   217A      1.484185  
     218A      1.565745   219A      1.839739   220A      2.276341  
     221A      2.300968   222A      2.328902   223A      2.338218  
     224A      2.349827   225A      2.355593   226A      2.377866  
     227A      2.388373   228A      2.402517   229A      2.417097  
     230A      2.445430   231A      2.458402   232A      2.469905  
     233A      2.557878   234A      2.600081   235A      2.614985  
     236A      2.635390   237A      2.642267   238A      2.666596  
     239A      2.669116   240A      2.690953   241A      2.699166  
     242A      2.732307   243A      2.748475   244A      2.765308  
     245A      2.783819   246A      2.791397   247A      2.806136  
     248A      2.818175   249A      2.827454   250A      2.832620  
     251A      2.844234   252A      2.854513   253A      2.873515  
     254A      2.890887   255A      2.896624   256A      2.926136  
     257A      2.958049   258A      2.961154   259A      2.979773  
     260A      2.993434   261A      3.015310   262A      3.048879  
     263A      3.089131   264A      3.102179   265A      3.116954  
     266A      3.137441   267A      3.167064   268A      3.170978  
     269A      3.183332   270A      3.202303   271A      3.214924  
     272A      3.255585   273A      3.264617   274A      3.273622  
     275A      3.292501   276A      3.310153   277A      3.323160  
     278A      3.325572   279A      3.345812   280A      3.355273  
     281A      3.365612   282A      3.381348   283A      3.459124  
     284A      3.506163   285A      3.530819   286A      3.827686  
     287A      3.854153   288A      3.916740   289A      4.049044  
     290A      4.059217   291A      4.122406   292A      4.226517  
     293A      4.239094   294A      4.276901   295A      5.021322  
     296A      5.121983   297A      5.134327   298A     23.229226  
     299A     23.250431   300A     23.363198   301A     23.464158  
     302A     23.475221   303A     23.490348   304A     23.508105  
     305A     23.535490   306A     23.609837   307A     23.704379  
     308A     23.720833   309A     23.750391   310A     23.760369  
     311A     23.787842   312A     23.890627   313A     23.972233  
     314A     23.984826   315A     35.529460   316A     35.537672  
     317A     35.583004   318A     50.097762  

    Final Occupation by Irrep:
              A 
    DOCC [    73 ]

  @DF-RKS Final Energy:  -895.93171680103796

   => Energetics <=

    Nuclear Repulsion Energy =           1538.8358059769125248
    One-Electron Energy =               -4270.3340456573387200
    Two-Electron Energy =                1923.1991519636917474
    DFT Exchange-Correlation Energy =     -87.6068225158425093
    Empirical Dispersion Energy =          -0.0258065684609840
    VV10 Nonlocal Energy =                  0.0000000000000000
    Total Energy =                       -895.9317168010379646

Computation Completed


Properties will be evaluated at   0.000000,   0.000000,   0.000000 [a0]

Properties computed using the SCF density matrix

  Nuclear Dipole Moment: [e a0]
     X:     4.8547      Y:     6.0267      Z:    -4.9169

  Electronic Dipole Moment: [e a0]
     X:    -4.0038      Y:    -4.8333      Z:     4.9924

  Dipole Moment: [e a0]
     X:     0.8509      Y:     1.1934      Z:     0.0755     Total:     1.4677

  Dipole Moment: [D]
     X:     2.1629      Y:     3.0333      Z:     0.1920     Total:     3.7304


*** tstop() called on node74.bme.utexas.edu at Wed Jun  8 16:47:42 2022
Module time:
	user time   =     342.62 seconds =       5.71 minutes
	system time =      24.19 seconds =       0.40 minutes
	total time  =        189 seconds =       3.15 minutes
Total time:
	user time   =     342.62 seconds =       5.71 minutes
	system time =      24.19 seconds =       0.40 minutes
	total time  =        189 seconds =       3.15 minutes

*** tstart() called on node74.bme.utexas.edu
*** at Wed Jun  8 16:47:42 2022


         ------------------------------------------------------------
                                   SCF GRAD                          
                          Rob Parrish, Justin Turney,                
                       Andy Simmonett, and Alex Sokolov              
         ------------------------------------------------------------

  ==> Geometry <==

    Molecular point group: c1
    Full point group: C1

    Geometry (in Angstrom), charge = 0, multiplicity = 1:

       Center              X                  Y                   Z               Mass       
    ------------   -----------------  -----------------  -----------------  -----------------
         C            1.696052848165    -0.380152519596     0.115344705267    12.000000000000
         N            0.482389848165    -0.778466519596     0.740432705267    14.003074004430
         C           -0.696493151835    -0.100099519596     0.764843705267    12.000000000000
         C           -1.674633151835    -0.515096519596     1.670291705267    12.000000000000
         H            0.405740848165    -1.729645519596     1.149392705267     1.007825032230
         C           -1.089523151835     0.709696480404    -0.433190294733    12.000000000000
         C           -2.591889151835     0.240204480404     2.486953705267    12.000000000000
         N           -2.985906151835    -1.959433519596     2.795681705267    14.003074004430
         C           -1.940366151835    -1.936919519596     1.903108705267    12.000000000000
         C           -3.369703151835    -0.660629519596     3.146760705267    12.000000000000
         C           -1.528209151835     2.048783480404    -0.278566294733    12.000000000000
         C           -1.016771151835     0.156620480404    -1.737790294733    12.000000000000
         C           -1.877206151835     2.813917480404    -1.399067294733    12.000000000000
         C           -1.365383151835     0.927423480404    -2.854500294733    12.000000000000
         C           -1.796811151835     2.260012480404    -2.692888294733    12.000000000000
         C            2.569615848165    -1.385131519596    -0.365943294733    12.000000000000
         C            1.974407848165     0.977874480404    -0.182908294733    12.000000000000
         C            3.726088848165    -1.032809519596    -1.076628294733    12.000000000000
         C            3.131455848165     1.317648480404    -0.898708294733    12.000000000000
         C            4.038159848165     0.324453480404    -1.349891294733    12.000000000000
         H           -3.384489151835    -2.824698519596     3.130383705267     1.007825032230
         O           -1.339067151835    -2.930040519596     1.434560705267    15.994914619570
         H           -1.585667151835     2.485676480404     0.719605705267     1.007825032230
         H           -0.686711151835    -0.875959519596    -1.868103294733     1.007825032230
         H           -2.209145151835     3.845394480404    -1.267841294733     1.007825032230
         H           -1.301277151835     0.493120480404    -3.853582294733     1.007825032230
         H           -2.066756151835     2.859320480404    -3.564355294733     1.007825032230
         H            2.321558848165    -2.432541519596    -0.177017294733     1.007825032230
         H            1.286704848165     1.753499480404     0.154318705267     1.007825032230
         H            4.385859848165    -1.830407519596    -1.425502294733     1.007825032230
         H            3.322509848165     2.372474480404    -1.108674294733     1.007825032230
         N            5.211374848165     0.680386480404    -2.069549294733    14.003074004430
         H           -2.665260151835     1.315219480404     2.561793705267     1.007825032230
         H           -4.176726151835    -0.501845519596     3.848245705267     1.007825032230
         H            5.937674848165    -0.018327519596    -1.893375294733     1.007825032230
         H            5.609753848165     1.526056480404    -1.652973294733     1.007825032230

  Nuclear repulsion = 1538.835805976912525

  ==> Basis Set <==

  Basis Set: 6-311G
    Blend: 6-311G
    Number of shells: 192
    Number of basis functions: 318
    Number of Cartesian functions: 318
    Spherical Harmonics?: true
    Max angular momentum: 1

  ==> DFJKGrad: Density-Fitted SCF Gradients <==

    Gradient:                    1
    J tasked:                  Yes
    K tasked:                  Yes
    wK tasked:                 Yes
    Omega:               2.000E-01
    OpenMP threads:              2
    Integrals threads:           2
    Memory [MiB]:             5841
    Schwarz Cutoff:          1E-12
    Fitting Condition:       1E-10

   => Auxiliary Basis Set <=

  Basis Set: (6-311G AUX)
    Blend: CC-PVTZ-JKFIT
    Number of shells: 675
    Number of basis functions: 2109
    Number of Cartesian functions: 2541
    Spherical Harmonics?: true
    Max angular momentum: 4

  ==> DFT Potential <==

   => LibXC <=

    Version 5.1.5
    S. Lehtola, C. Steigemann, M. J. Oliveira, and M. A. Marques, SoftwareX 7, 1 (2018) (10.1016/j.softx.2017.11.002)

   => Composite Functional: WB97X-D <= 

    wB97X-D Hyb-GGA Exchange-Correlation Functional

    J.-D. Chai and M. Head-Gordon, Phys. Chem. Chem. Phys. 10, 6615 (2008) (10.1039/B810189B)

    Deriv               =              1
    GGA                 =           TRUE
    Meta                =          FALSE

    Exchange Hybrid     =           TRUE
    MP2 Hybrid          =          FALSE

   => Exchange-Correlation Functionals <=

    1.0000   wB97X-D range-separated functional

   => Exact (HF) Exchange <=

    0.7780            HF,LR [omega = 0.2000]
    0.2220               HF 

   => LibXC Density Thresholds  <==

    XC_HYB_GGA_XC_WB97X_D:  1.00E-14 

   => Molecular Quadrature <=

    Radial Scheme          =       TREUTLER
    Pruning Scheme         =           NONE
    Nuclear Scheme         =       TREUTLER

    BS radius alpha        =              1
    Pruning alpha          =              1
    Radial Points          =             75
    Spherical Points       =            302
    Total Points           =         741499
    Total Blocks           =           5323
    Max Points             =            256
    Max Functions          =            230
    Weights Tolerance      =       1.00E-15


  -Total Gradient:
     Atom            X                  Y                   Z
    ------   -----------------  -----------------  -----------------
       1        0.003277023005     0.003112281477     0.024434379460
       2        0.001684973382     0.015968594178     0.001517779848
       3        0.005730900938     0.014610056027     0.014718843000
       4       -0.002407164796     0.002501171634    -0.002574427408
       5       -0.006824529351    -0.016031705617     0.001272063715
       6       -0.006834419056    -0.033993970384    -0.003521584422
       7        0.016804578942     0.001690007283     0.012699725160
       8        0.010186745690     0.008135260132     0.000371148747
       9       -0.016124294094    -0.019319810615    -0.017035299021
      10        0.005686322299    -0.003466605317    -0.005916140231
      11        0.000035701620     0.006944155415     0.006790715888
      12       -0.002209721545    -0.000874576171    -0.009184167134
      13        0.000155060180     0.004118375446     0.004971004712
      14        0.003455390297    -0.006808820966    -0.005343514174
      15       -0.002289366744     0.004455093617    -0.006676286444
      16       -0.000055698599    -0.012554306626    -0.002761326352
      17       -0.005402330056     0.011645539744    -0.003805913890
      18        0.002735282420    -0.003925084789    -0.002137905732
      19        0.001073039751     0.006310736856    -0.000546114264
      20        0.019162744699     0.005761920376    -0.007465963744
      21       -0.001962251872    -0.007549005626     0.001298783470
      22       -0.007223277188     0.014146056470     0.006394659673
      23       -0.001016367310     0.002393156301     0.006171004512
      24        0.001171560361    -0.006829919720    -0.001732900455
      25       -0.002014805368     0.006266111636     0.000885362040
      26        0.000431231683    -0.002127018726    -0.006676136793
      27       -0.001957265797     0.003810935937    -0.005670805635
      28       -0.003217908370    -0.006334474581     0.002575141755
      29       -0.005990406001     0.003996735025     0.002751206034
      30        0.002622323612    -0.005993979352    -0.000992855542
      31       -0.000379130191     0.006876871344    -0.000229001404
      32       -0.015475208642     0.001452329493    -0.033190129051
      33       -0.000607688481     0.003537125791     0.000063304509
      34       -0.005025136033    -0.000253438511     0.000726938881
      35        0.005671435104     0.002360853487     0.014009332829
      36        0.006747987329    -0.004296359429     0.013841382158


*** tstop() called on node74.bme.utexas.edu at Wed Jun  8 16:49:03 2022
Module time:
	user time   =     149.88 seconds =       2.50 minutes
	system time =       6.28 seconds =       0.10 minutes
	total time  =         81 seconds =       1.35 minutes
Total time:
	user time   =     492.51 seconds =       8.21 minutes
	system time =      30.47 seconds =       0.51 minutes
	total time  =        270 seconds =       4.50 minutes

			-----------------------------------------
			 OPTKING 2.0: for geometry optimizations 
			  - R.A. King,  Bethel University        
			-----------------------------------------
	At level 1: Red. Int., RFO, no backsteps, dynamic trust

	Internal coordinates to be generated automatically.
	Detected frag 1 with atoms:  1 2 3 4 5 6 7 8 9 10 11 12 13 14 15 16 17 18 19 20
	 21 22 23 24 25 26 27 28 29 30 31 32 33 34 35 36
	---Fragment 1 Bond Connectivity---
	 1 : 2 16 17
	 2 : 1 3 5
	 3 : 2 4 6
	 4 : 3 7 9
	 5 : 2
	 6 : 3 11 12
	 7 : 4 10 33
	 8 : 9 10 21
	 9 : 4 8 22
	 10 : 7 8 34
	 11 : 6 13 23
	 12 : 6 14 24
	 13 : 11 15 25
	 14 : 12 15 26
	 15 : 13 14 27
	 16 : 1 18 28
	 17 : 1 19 29
	 18 : 16 20 30
	 19 : 17 20 31
	 20 : 18 19 32
	 21 : 8
	 22 : 9
	 23 : 11
	 24 : 12
	 25 : 13
	 26 : 14
	 27 : 15
	 28 : 16
	 29 : 17
	 30 : 18
	 31 : 19
	 32 : 20 35 36
	 33 : 7
	 34 : 10
	 35 : 32
	 36 : 32

	Assuming in current code that numbering for constraints corresponds to unified fragment.
	Frozen dihedral atom list: 
	     1     2     3     4
	    16     1     2     3
	     2     3     6    11
	    18    20    32    35
	---Fragment 1 Geometry and Gradient---
	 C           3.2050753773       -0.7183841479        0.2179699030
	 N           0.9115846987       -1.4710885199        1.3992150273
	 C          -1.3161813052       -0.1891606773        1.4453451317
	 C          -3.1645980176       -0.9733913502        3.1563938726
	 H           0.7667390809       -3.2685563262        2.1720374236
	 C          -2.0589003643        1.3411319802       -0.8186110173
	 C          -4.8979606445        0.4539206821        4.6996613896
	 N          -5.6425448633       -3.7027927131        5.2830727569
	 C          -3.6667606101       -3.6602474191        3.5963542399
	 C          -6.3678160811       -1.2484088624        5.9465159153
	 C          -2.8878967594        3.8716396683       -0.5264140048
	 C          -1.9214190092        0.2959698136       -3.2839477205
	 C          -3.5474055080        5.3175333776       -2.6438540181
	 C          -2.5802002133        1.7525763803       -5.3942237821
	 C          -3.3954809761        4.2708046281       -5.0888213635
	 C           4.8558702007       -2.6175192198       -0.6915326045
	 C           3.7310900930        1.8479149530       -0.3456465831
	 C           7.0412874422       -1.9517271318       -2.0345326160
	 C           5.9175939270        2.4899947576       -1.6983125437
	 C           7.6310161639        0.6131282184       -2.5509248462
	 H          -6.3957575716       -5.3379065890        5.9155678706
	 O          -2.5304701806       -5.5369741185        2.7109268433
	 H          -2.9964766431        4.6972477845        1.3598577013
	 H          -1.2976960043       -1.6553235890       -3.5302036011
	 H          -4.1746793084        7.2667424123       -2.3958728176
	 H          -2.4590574303        0.9318626548       -7.2822151390
	 H          -3.9056030951        5.4033326129       -6.7356553209
	 H           4.3871104072       -4.5968372608       -0.3345142065
	 H           2.4315197673        3.3136337791        0.2916200890
	 H           8.2880739377       -3.4589689100       -2.6938089283
	 H           6.2786336622        4.4833270076       -2.0950907794
	 N           9.8480712001        1.2857441074       -3.9108813702
	 H          -5.0366117401        2.4854046128        4.8410884929
	 H          -7.8928685280       -0.9483505893        7.2721304464
	 H          11.2205792851       -0.0346339926       -3.5779607598
	 H          10.6008984043        2.8838287999       -3.1236668197
	             0.0032770230        0.0031122815        0.0244343795
	             0.0016849734        0.0159685942        0.0015177798
	             0.0057309009        0.0146100560        0.0147188430
	            -0.0024071648        0.0025011716       -0.0025744274
	            -0.0068245294       -0.0160317056        0.0012720637
	            -0.0068344191       -0.0339939704       -0.0035215844
	             0.0168045789        0.0016900073        0.0126997252
	             0.0101867457        0.0081352601        0.0003711487
	            -0.0161242941       -0.0193198106       -0.0170352990
	             0.0056863223       -0.0034666053       -0.0059161402
	             0.0000357016        0.0069441554        0.0067907159
	            -0.0022097215       -0.0008745762       -0.0091841671
	             0.0001550602        0.0041183754        0.0049710047
	             0.0034553903       -0.0068088210       -0.0053435142
	            -0.0022893667        0.0044550936       -0.0066762864
	            -0.0000556986       -0.0125543066       -0.0027613264
	            -0.0054023301        0.0116455397       -0.0038059139
	             0.0027352824       -0.0039250848       -0.0021379057
	             0.0010730398        0.0063107369       -0.0005461143
	             0.0191627447        0.0057619204       -0.0074659637
	            -0.0019622519       -0.0075490056        0.0012987835
	            -0.0072232772        0.0141460565        0.0063946597
	            -0.0010163673        0.0023931563        0.0061710045
	             0.0011715604       -0.0068299197       -0.0017329005
	            -0.0020148054        0.0062661116        0.0008853620
	             0.0004312317       -0.0021270187       -0.0066761368
	            -0.0019572658        0.0038109359       -0.0056708056
	            -0.0032179084       -0.0063344746        0.0025751418
	            -0.0059904060        0.0039967350        0.0027512060
	             0.0026223236       -0.0059939794       -0.0009928555
	            -0.0003791302        0.0068768713       -0.0002290014
	            -0.0154752086        0.0014523295       -0.0331901291
	            -0.0006076885        0.0035371258        0.0000633045
	            -0.0050251360       -0.0002534385        0.0007269389
	             0.0056714351        0.0023608535        0.0140093328
	             0.0067479873       -0.0042963594        0.0138413822

	Previous optimization step data not found.  Starting new optimization.

	---Fragment 1 Intrafragment Coordinates---
	 - Coordinate -           - BOHR/RAD -       - ANG/DEG -
	 H(5,22)          =         4.038281	       2.136966
	 R(1,2)           =         2.687379	       1.422099
	 R(1,16)          =         2.675637	       1.415886
	 R(1,17)          =         2.679598	       1.417982
	 R(2,3)           =         2.570682	       1.360347
	 R(2,5)           =         1.961919	       1.038203
	 R(3,4)           =         2.638058	       1.396000
	 R(3,6)           =         2.831771	       1.498508
	 R(4,7)           =         2.724599	       1.441796
	 R(4,9)           =         2.768561	       1.465059
	 R(6,11)          =         2.678821	       1.417571
	 R(6,12)          =         2.681259	       1.418861
	 R(7,10)          =         2.571585	       1.360824
	 R(7,33)          =         2.041116	       1.080112
	 R(8,9)           =         2.598183	       1.374899
	 R(8,10)          =         2.643894	       1.399088
	 R(8,21)          =         1.908134	       1.009741
	 R(9,22)          =         2.365849	       1.251953
	 R(10,34)         =         2.042810	       1.081009
	 R(11,13)         =         2.647473	       1.400982
	 R(11,23)         =         2.061902	       1.091111
	 R(12,14)         =         2.647444	       1.400967
	 R(12,24)         =         2.063303	       1.091853
	 R(13,15)         =         2.663942	       1.409697
	 R(13,25)         =         2.062616	       1.091489
	 R(14,15)         =         2.664475	       1.409979
	 R(14,26)         =         2.062222	       1.091281
	 R(15,27)         =         2.062742	       1.091556
	 R(16,18)         =         2.650090	       1.402367
	 R(16,28)         =         2.065163	       1.092837
	 R(17,19)         =         2.650051	       1.402347
	 R(17,29)         =         2.059933	       1.090070
	 R(18,20)         =         2.681963	       1.419234
	 R(18,30)         =         2.064195	       1.092325
	 R(19,20)         =         2.680558	       1.418490
	 R(19,31)         =         2.064257	       1.092358
	 R(20,32)         =         2.686490	       1.421629
	 R(32,35)         =         1.933394	       1.023108
	 R(32,36)         =         1.933993	       1.023425
	 B(1,2,3)         =         2.224086	     127.430757
	 B(1,2,5)         =         2.086059	     119.522397
	 B(1,16,18)       =         2.097552	     120.180889
	 B(1,16,28)       =         2.073134	     118.781855
	 B(1,17,19)       =         2.095981	     120.090889
	 B(1,17,29)       =         2.085800	     119.507514
	 B(2,1,16)        =         2.068208	     118.499592
	 B(2,1,17)        =         2.127313	     121.886030
	 B(2,3,4)         =         2.060770	     118.073426
	 B(2,3,6)         =         2.074224	     118.844259
	 B(3,2,5)         =         1.966897	     112.694901
	 B(3,4,7)         =         2.288174	     131.102719
	 B(3,4,9)         =         2.116082	     121.242566
	 B(3,6,11)        =         2.099533	     120.294386
	 B(3,6,12)        =         2.107148	     120.730682
	 B(4,3,6)         =         2.089117	     119.697575
	 B(4,7,10)        =         1.866570	     106.946597
	 B(4,7,33)        =         2.219121	     127.146267
	 B(4,9,8)         =         1.830700	     104.891370
	 B(4,9,22)        =         2.243699	     128.554462
	 B(6,11,13)       =         2.101053	     120.381460
	 B(6,11,23)       =         2.087854	     119.625195
	 B(6,12,14)       =         2.100970	     120.376687
	 B(6,12,24)       =         2.087344	     119.595980
	 B(7,4,9)         =         1.878633	     107.637725
	 B(7,10,8)        =         1.913533	     109.637352
	 B(7,10,34)       =         2.270651	     130.098696
	 B(8,9,22)        =         2.208320	     126.527429
	 B(8,10,34)       =         2.099002	     120.263936
	 B(9,8,10)        =         1.935111	     110.873678
	 B(9,8,21)        =         2.128689	     121.964881
	 B(10,7,33)       =         2.197442	     125.904157
	 B(10,8,21)       =         2.219348	     127.159289
	 B(11,6,12)       =         2.076453	     118.971969
	 B(11,13,15)      =         2.100473	     120.348266
	 B(11,13,25)      =         2.089453	     119.716863
	 B(12,14,15)      =         2.099912	     120.316122
	 B(12,14,26)      =         2.089983	     119.747191
	 B(13,11,23)      =         2.094247	     119.991536
	 B(13,15,14)      =         2.087488	     119.604263
	 B(13,15,27)      =         2.097759	     120.192734
	 B(14,12,24)      =         2.094872	     120.027334
	 B(14,15,27)      =         2.097938	     120.203002
	 B(15,13,25)      =         2.093251	     119.934438
	 B(15,14,26)      =         2.093290	     119.936664
	 B(16,1,17)       =         2.079637	     119.154435
	 B(16,18,20)      =         2.116677	     121.276665
	 B(16,18,30)      =         2.067476	     118.457638
	 B(17,19,20)      =         2.117767	     121.339104
	 B(17,19,31)      =         2.067333	     118.449467
	 B(18,16,28)      =         2.112486	     121.036533
	 B(18,20,19)      =         2.057607	     117.892188
	 B(18,20,32)      =         2.115741	     121.223023
	 B(19,17,29)      =         2.101379	     120.400175
	 B(19,20,32)      =         2.109730	     120.878643
	 B(20,18,30)      =         2.099011	     120.264457
	 B(20,19,31)      =         2.098077	     120.210981
	 B(20,32,35)      =         1.904659	     109.128920
	 B(20,32,36)      =         1.898715	     108.788330
	 B(35,32,36)      =         1.790450	     102.585236
	*D(1,2,3,4)       =        -2.899935	    -166.154063
	 D(1,2,3,6)       =         0.604867	      34.656322
	 D(1,16,18,20)    =        -0.018596	      -1.065446
	 D(1,16,18,30)    =         3.130052	     179.338785
	 D(1,17,19,20)    =         0.010375	       0.594452
	 D(1,17,19,31)    =        -3.135457	    -179.648462
	 D(2,1,16,18)     =         3.057899	     175.204681
	 D(2,1,16,28)     =        -0.078351	      -4.489154
	 D(2,1,17,19)     =        -3.049144	    -174.703086
	 D(2,1,17,29)     =         0.099988	       5.728865
	 D(2,3,4,7)       =         2.452923	     140.542144
	 D(2,3,4,9)       =        -0.718289	     -41.154916
	*D(2,3,6,11)      =        -2.289280	    -131.166109
	 D(2,3,6,12)      =         0.841272	      48.201351
	*D(3,2,1,16)      =        -2.618978	    -150.056366
	 D(3,2,1,17)      =         0.385586	      22.092471
	 D(3,4,7,10)      =         3.098273	     177.517968
	 D(3,4,7,33)      =        -0.032808	      -1.879785
	 D(3,4,9,8)       =        -3.097765	    -177.488842
	 D(3,4,9,22)      =         0.075329	       4.316041
	 D(3,6,11,13)     =         3.125034	     179.051252
	 D(3,6,11,23)     =        -0.008019	      -0.459469
	 D(3,6,12,14)     =        -3.123448	    -178.960377
	 D(3,6,12,24)     =         0.018102	       1.037163
	 D(4,3,2,5)       =         0.362422	      20.765268
	 D(4,3,6,11)      =         1.221520	      69.987937
	 D(4,3,6,12)      =        -1.931113	    -110.644602
	 D(4,7,10,8)      =         0.006563	       0.376051
	 D(4,7,10,34)     =        -3.135852	    -179.671093
	 D(4,9,8,10)      =        -0.016836	      -0.964637
	 D(4,9,8,21)      =         3.133448	     179.533340
	 D(5,2,1,16)      =         0.394537	      22.605329
	 D(5,2,1,17)      =        -2.884084	    -165.245834
	 D(5,2,3,6)       =        -2.415961	    -138.424347
	 D(6,3,4,7)       =        -1.055067	     -60.450901
	 D(6,3,4,9)       =         2.056906	     117.852039
	 D(6,11,13,15)    =         0.000790	       0.045258
	 D(6,11,13,25)    =        -3.136621	    -179.715166
	 D(6,12,14,15)    =        -0.003868	      -0.221630
	 D(6,12,14,26)    =         3.136756	     179.722865
	 D(7,4,9,8)       =         0.020409	       1.169363
	 D(7,4,9,22)      =        -3.089682	    -177.025754
	 D(7,10,8,9)      =         0.006906	       0.395660
	 D(7,10,8,21)     =         3.139246	     179.865557
	 D(8,10,7,33)     =         3.137812	     179.783398
	 D(9,4,7,10)      =        -0.016747	      -0.959553
	 D(9,4,7,33)      =         3.135356	     179.642695
	 D(9,8,10,34)     =        -3.133958	    -179.562588
	 D(10,8,9,22)     =         3.094101	     177.278912
	 D(11,6,12,14)    =         0.007249	       0.415335
	 D(11,6,12,24)    =        -3.134387	    -179.587125
	 D(11,13,15,14)   =         0.002682	       0.153646
	 D(11,13,15,27)   =        -3.138680	    -179.833113
	 D(12,6,11,13)    =        -0.005712	      -0.327255
	 D(12,6,11,23)    =        -3.138765	    -179.837976
	 D(12,14,15,13)   =        -0.001140	      -0.065317
	 D(12,14,15,27)   =         3.140222	     179.921440
	 D(13,15,14,26)   =         3.141423	     179.990293
	 D(14,15,13,25)   =         3.140084	     179.913547
	 D(15,13,11,23)   =         3.133812	     179.554184
	 D(15,14,12,24)   =         3.137768	     179.780841
	 D(16,1,17,19)    =        -0.045450	      -2.604106
	 D(16,1,17,29)    =         3.103681	     177.827845
	 D(16,18,20,19)   =        -0.016468	      -0.943534
	 D(16,18,20,32)   =         3.140732	     179.950690
	 D(17,1,16,18)    =         0.049513	       2.836884
	 D(17,1,16,28)    =        -3.086736	    -176.856951
	 D(17,19,20,18)   =         0.020569	       1.178493
	 D(17,19,20,32)   =        -3.136575	    -179.712501
	 D(18,20,19,31)   =        -3.116711	    -178.574360
	*D(18,20,32,35)   =        -0.522747	     -29.951218
	 D(18,20,32,36)   =        -2.463531	    -141.149956
	 D(19,20,18,30)   =         3.117943	     178.644999
	 D(19,20,32,35)   =         2.634918	     150.969654
	 D(19,20,32,36)   =         0.694133	      39.770915
	 D(20,18,16,28)   =         3.117531	     178.621378
	 D(20,19,17,29)   =        -3.138824	    -179.841396
	 D(21,8,9,22)     =        -0.038801	      -2.223112
	 D(21,8,10,34)    =        -0.001618	      -0.092691
	 D(23,11,13,25)   =        -0.003600	      -0.206240
	 D(24,12,14,26)   =        -0.004794	      -0.274664
	 D(25,13,15,27)   =        -0.001278	      -0.073211
	 D(26,14,15,27)   =        -0.000401	      -0.022950
	 D(28,16,18,30)   =        -0.017006	      -0.974391
	 D(29,17,19,31)   =        -0.001471	      -0.084310
	 D(30,18,20,32)   =        -0.008042	      -0.460777
	 D(31,19,20,32)   =         0.009331	       0.534646
	 D(33,7,10,34)    =        -0.004603	      -0.263746
	 R(1,12)          =         6.290730	       3.328911
	 R(2,22)          =         5.486324	       2.903238
	 R(6,17)          =         5.831339	       3.085812
	 R(7,11)          =         6.559956	       3.471379
	 R(11,17)         =         6.923809	       3.663922
	 R(12,17)         =         6.556905	       3.469765

	Current energy   :      -895.9317168010

	Generating empirical Hessian (Schlegel '84) for each fragment.
	Taking RFO optimization step.
	Going to follow RFO solution 1.
	Using RFO vector 1.

	Determining step-restricting scale parameter for RS-RFO.
	Maximum step size allowed    0.50000

	 Iter      |step|        alpha        rfo_root  
	------------------------------------------------
	    0     0.67986       1.00000           1
	    1     0.55159       1.65190           1
	    2     0.50653       2.01429           1
	    3     0.50013       2.07431           1
	    4     0.50000       2.07555           1
	------------------------------------------------
	Norm of target step-size    0.50000
	Projected energy change by RFO approximation:        -0.0212746027

	Back-transformation to cartesian coordinates...
	Successfully converged to displaced geometry.

	Back-transformation to cartesian coordinates to adjust frozen coordinates...
	Successfully converged to displaced geometry.

	--- Internal Coordinate Step in ANG or DEG, aJ/ANG or AJ/DEG ---
	 ---------------------------------------------------------------------------
	   Coordinate                Previous        Force       Change         New 
	   ----------                --------       ------       ------       ------
	    1 H(5,22)         =      2.136966    -0.019898    -0.030996     2.105970
	    2 R(1,2)          =      1.422099    -0.060752    -0.007535     1.414565
	    3 R(1,16)         =      1.415886    -0.129242    -0.016294     1.399592
	    4 R(1,17)         =      1.417982    -0.139761    -0.019219     1.398763
	    5 R(2,3)          =      1.360347     0.021576     0.003972     1.364318
	    6 R(2,5)          =      1.038203    -0.141708    -0.019824     1.018379
	    7 R(3,4)          =      1.396000     0.043325     0.011688     1.407688
	    8 R(3,6)          =      1.498508    -0.017010     0.000711     1.499220
	    9 R(4,7)          =      1.441796     0.033191     0.007517     1.449313
	   10 R(4,9)          =      1.465059    -0.017691     0.004327     1.469386
	   11 R(6,11)         =      1.417571    -0.135696    -0.014629     1.402942
	   12 R(6,12)         =      1.418861    -0.133010    -0.017985     1.400876
	   13 R(7,10)         =      1.360824    -0.020427    -0.003675     1.357149
	   14 R(7,33)         =      1.080112    -0.029423    -0.004360     1.075752
	   15 R(8,9)          =      1.374899     0.067956     0.008708     1.383607
	   16 R(8,10)         =      1.399088     0.001845    -0.001694     1.397394
	   17 R(8,21)         =      1.009741    -0.063141    -0.007577     1.002165
	   18 R(9,22)         =      1.251953     0.141095     0.010974     1.262927
	   19 R(10,34)        =      1.081009    -0.034420    -0.004801     1.076208
	   20 R(11,13)        =      1.400982    -0.080659    -0.009917     1.391066
	   21 R(11,23)        =      1.091111    -0.054868    -0.008144     1.082968
	   22 R(12,14)        =      1.400967    -0.089592    -0.010912     1.390055
	   23 R(12,24)        =      1.091853    -0.057805    -0.008901     1.082952
	   24 R(13,15)        =      1.409697    -0.129423    -0.016187     1.393511
	   25 R(13,25)        =      1.091489    -0.054743    -0.008412     1.083078
	   26 R(14,15)        =      1.409979    -0.124091    -0.015828     1.394152
	   27 R(14,26)        =      1.091281    -0.057517    -0.008562     1.082719
	   28 R(15,27)        =      1.091556    -0.058537    -0.009056     1.082500
	   29 R(16,18)        =      1.402367    -0.118666    -0.014201     1.388166
	   30 R(16,28)        =      1.092837    -0.059613    -0.009187     1.083650
	   31 R(17,19)        =      1.402347    -0.120321    -0.014425     1.387922
	   32 R(17,29)        =      1.090070    -0.061566    -0.009324     1.080745
	   33 R(18,20)        =      1.419234    -0.149625    -0.019494     1.399739
	   34 R(18,30)        =      1.092325    -0.051729    -0.007840     1.084485
	   35 R(19,20)        =      1.418490    -0.145856    -0.018833     1.399657
	   36 R(19,31)        =      1.092358    -0.054613    -0.008411     1.083946
	   37 R(20,32)        =      1.421629    -0.000802     0.000434     1.422064
	   38 R(32,35)        =      1.023108    -0.039755    -0.004941     1.018167
	   39 R(32,36)        =      1.023425    -0.038889    -0.004653     1.018772
	   40 B(1,2,3)        =    127.430757     0.000154     0.746340   128.177097
	   41 B(1,2,5)        =    119.522397    -0.000487    -2.311782   117.210616
	   42 B(1,16,18)      =    120.180889     0.000080     0.344809   120.525698
	   43 B(1,16,28)      =    118.781855     0.000125     0.363383   119.145237
	   44 B(1,17,19)      =    120.090889    -0.000011     0.024490   120.115379
	   45 B(1,17,29)      =    119.507514     0.000150     0.411818   119.919331
	   46 B(2,1,16)       =    118.499592     0.000232     0.515247   119.014838
	   47 B(2,1,17)       =    121.886030    -0.000171    -0.105368   121.780661
	   48 B(2,3,4)        =    118.073426    -0.000224     0.177239   118.250664
	   49 B(2,3,6)        =    118.844259     0.000197    -0.588042   118.256217
	   50 B(3,2,5)        =    112.694901     0.000347     1.706859   114.401760
	   51 B(3,4,7)        =    131.102719    -0.000041    -0.716665   130.386054
	   52 B(3,4,9)        =    121.242566     0.000232     0.655783   121.898349
	   53 B(3,6,11)       =    120.294386     0.000499     2.029504   122.323890
	   54 B(3,6,12)       =    120.730682    -0.000494    -1.910512   118.820170
	   55 B(4,3,6)        =    119.697575     0.000080     1.097022   120.794597
	   56 B(4,7,10)       =    106.946597     0.000370     0.417272   107.363869
	   57 B(4,7,33)       =    127.146267    -0.000195     0.071793   127.218060
	   58 B(4,9,8)        =    104.891370    -0.000027    -0.964158   103.927212
	   59 B(4,9,22)       =    128.554462     0.000314     2.131499   130.685961
	   60 B(6,11,13)      =    120.381460     0.000091     0.307699   120.689160
	   61 B(6,11,23)      =    119.625195    -0.000042    -0.054097   119.571097
	   62 B(6,12,14)      =    120.376687    -0.000057    -0.083764   120.292923
	   63 B(6,12,24)      =    119.595980    -0.000048    -0.164130   119.431850
	   64 B(7,4,9)        =    107.637725    -0.000191     0.061881   107.699606
	   65 B(7,10,8)       =    109.637352    -0.000221    -0.546024   109.091328
	   66 B(7,10,34)      =    130.098696     0.000041    -0.373380   129.725317
	   67 B(8,9,22)       =    126.527429    -0.000283    -1.141967   125.385462
	   68 B(8,10,34)      =    120.263936     0.000181     0.919140   121.183076
	   69 B(9,8,10)       =    110.873678     0.000066     0.975917   111.849595
	   70 B(9,8,21)       =    121.964881     0.000103    -0.684495   121.280385
	   71 B(10,7,33)      =    125.904157    -0.000174    -0.486320   125.417836
	   72 B(10,8,21)      =    127.159289    -0.000171    -0.316384   126.842905
	   73 B(11,6,12)      =    118.971969    -0.000002    -0.142145   118.829824
	   74 B(11,13,15)     =    120.348266    -0.000088    -0.296265   120.052001
	   75 B(11,13,25)     =    119.716863     0.000051     0.107982   119.824845
	   76 B(12,14,15)     =    120.316122     0.000079     0.215736   120.531858
	   77 B(12,14,26)     =    119.747191    -0.000092    -0.356098   119.391093
	   78 B(13,11,23)     =    119.991536    -0.000049    -0.253153   119.738383
	   79 B(13,15,14)     =    119.604263    -0.000022    -0.005661   119.598602
	   80 B(13,15,27)     =    120.192734     0.000009    -0.025108   120.167627
	   81 B(14,12,24)     =    120.027334     0.000105     0.247647   120.274981
	   82 B(14,15,27)     =    120.203002     0.000013     0.030513   120.233515
	   83 B(15,13,25)     =    119.934438     0.000037     0.188567   120.123005
	   84 B(15,14,26)     =    119.936664     0.000013     0.140357   120.077021
	   85 B(16,1,17)      =    119.154435    -0.000028    -0.176982   118.977453
	   86 B(16,18,20)     =    121.276665    -0.000172    -0.454624   120.822042
	   87 B(16,18,30)     =    118.457638     0.000248     0.825803   119.283441
	   88 B(17,19,20)     =    121.339104    -0.000061    -0.069752   121.269351
	   89 B(17,19,31)     =    118.449467     0.000180     0.548964   118.998431
	   90 B(18,16,28)     =    121.036533    -0.000205    -0.708268   120.328265
	   91 B(18,20,19)     =    117.892188     0.000194     0.341103   118.233292
	   92 B(18,20,32)     =    121.223023    -0.000049    -0.091193   121.131830
	   93 B(19,17,29)     =    120.400175    -0.000139    -0.435945   119.964230
	   94 B(19,20,32)     =    120.878643    -0.000149    -0.315749   120.562894
	   95 B(20,18,30)     =    120.264457    -0.000076    -0.373067   119.891390
	   96 B(20,19,31)     =    120.210981    -0.000119    -0.478803   119.732179
	   97 B(20,32,35)     =    109.128920     0.000653     3.187411   112.316331
	   98 B(20,32,36)     =    108.788330     0.000752     3.076481   111.864811
	   99 B(35,32,36)     =    102.585236     0.000295     2.927788   105.513024
	  100 *D(1,2,3,4)     =   -166.154063    -0.000000     0.000000  -166.154063
	  101 D(1,2,3,6)      =     34.656322    -0.000040    -2.362041    32.294281
	  102 D(1,16,18,20)   =     -1.065446     0.000012     0.320991    -0.744454
	  103 D(1,16,18,30)   =    179.338785     0.000017     0.560844   179.899628
	  104 D(1,17,19,20)   =      0.594452    -0.000026    -0.856886    -0.262435
	  105 D(1,17,19,31)   =   -179.648462    -0.000020    -0.686147  -180.334609
	  106 D(2,1,16,18)    =    175.204681     0.000045     1.779129   176.983810
	  107 D(2,1,16,28)    =     -4.489154     0.000048     1.797169    -2.691985
	  108 D(2,1,17,19)    =   -174.703086    -0.000047    -1.623181  -176.326268
	  109 D(2,1,17,29)    =      5.728865    -0.000050    -1.680683     4.048182
	  110 D(2,3,4,7)      =    140.542144     0.000287     9.418783   149.960927
	  111 D(2,3,4,9)      =    -41.154916     0.000294     9.472793   -31.682123
	  112 *D(2,3,6,11)    =   -131.166109    -0.000000     0.000000  -131.166109
	  113 D(2,3,6,12)     =     48.201351     0.000074     2.514289    50.715641
	  114 *D(3,2,1,16)    =   -150.056366    -0.000000     0.000000  -150.056366
	  115 D(3,2,1,17)     =     22.092471     0.000064     2.318741    24.411212
	  116 D(3,4,7,10)     =    177.517968     0.000008     0.204235   177.722203
	  117 D(3,4,7,33)     =     -1.879785    -0.000009    -0.567741    -2.447525
	  118 D(3,4,9,8)      =   -177.488842     0.000019     0.909725  -176.579117
	  119 D(3,4,9,22)     =      4.316041    -0.000018    -1.311300     3.004741
	  120 D(3,6,11,13)    =    179.051252     0.000054     2.020592   181.071844
	  121 D(3,6,11,23)    =     -0.459469     0.000054     1.956670     1.497200
	  122 D(3,6,12,14)    =   -178.960377    -0.000060    -2.100793  -181.061170
	  123 D(3,6,12,24)    =      1.037163    -0.000055    -1.918180    -0.881017
	  124 D(4,3,2,5)      =     20.765268    -0.000023    -1.445373    19.319895
	  125 D(4,3,6,11)     =     69.987937    -0.000026    -2.218226    67.769711
	  126 D(4,3,6,12)     =   -110.644602     0.000048     0.296064  -110.348539
	  127 D(4,7,10,8)     =      0.376051    -0.000026    -1.209124    -0.833073
	  128 D(4,7,10,34)    =   -179.671093    -0.000024    -0.967635  -180.638728
	  129 D(4,9,8,10)     =     -0.964637    -0.000043    -1.733511    -2.698148
	  130 D(4,9,8,21)     =    179.533340    -0.000008    -0.461074   179.072266
	  131 D(5,2,1,16)     =     22.605329     0.000037     1.732584    24.337913
	  132 D(5,2,1,17)     =   -165.245834     0.000101     4.051325  -161.194508
	  133 D(5,2,3,6)      =   -138.424347    -0.000063    -3.807413  -142.231760
	  134 D(6,3,4,7)      =    -60.450901     0.000332    11.477032   -48.973870
	  135 D(6,3,4,9)      =    117.852039     0.000340    11.531041   129.383080
	  136 D(6,11,13,15)   =      0.045258     0.000008     0.231281     0.276539
	  137 D(6,11,13,25)   =   -179.715166     0.000005     0.131859  -179.583306
	  138 D(6,12,14,15)   =     -0.221630    -0.000001     0.053145    -0.168485
	  139 D(6,12,14,26)   =    179.722865    -0.000000     0.047938   179.770803
	  140 D(7,4,9,8)      =      1.169363     0.000025     0.937895     2.107258
	  141 D(7,4,9,22)     =   -177.025754    -0.000012    -1.283131  -178.308884
	  142 D(7,10,8,9)     =      0.395660     0.000045     1.936552     2.332211
	  143 D(7,10,8,21)    =    179.865557     0.000009     0.575954   180.441511
	  144 D(8,10,7,33)    =    179.783398    -0.000009    -0.450618   179.332780
	  145 D(9,4,7,10)     =     -0.959553     0.000000     0.145955    -0.813598
	  146 D(9,4,7,33)     =    179.642695    -0.000017    -0.626021   179.016673
	  147 D(9,8,10,34)    =   -179.562588     0.000043     1.720081  -177.842507
	  148 D(10,8,9,22)    =    177.278912    -0.000004     0.409997   177.688909
	  149 D(11,6,12,14)   =      0.415335     0.000014     0.338599     0.753934
	  150 D(11,6,12,24)   =   -179.587125     0.000018     0.521212  -179.065913
	  151 D(11,13,15,14)  =      0.153646     0.000005     0.167645     0.321291
	  152 D(11,13,15,27)  =   -179.833113    -0.000001    -0.029560  -179.862673
	  153 D(12,6,11,13)   =     -0.327255    -0.000017    -0.482825    -0.810080
	  154 D(12,6,11,23)   =   -179.837976    -0.000018    -0.546748  -180.384724
	  155 D(12,14,15,13)  =     -0.065317    -0.000009    -0.310615    -0.375933
	  156 D(12,14,15,27)  =    179.921440    -0.000002    -0.113286   179.808154
	  157 D(13,15,14,26)  =    179.990293    -0.000010    -0.305098   179.685195
	  158 D(14,15,13,25)  =    179.913547     0.000008     0.267168   180.180715
	  159 D(15,13,11,23)  =    179.554184     0.000008     0.296291   179.850475
	  160 D(15,14,12,24)  =    179.780841    -0.000005    -0.131007   179.649834
	  161 D(16,1,17,19)   =     -2.604106     0.000022     0.747424    -1.856682
	  162 D(16,1,17,29)   =    177.827845     0.000019     0.689922   178.517768
	  163 D(16,18,20,19)  =     -0.943534    -0.000017    -0.418298    -1.361833
	  164 D(16,18,20,32)  =    179.950690     0.000052     1.756207   181.706897
	  165 D(17,1,16,18)   =      2.836884    -0.000014    -0.477579     2.359305
	  166 D(17,1,16,28)   =   -176.856951    -0.000012    -0.459539  -177.316490
	  167 D(17,19,20,18)  =      1.178493     0.000024     0.690061     1.868553
	  168 D(17,19,20,32)  =   -179.712501    -0.000044    -1.469513  -181.182014
	  169 D(18,20,19,31)  =   -178.574360     0.000018     0.515610  -178.058751
	  170 *D(18,20,32,35) =    -29.951218     0.000000    -0.000000   -29.951218
	  171 D(18,20,32,36)  =   -141.149956    -0.000241    -7.240915  -148.390871
	  172 D(19,20,18,30)  =    178.644999    -0.000022    -0.654806   177.990192
	  173 D(19,20,32,35)  =    150.969654     0.000071     2.219053   153.188707
	  174 D(19,20,32,36)  =     39.770915    -0.000170    -5.021862    34.749053
	  175 D(20,18,16,28)  =    178.621378     0.000010     0.306116   178.927494
	  176 D(20,19,17,29)  =   -179.841396    -0.000024    -0.795658  -180.637054
	  177 D(21,8,9,22)    =     -2.223112     0.000031     1.682435    -0.540677
	  178 D(21,8,10,34)   =     -0.092691     0.000006     0.359484     0.266793
	  179 D(23,11,13,25)  =     -0.206240     0.000005     0.196870    -0.009370
	  180 D(24,12,14,26)  =     -0.274664    -0.000004    -0.136214    -0.410878
	  181 D(25,13,15,27)  =     -0.073211     0.000002     0.069962    -0.003249
	  182 D(26,14,15,27)  =     -0.022950    -0.000003    -0.107768    -0.130718
	  183 D(28,16,18,30)  =     -0.974391     0.000015     0.545968    -0.428423
	  184 D(29,17,19,31)  =     -0.084310    -0.000018    -0.624918    -0.709228
	  185 D(30,18,20,32)  =     -0.460777     0.000047     1.519699     1.058922
	  186 D(31,19,20,32)  =      0.534646    -0.000051    -1.643963    -1.109318
	  187 D(33,7,10,34)   =     -0.263746    -0.000007    -0.209129    -0.472875
	  188 R(1,12)         =      3.328911    -0.038999    -0.032903     3.296008
	  189 R(2,22)         =      2.903238    -0.001444    -0.005433     2.897805
	  190 R(6,17)         =      3.085812    -0.003899    -0.004241     3.081571
	  191 R(7,11)         =      3.471379    -0.010189    -0.032370     3.439009
	  192 R(11,17)        =      3.663922     0.036976     0.017663     3.681584
	  193 R(12,17)        =      3.469765    -0.032872    -0.007430     3.462335
	 ---------------------------------------------------------------------------
	Successfully symmetrized geometry.

  ==> Convergence Check <==

  Measures of convergence in internal coordinates in au.
  Criteria marked as inactive (o), active & met (*), and active & unmet ( ).
  --------------------------------------------------------------------------------------------- ~
   Step     Total Energy     Delta E     MAX Force     RMS Force      MAX Disp      RMS Disp    ~
  --------------------------------------------------------------------------------------------- ~
    Convergence Criteria             o    2.50e-03 *    1.70e-03 *    1.00e-02 *    6.70e-03 *  ~
  --------------------------------------------------------------------------------------------- ~
      1    -895.93171680   -8.96e+02 o    1.95e-02      5.86e-03      2.01e-01      3.57e-02    ~
  ---------------------------------------------------------------------------------------------

	Writing optimization data to binary file.
	Structure for next step:
	Cartesian Geometry (in Angstrom)
	    C     1.7014303378  -0.3303696855   0.1156244248
	    N     0.4965123452  -0.7550151378   0.7229483476
	    C    -0.7137656107  -0.1252684481   0.7262475437
	    C    -1.6945668079  -0.5714546589   1.6320797585
	    H     0.4909442347  -1.6794369572   1.1501584850
	    C    -1.0909357811   0.6937918818  -0.4714765090
	    C    -2.7666455394   0.1514806275   2.2866944256
	    N    -2.9042539417  -2.0133931851   2.8607380212
	    C    -1.7854203376  -1.9779578198   2.0475203064
	    C    -3.4671280772  -0.7451555501   3.0264384089
	    C    -1.5850886351   2.0021004673  -0.3601746107
	    C    -0.9823948805   0.1186880472  -1.7442408344
	    C    -1.9455438666   2.7236976042  -1.4935029175
	    C    -1.3447277790   0.8428342760  -2.8740996418
	    C    -1.8232551830   2.1469661825  -2.7561581458
	    C     2.6116007904  -1.2940375708  -0.3335881249
	    C     1.9565889320   1.0189131652  -0.1505874975
	    C     3.7743304249  -0.9139929699  -0.9898137292
	    C     3.1164425979   1.3901373229  -0.8163647940
	    C     4.0537812535   0.4364223753  -1.2297220232
	    H    -3.2157926177  -2.8685815246   3.2801786256
	    O    -1.0571496337  -2.9694634460   1.7619980708
	    H    -1.6799101287   2.4561387673   0.6184352487
	    H    -0.6165158619  -0.8960539903  -1.8402370968
	    H    -2.3191103125   3.7352143646  -1.3918219841
	    H    -1.2514075318   0.3853468743  -3.8509707269
	    H    -2.1011120685   2.7075892902  -3.6395064046
	    H     2.3948749168  -2.3427064974  -0.1673952750
	    H     1.2520256432   1.7738729124   0.1682169391
	    H     4.4663660712  -1.6774655783  -1.3279026160
	    H     3.2933269130   2.4403566552  -1.0180851759
	    N     5.2250936392   0.8311855309  -1.9328963404
	    H    -2.9813139848   1.2031090362   2.2143194597
	    H    -4.3245227819  -0.5943771208   3.6591813821
	    H     5.9951494833   0.1788379247  -1.7982819987
	    H     5.5734482933   1.7336251010  -1.6132905899
			--------------------------
			 OPTKING Finished Execution 
			--------------------------

    Structure for next step:
    Molecular point group: c1
    Full point group: C1

    Geometry (in Angstrom), charge = 0, multiplicity = 1:

    C            1.687954724254    -0.325985041875     0.097303326097
    N            0.483036726967    -0.750630495843     0.704627251371
    C           -0.727241233665    -0.120883803642     0.707926447469
    C           -1.708042434740    -0.567070016233     1.613758665824
    H            0.477468616381    -1.675052318883     1.131837390427
    C           -1.104411405550     0.698176529466    -0.489797609948
    C           -2.780121170463     0.155865273008     2.268373335487
    N           -2.917729573340    -2.009008548132     2.842416933318
    C           -1.798895964780    -1.973573182694     2.029199215336
    C           -3.480603711053    -0.740770908148     3.008117321689
    C           -1.598564261531     2.006485120070    -0.378495711244
    C           -0.995870504594     0.123072692637    -1.762561940387
    C           -1.959019494486     2.728082259844    -1.511824022476
    C           -1.358203404497     0.847218924235    -2.892420752246
    C           -1.836730810376     2.151350835861    -2.774479255755
    C            2.598125180507    -1.289652930981    -0.351909225325
    C            1.943113319516     1.023297814173    -0.168908597212
    C            3.760854819571    -0.909608328560    -1.008134832172
    C            3.102966989903     1.394521973287    -0.834685896333
    C            4.040305649263     0.440807021922    -1.248043127158
    H           -3.229268250525    -2.864196890969     3.261857539405
    O           -1.070625258064    -2.965078812712     1.743676978664
    H           -1.693385755531     2.460523421851     0.600114151973
    H           -0.629991484497    -0.891669348863    -1.858558203127
    H           -2.332585941827     3.739599024183    -1.410143088704
    H           -1.264883156934     0.389731520720    -3.869291841187
    H           -2.114587696942     2.711973945767    -3.657827518063
    H            2.381399305970    -2.338321861677    -0.185716374739
    H            1.238550027881     1.778257564334     0.149895840664
    H            4.452890468526    -1.673080939949    -1.346223720360
    H            3.279851305766     2.444741309739    -1.036406278990
    N            5.211618039521     0.835570179127    -1.951217447135
    H           -2.994789616687     1.207493685864     2.195998369265
    H           -4.337998419144    -0.589992478190     3.640860297417
    H            5.981673886705     0.183222570331    -1.816603104842
    H            5.559972694955     1.738009752756    -1.631611695321


Scratch directory: /scratch/bdw2292/Psi4-1_7_Index_0_GrowFragment_0-farH_in17/

Scratch directory: /scratch/bdw2292/Psi4-1_7_Index_0_GrowFragment_0-farH_in17/
gradient() will perform analytic gradient computation.

*** tstart() called on node74.bme.utexas.edu
*** at Wed Jun  8 16:49:05 2022

   => Loading Basis Set <=

    Name: 6-311G
    Role: ORBITAL
    Keyword: BASIS
    atoms 1, 3-4, 6-7, 9-20   entry C          line    92 file /home/bdw2292/miniconda3/envs/newamoebamdpoltype/share/psi4/basis/6-311g.gbs 
    atoms 2, 8, 32            entry N          line   109 file /home/bdw2292/miniconda3/envs/newamoebamdpoltype/share/psi4/basis/6-311g.gbs 
    atoms 5, 21, 23-31, 33-36 entry H          line    21 file /home/bdw2292/miniconda3/envs/newamoebamdpoltype/share/psi4/basis/6-311g.gbs 
    atoms 22                  entry O          line   126 file /home/bdw2292/miniconda3/envs/newamoebamdpoltype/share/psi4/basis/6-311g.gbs 

   => WB97X-D: Empirical Dispersion <=

    Chai and Head-Gordon Dispersion Correction
    Chai, J.-D.; Head-Gordon, M. (2010), J. Chem. Phys., 132: 6615-6620

        s6 =       1.000000


         ---------------------------------------------------------
                                   SCF
               by Justin Turney, Rob Parrish, Andy Simmonett
                          and Daniel G. A. Smith
                              RKS Reference
                        2 Threads,   7788 MiB Core
         ---------------------------------------------------------

  ==> Geometry <==

    Molecular point group: c1
    Full point group: C1

    Geometry (in Angstrom), charge = 0, multiplicity = 1:

       Center              X                  Y                   Z               Mass       
    ------------   -----------------  -----------------  -----------------  -----------------
         C            1.687954724254    -0.325985041875     0.097303326097    12.000000000000
         N            0.483036726967    -0.750630495843     0.704627251371    14.003074004430
         C           -0.727241233665    -0.120883803642     0.707926447469    12.000000000000
         C           -1.708042434740    -0.567070016233     1.613758665824    12.000000000000
         H            0.477468616381    -1.675052318883     1.131837390427     1.007825032230
         C           -1.104411405550     0.698176529466    -0.489797609948    12.000000000000
         C           -2.780121170463     0.155865273008     2.268373335487    12.000000000000
         N           -2.917729573340    -2.009008548132     2.842416933318    14.003074004430
         C           -1.798895964780    -1.973573182694     2.029199215336    12.000000000000
         C           -3.480603711053    -0.740770908148     3.008117321689    12.000000000000
         C           -1.598564261531     2.006485120070    -0.378495711244    12.000000000000
         C           -0.995870504594     0.123072692637    -1.762561940387    12.000000000000
         C           -1.959019494486     2.728082259844    -1.511824022476    12.000000000000
         C           -1.358203404497     0.847218924235    -2.892420752246    12.000000000000
         C           -1.836730810376     2.151350835861    -2.774479255755    12.000000000000
         C            2.598125180507    -1.289652930981    -0.351909225325    12.000000000000
         C            1.943113319516     1.023297814173    -0.168908597212    12.000000000000
         C            3.760854819571    -0.909608328560    -1.008134832172    12.000000000000
         C            3.102966989903     1.394521973287    -0.834685896333    12.000000000000
         C            4.040305649263     0.440807021922    -1.248043127158    12.000000000000
         H           -3.229268250525    -2.864196890969     3.261857539405     1.007825032230
         O           -1.070625258064    -2.965078812712     1.743676978664    15.994914619570
         H           -1.693385755531     2.460523421851     0.600114151973     1.007825032230
         H           -0.629991484497    -0.891669348863    -1.858558203127     1.007825032230
         H           -2.332585941827     3.739599024183    -1.410143088704     1.007825032230
         H           -1.264883156934     0.389731520720    -3.869291841187     1.007825032230
         H           -2.114587696942     2.711973945767    -3.657827518063     1.007825032230
         H            2.381399305970    -2.338321861677    -0.185716374739     1.007825032230
         H            1.238550027881     1.778257564334     0.149895840664     1.007825032230
         H            4.452890468526    -1.673080939949    -1.346223720360     1.007825032230
         H            3.279851305766     2.444741309739    -1.036406278990     1.007825032230
         N            5.211618039521     0.835570179127    -1.951217447135    14.003074004430
         H           -2.994789616687     1.207493685864     2.195998369265     1.007825032230
         H           -4.337998419144    -0.589992478190     3.640860297417     1.007825032230
         H            5.981673886705     0.183222570331    -1.816603104842     1.007825032230
         H            5.559972694955     1.738009752756    -1.631611695321     1.007825032230

  Running in c1 symmetry.

  Rotational constants: A =      0.01495  B =      0.00723  C =      0.00546 [cm^-1]
  Rotational constants: A =    448.12450  B =    216.78440  C =    163.64696 [MHz]
  Nuclear repulsion = 1541.855994028873283

  Charge       = 0
  Multiplicity = 1
  Electrons    = 146
  Nalpha       = 73
  Nbeta        = 73

  ==> Algorithm <==

  SCF Algorithm Type is DF.
  DIIS enabled.
  MOM disabled.
  Fractional occupation disabled.
  Guess Type is READ.
  Energy threshold   = 1.00e-08
  Density threshold  = 1.00e-08
  Integral threshold = 1.00e-12

  ==> Primary Basis <==

  Basis Set: 6-311G
    Blend: 6-311G
    Number of shells: 192
    Number of basis functions: 318
    Number of Cartesian functions: 318
    Spherical Harmonics?: true
    Max angular momentum: 1

  ==> DFT Potential <==

   => LibXC <=

    Version 5.1.5
    S. Lehtola, C. Steigemann, M. J. Oliveira, and M. A. Marques, SoftwareX 7, 1 (2018) (10.1016/j.softx.2017.11.002)

   => Composite Functional: WB97X-D <= 

    wB97X-D Hyb-GGA Exchange-Correlation Functional

    J.-D. Chai and M. Head-Gordon, Phys. Chem. Chem. Phys. 10, 6615 (2008) (10.1039/B810189B)

    Deriv               =              1
    GGA                 =           TRUE
    Meta                =          FALSE

    Exchange Hybrid     =           TRUE
    MP2 Hybrid          =          FALSE

   => Exchange-Correlation Functionals <=

    1.0000   wB97X-D range-separated functional

   => Exact (HF) Exchange <=

    0.7780            HF,LR [omega = 0.2000]
    0.2220               HF 

   => LibXC Density Thresholds  <==

    XC_HYB_GGA_XC_WB97X_D:  1.00E-14 

   => Molecular Quadrature <=

    Radial Scheme          =       TREUTLER
    Pruning Scheme         =           NONE
    Nuclear Scheme         =       TREUTLER

    BS radius alpha        =              1
    Pruning alpha          =              1
    Radial Points          =             75
    Spherical Points       =            302
    Total Points           =         741225
    Total Blocks           =           5308
    Max Points             =            256
    Max Functions          =            230
    Weights Tolerance      =       1.00E-15

   => Loading Basis Set <=

    Name: (6-311G AUX)
    Role: JKFIT
    Keyword: DF_BASIS_SCF
    atoms 1, 3-4, 6-7, 9-20   entry C          line   125 file /home/bdw2292/miniconda3/envs/newamoebamdpoltype/share/psi4/basis/cc-pvtz-jkfit.gbs 
    atoms 2, 8, 32            entry N          line   177 file /home/bdw2292/miniconda3/envs/newamoebamdpoltype/share/psi4/basis/cc-pvtz-jkfit.gbs 
[...]
	   42 B(1,16,18)      =    120.919202    -0.000003    -0.003673   120.915529
	   43 B(1,16,28)      =    119.220136     0.000000    -0.002764   119.217372
	   44 B(1,17,19)      =    120.526126    -0.000001    -0.007947   120.518178
	   45 B(1,17,29)      =    120.177797    -0.000000    -0.003222   120.174575
	   46 B(2,1,16)       =    118.094069    -0.000004     0.007186   118.101255
	   47 B(2,1,17)       =    123.145165    -0.000001    -0.024563   123.120601
	   48 B(2,3,4)        =    119.141351    -0.000006    -0.009580   119.131771
	   49 B(2,3,6)        =    119.575335     0.000001     0.014559   119.589894
	   50 B(3,2,5)        =    113.606147    -0.000010    -0.066026   113.540120
	   51 B(3,4,7)        =    130.883558    -0.000006    -0.025002   130.858556
	   52 B(3,4,9)        =    122.289071     0.000008     0.049842   122.338913
	   53 B(3,6,11)       =    120.628763    -0.000001    -0.006947   120.621816
	   54 B(3,6,12)       =    119.983979     0.000002     0.008743   119.992722
	   55 B(4,3,6)        =    121.177912     0.000005    -0.006582   121.171330
	   56 B(4,7,10)       =    107.626418     0.000001     0.024622   107.651040
	   57 B(4,7,33)       =    126.306704    -0.000001    -0.015062   126.291643
	   58 B(4,9,8)        =    105.657777    -0.000004     0.003546   105.661324
	   59 B(4,9,22)       =    128.817472     0.000004    -0.006316   128.811157
	   60 B(6,11,13)      =    120.254389     0.000000     0.008827   120.263217
	   61 B(6,11,23)      =    119.377725     0.000002     0.009848   119.387573
	   62 B(6,12,14)      =    120.250518     0.000000    -0.006478   120.244040
	   63 B(6,12,24)      =    119.510399    -0.000002    -0.012362   119.498038
	   64 B(7,4,9)        =    106.786165    -0.000002    -0.020772   106.765393
	   65 B(7,10,8)       =    109.343993     0.000001    -0.024090   109.319902
	   66 B(7,10,34)      =    129.982375     0.000002     0.031692   130.014067
	   67 B(8,9,22)       =    125.518109     0.000000     0.000220   125.518328
	   68 B(8,10,34)      =    120.673030    -0.000004    -0.009351   120.663679
	   69 B(9,8,10)       =    110.558028     0.000004     0.023251   110.581280
	   70 B(9,8,21)       =    122.971678    -0.000000     0.005012   122.976690
	   71 B(10,7,33)      =    126.059833     0.000000    -0.008666   126.051167
	   72 B(10,8,21)      =    126.432797    -0.000004    -0.020203   126.412594
	   73 B(11,6,12)      =    119.380899    -0.000000    -0.002429   119.378470
	   74 B(11,13,15)     =    120.102925    -0.000000    -0.007404   120.095521
	   75 B(11,13,25)     =    119.775781    -0.000001     0.002984   119.778766
	   76 B(12,14,15)     =    120.168655     0.000000     0.008995   120.177650
	   77 B(12,14,26)     =    119.696304    -0.000000    -0.005827   119.690477
	   78 B(13,11,23)     =    120.363322    -0.000002    -0.017880   120.345442
	   79 B(13,15,14)     =    119.841869     0.000000    -0.001428   119.840441
	   80 B(13,15,27)     =    120.070822     0.000000    -0.002006   120.068815
	   81 B(14,12,24)     =    120.238190     0.000002     0.018869   120.257059
	   82 B(14,15,27)     =    120.087308    -0.000001     0.003436   120.090744
	   83 B(15,13,25)     =    120.121248     0.000002     0.004412   120.125660
	   84 B(15,14,26)     =    120.134943     0.000000    -0.003123   120.131820
	   85 B(16,1,17)      =    118.676413     0.000005     0.013283   118.689696
	   86 B(16,18,20)     =    120.648191     0.000000    -0.000441   120.647749
	   87 B(16,18,30)     =    119.756199    -0.000002    -0.008112   119.748087
	   88 B(17,19,20)     =    121.026039    -0.000001     0.002862   121.028902
	   89 B(17,19,31)     =    119.316390     0.000000    -0.004321   119.312069
	   90 B(18,16,28)     =    119.844770     0.000002     0.006955   119.851724
	   91 B(18,20,19)     =    118.180288    -0.000001    -0.004923   118.175364
	   92 B(18,20,32)     =    120.619806     0.000000    -0.006615   120.613190
	   93 B(19,17,29)     =    119.293015     0.000001     0.011679   119.304694
	   94 B(19,20,32)     =    121.153203     0.000001     0.011951   121.165154
	   95 B(20,18,30)     =    119.590410     0.000002     0.008112   119.598522
	   96 B(20,19,31)     =    119.648889     0.000001     0.001390   119.650279
	   97 B(20,32,35)     =    119.327499     0.000000    -0.013587   119.313912
	   98 B(20,32,36)     =    118.782191     0.000001    -0.018527   118.763664
	   99 B(35,32,36)     =    115.812050    -0.000001    -0.023111   115.788939
	  100 *D(1,2,3,4)     =   -166.154063    -0.000000     0.000000  -166.154063
	  101 D(1,2,3,6)      =     17.533859     0.000000     0.028162    17.562021
	  102 D(1,16,18,20)   =      0.955879    -0.000000    -0.033207     0.922672
	  103 D(1,16,18,30)   =   -178.211228     0.000000     0.001415  -178.209813
	  104 D(1,17,19,20)   =     -1.033371    -0.000000    -0.035674    -1.069045
	  105 D(1,17,19,31)   =   -179.957683    -0.000000    -0.031435  -179.989118
	  106 D(2,1,16,18)    =   -178.499818     0.000000     0.062623  -178.437194
	  107 D(2,1,16,28)    =      2.952658     0.000000     0.038667     2.991324
	  108 D(2,1,17,19)    =    178.358860     0.000000    -0.031578   178.327282
	  109 D(2,1,17,29)    =     -1.000072    -0.000000    -0.087394    -1.087466
	  110 D(2,3,4,7)      =   -174.521379     0.000002    -0.062731  -174.584110
	  111 D(2,3,4,9)      =      2.818996     0.000002     0.071607     2.890603
	  112 *D(2,3,6,11)    =   -131.166109     0.000000    -0.000000  -131.166109
	  113 D(2,3,6,12)     =     49.756881    -0.000000     0.044928    49.801809
	  114 *D(3,2,1,16)    =   -150.056366    -0.000000     0.000000  -150.056366
	  115 D(3,2,1,17)     =     33.331866     0.000000     0.080661    33.412527
	  116 D(3,4,7,10)     =    178.857611     0.000001     0.162656   179.020267
	  117 D(3,4,7,33)     =     -0.220601     0.000001     0.102177    -0.118423
	  118 D(3,4,9,8)      =   -179.560052     0.000001     0.088685  -179.471367
	  119 D(3,4,9,22)     =     -0.468724    -0.000001    -0.071561    -0.540285
	  120 D(3,6,11,13)    =   -179.210645    -0.000000     0.040203  -179.170441
	  121 D(3,6,11,23)    =      1.563621    -0.000001    -0.030354     1.533267
	  122 D(3,6,12,14)    =    178.973549     0.000000    -0.018607   178.954943
	  123 D(3,6,12,24)    =     -1.369306     0.000000    -0.012771    -1.382077
	  124 D(4,3,2,5)      =      1.687218     0.000001     0.179645     1.866863
	  125 D(4,3,6,11)     =     52.598896     0.000000     0.028842    52.627738
	  126 D(4,3,6,12)     =   -126.478114     0.000000     0.073770  -126.404344
	  127 D(4,7,10,8)     =     -0.279587    -0.000002    -0.262550    -0.542137
	  128 D(4,7,10,34)    =   -179.993061     0.000000     0.017206  -179.975856
	  129 D(4,9,8,10)     =      1.540814    -0.000003    -0.359242     1.181571
	  130 D(4,9,8,21)     =    179.443117    -0.000001    -0.120626   179.322491
	  131 D(5,2,1,16)     =     42.437350    -0.000001    -0.170494    42.266855
	  132 D(5,2,1,17)     =   -134.174418    -0.000001    -0.089834  -134.264252
	  133 D(5,2,3,6)      =   -174.624860     0.000002     0.207807  -174.417053
	  134 D(6,3,4,7)      =      1.729647     0.000001    -0.090552     1.639095
	  135 D(6,3,4,9)      =    179.070021     0.000002     0.043786   179.113808
	  136 D(6,11,13,15)   =      0.196238    -0.000000    -0.021834     0.174404
	  137 D(6,11,13,25)   =   -179.726760    -0.000000    -0.015049  -179.741809
	  138 D(6,12,14,15)   =      0.290570    -0.000000    -0.021128     0.269442
	  139 D(6,12,14,26)   =   -179.823188     0.000000     0.008957  -179.814230
	  140 D(7,4,9,8)      =     -1.660049     0.000002     0.194194    -1.465854
	  141 D(7,4,9,22)     =    177.431279    -0.000000     0.033948   177.465227
	  142 D(7,10,8,9)     =     -0.824346     0.000004     0.403547    -0.420800
	  143 D(7,10,8,21)    =   -178.636954     0.000002     0.154105  -178.482849
	  144 D(8,10,7,33)    =    178.801526    -0.000002    -0.202333   178.599192
	  145 D(9,4,7,10)     =      1.205844     0.000000     0.042593     1.248437
	  146 D(9,4,7,33)     =   -177.872368    -0.000000    -0.017886  -177.890254
	  147 D(9,8,10,34)    =    178.920393     0.000001     0.154601   179.074994
	  148 D(10,8,9,22)    =   -177.589351    -0.000001    -0.205753  -177.795104
	  149 D(11,6,12,14)   =     -0.114998    -0.000000     0.025806    -0.089192
	  150 D(11,6,12,24)   =    179.542146    -0.000000     0.031641   179.573788
	  151 D(11,13,15,14)  =     -0.020987     0.000000     0.026607     0.005620
	  152 D(11,13,15,27)  =    179.993090     0.000000     0.007894   180.000984
	  153 D(12,6,11,13)   =     -0.128113     0.000000    -0.004348    -0.132461
	  154 D(12,6,11,23)   =   -179.353847    -0.000000    -0.074906  -179.428753
	  155 D(12,14,15,13)  =     -0.222181     0.000000    -0.005177    -0.227357
	  156 D(12,14,15,27)  =    179.763739     0.000000     0.013541   179.777280
	  157 D(13,15,14,26)  =    179.892079    -0.000000    -0.035393   179.856687
	  158 D(14,15,13,25)  =    179.901743    -0.000000     0.019798   179.921541
	  159 D(15,13,11,23)  =    179.414284     0.000000     0.049623   179.463906
	  160 D(15,14,12,24)  =   -179.364063    -0.000000    -0.026900  -179.390963
	  161 D(16,1,17,19)   =      1.765774     0.000000     0.049738     1.815512
	  162 D(16,1,17,29)   =   -177.593158    -0.000000    -0.006078  -177.599236
	  163 D(16,18,20,19)  =     -0.179381     0.000000     0.046795    -0.132585
	  164 D(16,18,20,32)  =   -177.722307     0.000000     0.035638  -177.686669
	  165 D(17,1,16,18)   =     -1.733189    -0.000000    -0.015691    -1.748880
	  166 D(17,1,16,28)   =    179.719286    -0.000000    -0.039647   179.679639
	  167 D(17,19,20,18)  =      0.219856    -0.000000    -0.012660     0.207197
	  168 D(17,19,20,32)  =    177.749053     0.000000    -0.001919   177.747134
	  169 D(18,20,19,31)  =    179.140632    -0.000000    -0.016973   179.123659
	  170 *D(18,20,32,35) =    -29.951218     0.000000     0.000000   -29.951218
	  171 D(18,20,32,36)  =    178.592042     0.000000     0.126826   178.718868
	  172 D(19,20,18,30)  =    178.989099    -0.000000     0.012090   179.001189
	  173 D(19,20,32,35)  =    152.579630    -0.000000    -0.011058   152.568572
	  174 D(19,20,32,36)  =      1.122890     0.000000     0.115768     1.238658
	  175 D(20,18,16,28)  =    179.494404    -0.000000    -0.009241   179.485163
	  176 D(20,19,17,29)  =    178.331191     0.000000     0.019567   178.350758
	  177 D(21,8,9,22)    =      0.312952     0.000001     0.032864     0.345815
	  178 D(21,8,10,34)   =      1.107785    -0.000001    -0.094841     1.012944
	  179 D(23,11,13,25)  =     -0.508714     0.000000     0.056407    -0.452307
	  180 D(24,12,14,26)  =      0.522179     0.000000     0.003186     0.525364
	  181 D(25,13,15,27)  =     -0.084180     0.000000     0.001085    -0.083095
	  182 D(26,14,15,27)  =     -0.122000    -0.000000    -0.016676    -0.138676
	  183 D(28,16,18,30)  =      0.327296     0.000000     0.025381     0.352677
	  184 D(29,17,19,31)  =     -0.593121     0.000000     0.023805    -0.569315
	  185 D(30,18,20,32)  =      1.446172    -0.000000     0.000934     1.447106
	  186 D(31,19,20,32)  =     -3.330171     0.000000    -0.006232    -3.336403
	  187 D(33,7,10,34)   =     -0.911949     0.000001     0.077423    -0.834526
	  188 R(1,12)         =      3.172797     0.000065     0.001823     3.174620
	  189 R(2,22)         =      2.713902     0.001318     0.001177     2.715078
	  190 R(6,17)         =      3.076316     0.000470     0.001582     3.077898
	  191 R(7,11)         =      3.228434    -0.000848    -0.001105     3.227328
	  192 R(11,17)        =      3.782256    -0.000212     0.001218     3.783474
	  193 R(12,17)        =      3.256015     0.000852     0.003682     3.259697
	 ---------------------------------------------------------------------------
	Successfully symmetrized geometry.

  ==> Convergence Check <==

  Measures of convergence in internal coordinates in au.
  Criteria marked as inactive (o), active & met (*), and active & unmet ( ).
  ---------------------------------------------------------------------------------------------
   Step     Total Energy     Delta E     MAX Force     RMS Force      MAX Disp      RMS Disp   
  ---------------------------------------------------------------------------------------------
    Convergence Criteria             o    2.50e-03 *    1.70e-03 *    1.00e-02 *    6.70e-03 *
  ---------------------------------------------------------------------------------------------
     12    -895.99224240   -8.21e-06 o    3.02e-04 *    6.94e-05 *    7.04e-03 *    1.35e-03 *  ~
  ---------------------------------------------------------------------------------------------


  **** Optimization is complete! (in 12 steps) ****

  ==> Optimization Summary <==

  Measures of convergence in internal coordinates in au.
  --------------------------------------------------------------------------------------------------------------- ~
   Step         Total Energy             Delta E       MAX Force       RMS Force        MAX Disp        RMS Disp  ~
  --------------------------------------------------------------------------------------------------------------- ~
      1    -895.931716801038   -895.931716801038      0.01947823      0.00585600      0.20125464      0.03574042  ~
      2    -895.955083722255     -0.023366921217      0.01480230      0.00277835      0.32838429      0.05374170  ~
      3    -895.972729928049     -0.017646205794      0.01732917      0.00336584      0.29068579      0.04560500  ~
      4    -895.981326101951     -0.008596173902      0.03367769      0.00452888      0.15927409      0.03242655  ~
      5    -895.989081901584     -0.007755799632      0.01292340      0.00190315      0.13846939      0.02863564  ~
      6    -895.991297081756     -0.002215180172      0.00646872      0.00126213      0.09100513      0.01796778  ~
      7    -895.991922130298     -0.000625048543      0.00226937      0.00048015      0.05113997      0.01064511  ~
      8    -895.992022804294     -0.000100673996      0.00320108      0.00061208      0.02347329      0.00462652  ~
      9    -895.992183121005     -0.000160316711      0.00141452      0.00023252      0.03368466      0.00566102  ~
     10    -895.992201570976     -0.000018449971      0.00085743      0.00021813      0.01342929      0.00366502  ~
     11    -895.992234188531     -0.000032617555      0.00056674      0.00013148      0.01084946      0.00214006  ~
     12    -895.992242395090     -0.000008206559      0.00030200      0.00006935      0.00704322      0.00135155  ~
  --------------------------------------------------------------------------------------------------------------- ~

	Writing optimization data to binary file.
	Final energy is   -895.9922423950899
	Final (previous) structure:
	Cartesian Geometry (in Angstrom)
	    C     1.6170988168  -0.3120537254  -0.0352782024
	    N     0.4408741261  -0.8433419117   0.5571292278
	    C    -0.8334128061  -0.3769961359   0.4738963394
	    C    -1.7856320089  -0.8626907558   1.3480071690
	    H     0.5685987466  -1.5607445640   1.2756572861
	    C    -1.1951094816   0.5798403213  -0.6033221444
	    C    -3.2213071929  -0.6290776064   1.4196089340
	    N    -2.6501046276  -2.0714748267   3.0512547188
	    C    -1.4614652659  -1.8170724609   2.4007181439
	    C    -3.7047534920  -1.3620778921   2.4485319734
	    C    -1.8946535988   1.7538366214  -0.3079601577
	    C    -0.8523625492   0.3005012368  -1.9308469508
	    C    -2.2441434518   2.6375276353  -1.3262369800
	    C    -1.2068287123   1.1817904808  -2.9460451240
	    C    -1.9013428061   2.3533011021  -2.6463065263
	    C     2.6431966313  -1.1991160922  -0.3708673899
	    C     1.8216951199   1.0548230254  -0.2331879038
	    C     3.8300939524  -0.7400159843  -0.9239752198
	    C     3.0080358320   1.5175268665  -0.7873039591
	    C     4.0348247074   0.6305802518  -1.1408199378
	    H    -2.7243927947  -2.7060469826   3.8223105969
	    O    -0.3429753487  -2.3406985334   2.6805146552
	    H    -2.1503663755   1.9748869900   0.7194599715
	    H    -0.3049221299  -0.6030586089  -2.1607110054
	    H    -2.7813532585   3.5455346902  -1.0884774292
	    H    -0.9398843969   0.9556170000  -3.9692391473
	    H    -2.1730798080   3.0397977881  -3.4366044938
	    H     2.4957674541  -2.2600511203  -0.2168091032
	    H     1.0604582290   1.7646973974   0.0537358765
	    H     4.6009717850  -1.4463661435  -1.2036726416
	    H     3.1462478685   2.5817077792  -0.9314330727
	    N     5.2051567653   1.0861929808  -1.7384484231
	    H    -3.7978009153  -0.0006506819   0.7640547708
	    H    -4.7101099090  -1.4559968513   2.8172998300
	    H     6.0541235698   0.5682476966  -1.6133348439
	    H     5.3135989895   2.0699215824  -1.8997265890
	Saving final (previous) structure.
	Cleaning optimization helper files.
			--------------------------
			 OPTKING Finished Execution 
			--------------------------

    Final optimized geometry and variables:
    Molecular point group: c1
    Full point group: C1

    Geometry (in Angstrom), charge = 0, multiplicity = 1:

    C            1.617098823127    -0.312053726614    -0.035278202495
    N            0.440874127817    -0.843341915014     0.557129230005
    C           -0.833412809330    -0.376996137369     0.473896341263
    C           -1.785632015944    -0.862690759149     1.348007174270
    H            0.568598748877    -1.560744570154     1.275657291123
    C           -1.195109486277     0.579840323579    -0.603322146739
    C           -3.221307205530    -0.629077608845     1.419608939592
    N           -2.650104638051    -2.071474834812     3.051254730761
    C           -1.461465271628    -1.817072468046     2.400718153299
    C           -3.704753506519    -1.362077897481     2.448531983072
    C           -1.894653606211     1.753836628286    -0.307960158926
    C           -0.852362552518     0.300501237948    -1.930846958350
    C           -2.244143460599     2.637527645622    -1.326236985231
    C           -1.206828717089     1.181790485399    -2.946045135569
    C           -1.901342813599     2.353301111359    -2.646306536726
    C            2.643196641707    -1.199116096912    -0.370867391381
    C            1.821695127107     1.054823029527    -0.233187904727
    C            3.830093967444    -0.740015987234    -0.923975223396
    C            3.008035843804     1.517526872466    -0.787303962149
    C            4.034824723236     0.630580254231    -1.140819942309
    H           -2.724392805422    -2.706046993280     3.822310611896
    O           -0.342975350082    -2.340698542604     2.680514665750
    H           -2.150366383966     1.974886997811     0.719459974300
    H           -0.304922131085    -0.603058611280    -2.160711013868
    H           -2.781353269435     3.545534704164    -1.088477433509
    H           -0.939884400549     0.955617003740    -3.969239162892
    H           -2.173079816576     3.039797800062    -3.436604507352
    H            2.495767463906    -2.260051129226    -0.216809104018
    H            1.060458233153     1.764697404370     0.053735876669
    H            4.600971803119    -1.446366149182    -1.203672646362
    H            3.146247880887     2.581707789372    -0.931433076349
    N            5.205156785792     1.086192985111    -1.738448429901
    H           -3.797800930257    -0.000650681923     0.764054773771
    H           -4.710109927540    -1.455996857069     2.817299841102
    H            6.054123593584     0.568247698853    -1.613334850244
    H            5.313599010414     2.069921590575    -1.899726596451

	Removing binary optimization data file.
	Cleaning optimization helper files.

    Psi4 stopped on: Wednesday, 08 June 2022 05:27PM
    Psi4 wall time for execution: 0:43:13.98

*** Psi4 exiting successfully. Buy a developer a beer!
