
    -----------------------------------------------------------------------
          Psi4: An Open-Source Ab Initio Electronic Structure Package
                               Psi4 1.5 release

                         Git: Rev {HEAD} e9f4d6d 


    D. G. A. Smith, L. A. Burns, A. C. Simmonett, R. M. Parrish,
    M. C. Schieber, R. Galvelis, P. Kraus, H. Kruse, R. Di Remigio,
    A. Alenaizan, A. M. James, S. Lehtola, J. P. Misiewicz, M. Scheurer,
    R. A. Shaw, J. B. Schriber, Y. Xie, Z. L. Glick, D. A. Sirianni,
    J. S. O'Brien, J. M. Waldrop, A. Kumar, E. G. Hohenstein,
    B. P. Pritchard, B. R. Brooks, H. F. Schaefer III, A. Yu. Sokolov,
    K. Patkowski, A. E. DePrince III, U. Bozkaya, R. A. King,
    F. A. Evangelista, J. M. Turney, T. D. Crawford, C. D. Sherrill,
    J. Chem. Phys. 152(18) 184108 (2020). https://doi.org/10.1063/5.0006002

                            Additional Code Authors
    E. T. Seidl, C. L. Janssen, E. F. Valeev, M. L. Leininger,
    J. F. Gonthier, R. M. Richard, H. R. McAlexander, M. Saitow, X. Wang,
    P. Verma, M. H. Lechner, and A. Jiang

             Previous Authors, Complete List of Code Contributors,
                       and Citations for Specific Modules
    https://github.com/psi4/psi4/blob/master/codemeta.json
    https://github.com/psi4/psi4/graphs/contributors
    http://psicode.org/psi4manual/master/introduction.html#citing-psifour

    -----------------------------------------------------------------------


    Psi4 started on: Thursday, 09 June 2022 05:07AM

    Process ID: 1288156
    Host:       node74.bme.utexas.edu
    PSIDATADIR: /home/bdw2292/miniconda3/envs/newamoebamdpoltype/share/psi4
    Memory:     500.0 MiB
    Threads:    1
    
  ==> Input File <==

--------------------------------------------------------------------------
molecule { 
0 1
 C    1.788340   -0.110096    0.094941
 N    0.715927    0.176491    0.992475
 C   -0.609597    0.508485    0.874521
 C   -1.477940   -0.539570    1.188818
 H    0.839783   -0.282761    1.916728
 C   -1.151771    1.540799   -0.069479
 C   -2.547461   -1.158881    0.444897
 N   -2.414755   -2.129966    2.477287
 C   -1.402865   -1.199193    2.493602
 C   -3.092025   -2.109326    1.252466
 C   -2.021629    2.528263    0.462288
 C   -1.087834    1.410149   -1.483229
 C   -2.667042    3.447707   -0.374309
 C   -1.727046    2.334113   -2.320342
 C   -2.507781    3.369519   -1.771381
 C    2.779942   -1.030677    0.531274
 C    1.940835    0.482983   -1.180568
 C    3.839390   -1.394597   -0.312158
 C    2.996013    0.102325   -2.023624
 C    3.966744   -0.844026   -1.611443
 H   -2.599423   -2.731824    3.266733
 O   -0.583558   -1.001648    3.418627
 H   -2.171554    2.577919    1.542985
 H   -0.569694    0.560083   -1.926859
 H   -3.295224    4.227391    0.060032
 H   -1.627449    2.241327   -3.403359
 H   -2.999945    4.093641   -2.422854
 H    2.693191   -1.467073    1.529934
 H    1.274569    1.279264   -1.489153
 H    4.568843   -2.121878    0.051583
 H    3.067224    0.566265   -3.010123
 N    5.031628   -1.224952   -2.472812
 H   -2.873511   -0.912117   -0.555222
 H   -3.915234   -2.786765    1.073257
 H    5.846881   -1.474846   -1.907151
 H    5.358413   -0.398027   -2.979510
}
set optking { 
  frozen_dihedral = ("
    1 2 3 4
    16 1 2 3
    2 3 6 11
    18 20 32 35
  ")
}
set {
  geom_maxiter 400
  g_convergence GAU_LOOSE
  dynamic_level 1
}
memory 8.166666666666666GB
set_num_threads(2)
psi4_io.set_default_path("/scratch/bdw2292/Psi4-1_7_Index_0_GrowFragment_0-farH_in17")
for _ in range(1):
  try:
    set opt_coordinates both
    optimize('wb97x-d/6-311G')
    break
  except OptimizationConvergenceError:
    break
  else:
    try:
      set opt_coordinates cartesian
      optimize('wb97x-d/6-311G')
      break
    except OptimizationConvergenceError:
      pass
clean()
--------------------------------------------------------------------------

  Memory set to   7.606 GiB by Python driver.
  Threads set to 2 by Python driver.

Scratch directory: /scratch/bdw2292/Psi4-1_7_Index_0_GrowFragment_0-farH_in17/

Scratch directory: /scratch/bdw2292/Psi4-1_7_Index_0_GrowFragment_0-farH_in17/
gradient() will perform analytic gradient computation.

*** tstart() called on node74.bme.utexas.edu
*** at Thu Jun  9 05:07:20 2022

   => Loading Basis Set <=

    Name: 6-311G
    Role: ORBITAL
    Keyword: BASIS
    atoms 1, 3-4, 6-7, 9-20   entry C          line    92 file /home/bdw2292/miniconda3/envs/newamoebamdpoltype/share/psi4/basis/6-311g.gbs 
    atoms 2, 8, 32            entry N          line   109 file /home/bdw2292/miniconda3/envs/newamoebamdpoltype/share/psi4/basis/6-311g.gbs 
    atoms 5, 21, 23-31, 33-36 entry H          line    21 file /home/bdw2292/miniconda3/envs/newamoebamdpoltype/share/psi4/basis/6-311g.gbs 
    atoms 22                  entry O          line   126 file /home/bdw2292/miniconda3/envs/newamoebamdpoltype/share/psi4/basis/6-311g.gbs 

   => WB97X-D: Empirical Dispersion <=

    Chai and Head-Gordon Dispersion Correction
    Chai, J.-D.; Head-Gordon, M. (2010), J. Chem. Phys., 132: 6615-6620

        s6 =       1.000000


         ---------------------------------------------------------
                                   SCF
               by Justin Turney, Rob Parrish, Andy Simmonett
                          and Daniel G. A. Smith
                              RKS Reference
                        2 Threads,   7788 MiB Core
         ---------------------------------------------------------

  ==> Geometry <==

    Molecular point group: c1
    Full point group: C1

    Geometry (in Angstrom), charge = 0, multiplicity = 1:

       Center              X                  Y                   Z               Mass       
    ------------   -----------------  -----------------  -----------------  -----------------
         C            1.769648646014    -0.221684866097     0.041972391857    12.000000000000
         N            0.697235646014     0.064902133903     0.939506391857    14.003074004430
         C           -0.628288353986     0.396896133903     0.821552391857    12.000000000000
         C           -1.496631353986    -0.651158866097     1.135849391857    12.000000000000
         H            0.821091646014    -0.394349866097     1.863759391857     1.007825032230
         C           -1.170462353986     1.429210133903    -0.122447608143    12.000000000000
         C           -2.566152353986    -1.270469866097     0.391928391857    12.000000000000
         N           -2.433446353986    -2.241554866097     2.424318391857    14.003074004430
         C           -1.421556353986    -1.310781866097     2.440633391857    12.000000000000
         C           -3.110716353986    -2.220914866097     1.199497391857    12.000000000000
         C           -2.040320353986     2.416674133903     0.409319391857    12.000000000000
         C           -1.106525353986     1.298560133903    -1.536197608143    12.000000000000
         C           -2.685733353986     3.336118133903    -0.427277608143    12.000000000000
         C           -1.745737353986     2.222524133903    -2.373310608143    12.000000000000
         C           -2.526472353986     3.257930133903    -1.824349608143    12.000000000000
         C            2.761250646014    -1.142265866097     0.478305391857    12.000000000000
         C            1.922143646014     0.371394133903    -1.233536608143    12.000000000000
         C            3.820698646014    -1.506185866097    -0.365126608143    12.000000000000
         C            2.977321646014    -0.009263866097    -2.076592608143    12.000000000000
         C            3.948052646014    -0.955614866097    -1.664411608143    12.000000000000
         H           -2.618114353986    -2.843412866097     3.213764391857     1.007825032230
         O           -0.602249353986    -1.113236866097     3.365658391857    15.994914619570
         H           -2.190245353986     2.466330133903     1.490016391857     1.007825032230
         H           -0.588385353986     0.448494133903    -1.979827608143     1.007825032230
         H           -3.313915353986     4.115802133903     0.007063391857     1.007825032230
         H           -1.646140353986     2.129738133903    -3.456327608143     1.007825032230
         H           -3.018636353986     3.982052133903    -2.475822608143     1.007825032230
         H            2.674499646014    -1.578661866097     1.476965391857     1.007825032230
         H            1.255877646014     1.167675133903    -1.542121608143     1.007825032230
         H            4.550151646014    -2.233466866097    -0.001385608143     1.007825032230
         H            3.048532646014     0.454676133903    -3.063091608143     1.007825032230
         N            5.012936646014    -1.336540866097    -2.525780608143    14.003074004430
         H           -2.892202353986    -1.023705866097    -0.608190608143     1.007825032230
         H           -3.933925353986    -2.898353866097     1.020288391857     1.007825032230
         H            5.828189646014    -1.586434866097    -1.960119608143     1.007825032230
         H            5.339721646014    -0.509615866097    -3.032478608143     1.007825032230

  Running in c1 symmetry.

  Rotational constants: A =      0.01267  B =      0.00756  C =      0.00532 [cm^-1]
  Rotational constants: A =    379.80569  B =    226.72204  C =    159.57354 [MHz]
  Nuclear repulsion = 1526.470734680643545

  Charge       = 0
  Multiplicity = 1
  Electrons    = 146
  Nalpha       = 73
  Nbeta        = 73

  ==> Algorithm <==

  SCF Algorithm Type is DF.
  DIIS enabled.
  MOM disabled.
  Fractional occupation disabled.
  Guess Type is SAD.
  Energy threshold   = 1.00e-08
  Density threshold  = 1.00e-08
  Integral threshold = 1.00e-12

  ==> Primary Basis <==

  Basis Set: 6-311G
    Blend: 6-311G
    Number of shells: 192
    Number of basis functions: 318
    Number of Cartesian functions: 318
    Spherical Harmonics?: true
    Max angular momentum: 1

  ==> DFT Potential <==

   => LibXC <=

    Version 5.1.5
    S. Lehtola, C. Steigemann, M. J. Oliveira, and M. A. Marques, SoftwareX 7, 1 (2018) (10.1016/j.softx.2017.11.002)

   => Composite Functional: WB97X-D <= 

    wB97X-D Hyb-GGA Exchange-Correlation Functional

    J.-D. Chai and M. Head-Gordon, Phys. Chem. Chem. Phys. 10, 6615 (2008) (10.1039/B810189B)

    Deriv               =              1
    GGA                 =           TRUE
    Meta                =          FALSE

    Exchange Hybrid     =           TRUE
    MP2 Hybrid          =          FALSE

   => Exchange-Correlation Functionals <=

    1.0000   wB97X-D range-separated functional

   => Exact (HF) Exchange <=

    0.7780            HF,LR [omega = 0.2000]
    0.2220               HF 

   => LibXC Density Thresholds  <==

    XC_HYB_GGA_XC_WB97X_D:  1.00E-14 

   => Molecular Quadrature <=

    Radial Scheme          =       TREUTLER
    Pruning Scheme         =           NONE
    Nuclear Scheme         =       TREUTLER

    BS radius alpha        =              1
    Pruning alpha          =              1
    Radial Points          =             75
    Spherical Points       =            302
    Total Points           =         742148
    Total Blocks           =           5295
    Max Points             =            256
    Max Functions          =            223
    Weights Tolerance      =       1.00E-15

   => Loading Basis Set <=

    Name: (6-311G AUX)
    Role: JKFIT
    Keyword: DF_BASIS_SCF
    atoms 1, 3-4, 6-7, 9-20   entry C          line   125 file /home/bdw2292/miniconda3/envs/newamoebamdpoltype/share/psi4/basis/cc-pvtz-jkfit.gbs 
    atoms 2, 8, 32            entry N          line   177 file /home/bdw2292/miniconda3/envs/newamoebamdpoltype/share/psi4/basis/cc-pvtz-jkfit.gbs 
    atoms 5, 21, 23-31, 33-36 entry H          line    51 file /home/bdw2292/miniconda3/envs/newamoebamdpoltype/share/psi4/basis/cc-pvtz-jkfit.gbs 
    atoms 22                  entry O          line   229 file /home/bdw2292/miniconda3/envs/newamoebamdpoltype/share/psi4/basis/cc-pvtz-jkfit.gbs 

  ==> Integral Setup <==

  DFHelper Memory: AOs need 3.541 GiB; user supplied 3.541 GiB. Using in-core AOs.

  ==> MemDFJK: Density-Fitted J/K Matrices <==

    J tasked:                   Yes
    K tasked:                   Yes
    wK tasked:                  Yes
    Omega:                2.000E-01
    OpenMP threads:               2
    Memory [MiB]:              3626
    Algorithm:                 Core
    Schwarz Cutoff:           1E-12
    Mask sparsity (%):      26.8660
    Fitting Condition:        1E-10

   => Auxiliary Basis Set <=

  Basis Set: (6-311G AUX)
    Blend: CC-PVTZ-JKFIT
    Number of shells: 675
    Number of basis functions: 2109
    Number of Cartesian functions: 2541
    Spherical Harmonics?: true
    Max angular momentum: 4

  Cached 50.0% of DFT collocation blocks in 1.543 [GiB].

  Minimum eigenvalue in the overlap matrix is 2.6601814787E-04.
  Reciprocal condition number of the overlap matrix is 3.9946749009E-05.
    Using symmetric orthogonalization.

  ==> Pre-Iterations <==

  SCF Guess: Superposition of Atomic Densities via on-the-fly atomic UHF (no occupation information).

   -------------------------
    Irrep   Nso     Nmo    
   -------------------------
     A        318     318 
   -------------------------
    Total     318     318
   -------------------------

  ==> Iterations <==

                           Total Energy        Delta E     RMS |[F,P]|

   @DF-RKS iter SAD:  -895.24736672617144   -8.95247e+02   0.00000e+00 
   @DF-RKS iter   1:  -895.24823271794833   -8.65992e-04   3.64991e-03 DIIS
   @DF-RKS iter   2:  -895.45727396516338   -2.09041e-01   3.27284e-03 DIIS
   @DF-RKS iter   3:  -895.86298008721826   -4.05706e-01   8.58909e-04 DIIS
   @DF-RKS iter   4:  -895.89260884827922   -2.96288e-02   2.11583e-04 DIIS
   @DF-RKS iter   5:  -895.89442562143029   -1.81677e-03   7.30421e-05 DIIS
   @DF-RKS iter   6:  -895.89470228997538   -2.76669e-04   1.40453e-05 DIIS
   @DF-RKS iter   7:  -895.89472657984061   -2.42899e-05   8.15561e-06 DIIS
   @DF-RKS iter   8:  -895.89473435444779   -7.77461e-06   3.14466e-06 DIIS
   @DF-RKS iter   9:  -895.89473749864078   -3.14419e-06   2.49366e-06 DIIS
   @DF-RKS iter  10:  -895.89473832376950   -8.25129e-07   6.61976e-07 DIIS
   @DF-RKS iter  11:  -895.89473844849078   -1.24721e-07   3.81643e-07 DIIS
   @DF-RKS iter  12:  -895.89473847234274   -2.38520e-08   1.20043e-07 DIIS
   @DF-RKS iter  13:  -895.89473847637430   -4.03156e-09   6.34832e-08 DIIS
   @DF-RKS iter  14:  -895.89473847680460   -4.30305e-10   2.70168e-08 DIIS
   @DF-RKS iter  15:  -895.89473847692034   -1.15733e-10   9.05211e-09 DIIS
  Energy and wave function converged.


  ==> Post-Iterations <==

   Electrons on quadrature grid:
      Ntotal   =  145.9997054609 ; deviation = -2.945e-04 

    Orbital Energies [Eh]
    ---------------------

    Doubly Occupied:                                                      

       1A    -19.203212     2A    -14.467803     3A    -14.466050  
       4A    -14.442380     5A    -10.383656     6A    -10.374721  
       7A    -10.349985     8A    -10.337972     9A    -10.326046  
      10A    -10.324811    11A    -10.311759    12A    -10.310521  
      13A    -10.310082    14A    -10.309152    15A    -10.307867  
      16A    -10.301771    17A    -10.298880    18A    -10.297968  
      19A    -10.296726    20A    -10.292679    21A    -10.285028  
      22A     -1.139177    23A     -1.065148    24A     -1.059852  
      25A     -1.031340    26A     -0.976640    27A     -0.949884  
      28A     -0.906822    29A     -0.872894    30A     -0.863650  
      31A     -0.854740    32A     -0.844618    33A     -0.810723  
      34A     -0.768728    35A     -0.726933    36A     -0.720208  
      37A     -0.712905    38A     -0.696147    39A     -0.684676  
      40A     -0.659103    41A     -0.639674    42A     -0.615850  
      43A     -0.604139    44A     -0.595370    45A     -0.595089  
      46A     -0.570239    47A     -0.558142    48A     -0.553428  
      49A     -0.539596    50A     -0.529695    51A     -0.524511  
      52A     -0.521480    53A     -0.514438    54A     -0.513874  
      55A     -0.508425    56A     -0.502019    57A     -0.493661  
      58A     -0.482457    59A     -0.472626    60A     -0.465904  
      61A     -0.455216    62A     -0.440552    63A     -0.432208  
      64A     -0.428311    65A     -0.404133    66A     -0.382135  
      67A     -0.345716    68A     -0.342672    69A     -0.335875  
      70A     -0.333400    71A     -0.326888    72A     -0.283872  
      73A     -0.236985  

    Virtual:                                                              

      74A     -0.026595    75A      0.044709    76A      0.049001  
      77A      0.054591    78A      0.080413    79A      0.115589  
      80A      0.119236    81A      0.126630    82A      0.134289  
      83A      0.139482    84A      0.142686    85A      0.157245  
      86A      0.163023    87A      0.164506    88A      0.171997  
      89A      0.177054    90A      0.187352    91A      0.197982  
      92A      0.201133    93A      0.201670    94A      0.214121  
      95A      0.222769    96A      0.232835    97A      0.239222  
      98A      0.275046    99A      0.283943   100A      0.295208  
     101A      0.304144   102A      0.308926   103A      0.326213  
     104A      0.339704   105A      0.341874   106A      0.343045  
     107A      0.346877   108A      0.358723   109A      0.370642  
     110A      0.378562   111A      0.381548   112A      0.387426  
     113A      0.403715   114A      0.410994   115A      0.418061  
     116A      0.424570   117A      0.431745   118A      0.441230  
     119A      0.444176   120A      0.453956   121A      0.464008  
     122A      0.470050   123A      0.477484   124A      0.479275  
     125A      0.483521   126A      0.484535   127A      0.492618  
     128A      0.492956   129A      0.500483   130A      0.505168  
     131A      0.508289   132A      0.511904   133A      0.517921  
     134A      0.521282   135A      0.524420   136A      0.538386  
     137A      0.546609   138A      0.548558   139A      0.550192  
     140A      0.557493   141A      0.564648   142A      0.572109  
     143A      0.579257   144A      0.586315   145A      0.586908  
     146A      0.606836   147A      0.612837   148A      0.622623  
     149A      0.626802   150A      0.638354   151A      0.643124  
     152A      0.649174   153A      0.656793   154A      0.663758  
     155A      0.673459   156A      0.676543   157A      0.682867  
     158A      0.689882   159A      0.700872   160A      0.704868  
     161A      0.710820   162A      0.719997   163A      0.722214  
     164A      0.725474   165A      0.729742   166A      0.736893  
     167A      0.741674   168A      0.752529   169A      0.754608  
     170A      0.764519   171A      0.770618   172A      0.772204  
     173A      0.775514   174A      0.787785   175A      0.792401  
     176A      0.805763   177A      0.832398   178A      0.842278  
     179A      0.845298   180A      0.852859   181A      0.858763  
     182A      0.868767   183A      0.872321   184A      0.880913  
     185A      0.885905   186A      0.895021   187A      0.904279  
     188A      0.910934   189A      0.912660   190A      0.924514  
     191A      0.943180   192A      0.950920   193A      0.965128  
     194A      0.976745   195A      0.985708   196A      0.986733  
     197A      1.001068   198A      1.025442   199A      1.032133  
     200A      1.036738   201A      1.048306   202A      1.059375  
     203A      1.083152   204A      1.097139   205A      1.135028  
     206A      1.138354   207A      1.158578   208A      1.167498  
     209A      1.183025   210A      1.188130   211A      1.266659  
     212A      1.302325   213A      1.343136   214A      1.364521  
     215A      1.397912   216A      1.455428   217A      1.475486  
     218A      1.568471   219A      1.834219   220A      2.281465  
     221A      2.295445   222A      2.318595   223A      2.344083  
     224A      2.354124   225A      2.359008   226A      2.377879  
     227A      2.390857   228A      2.416106   229A      2.422679  
     230A      2.444172   231A      2.460295   232A      2.486158  
     233A      2.577267   234A      2.590829   235A      2.620088  
     236A      2.630431   237A      2.640691   238A      2.661944  
     239A      2.668432   240A      2.684844   241A      2.692795  
     242A      2.707465   243A      2.727932   244A      2.775712  
     245A      2.779849   246A      2.792081   247A      2.802833  
     248A      2.817406   249A      2.828617   250A      2.837704  
     251A      2.850155   252A      2.866007   253A      2.882229  
     254A      2.900143   255A      2.902573   256A      2.920617  
     257A      2.940328   258A      2.960077   259A      2.964375  
     260A      2.996758   261A      3.018040   262A      3.023245  
     263A      3.073104   264A      3.105772   265A      3.134784  
     266A      3.144450   267A      3.155548   268A      3.172664  
     269A      3.202277   270A      3.209097   271A      3.228885  
     272A      3.235092   273A      3.257472   274A      3.286681  
     275A      3.291554   276A      3.310195   277A      3.316262  
     278A      3.318649   279A      3.338209   280A      3.352331  
     281A      3.372674   282A      3.395533   283A      3.442199  
     284A      3.502219   285A      3.549703   286A      3.816620  
     287A      3.859215   288A      3.938020   289A      4.056403  
     290A      4.066717   291A      4.117922   292A      4.232037  
     293A      4.286174   294A      4.290881   295A      5.007792  
     296A      5.112621   297A      5.141186   298A     23.227359  
     299A     23.258038   300A     23.340476   301A     23.466662  
     302A     23.479698   303A     23.488047   304A     23.503740  
     305A     23.515373   306A     23.609927   307A     23.704204  
     308A     23.723641   309A     23.745895   310A     23.768947  
     311A     23.793622   312A     23.871882   313A     23.975643  
     314A     23.979162   315A     35.527629   316A     35.541282  
     317A     35.583468   318A     50.084912  

    Final Occupation by Irrep:
              A 
    DOCC [    73 ]

  @DF-RKS Final Energy:  -895.89473847692034

   => Energetics <=

    Nuclear Repulsion Energy =           1526.4707346806435453
    One-Electron Energy =               -4245.4061277311193408
    Two-Electron Energy =                1910.6740068192493709
    DFT Exchange-Correlation Energy =     -87.6080051634328925
    Empirical Dispersion Energy =          -0.0253470822611627
    VV10 Nonlocal Energy =                  0.0000000000000000
    Total Energy =                       -895.8947384769204518

Computation Completed


Properties will be evaluated at   0.000000,   0.000000,   0.000000 [a0]

Properties computed using the SCF density matrix

  Nuclear Dipole Moment: [e a0]
     X:     3.0967      Y:     1.5955      Z:    -8.4680

  Electronic Dipole Moment: [e a0]
     X:    -3.2407      Y:    -1.2573      Z:     7.3748

  Dipole Moment: [e a0]
     X:    -0.1440      Y:     0.3383      Z:    -1.0932     Total:     1.1534

  Dipole Moment: [D]
     X:    -0.3660      Y:     0.8598      Z:    -2.7787     Total:     2.9316


*** tstop() called on node74.bme.utexas.edu at Thu Jun  9 05:09:59 2022
Module time:
	user time   =     306.46 seconds =       5.11 minutes
	system time =       7.39 seconds =       0.12 minutes
	total time  =        159 seconds =       2.65 minutes
Total time:
	user time   =     306.46 seconds =       5.11 minutes
	system time =       7.39 seconds =       0.12 minutes
	total time  =        159 seconds =       2.65 minutes

*** tstart() called on node74.bme.utexas.edu
*** at Thu Jun  9 05:09:59 2022


         ------------------------------------------------------------
                                   SCF GRAD                          
                          Rob Parrish, Justin Turney,                
                       Andy Simmonett, and Alex Sokolov              
         ------------------------------------------------------------

  ==> Geometry <==

    Molecular point group: c1
    Full point group: C1

    Geometry (in Angstrom), charge = 0, multiplicity = 1:

       Center              X                  Y                   Z               Mass       
    ------------   -----------------  -----------------  -----------------  -----------------
         C            1.769648646014    -0.221684866097     0.041972391857    12.000000000000
         N            0.697235646014     0.064902133903     0.939506391857    14.003074004430
         C           -0.628288353986     0.396896133903     0.821552391857    12.000000000000
         C           -1.496631353986    -0.651158866097     1.135849391857    12.000000000000
         H            0.821091646014    -0.394349866097     1.863759391857     1.007825032230
         C           -1.170462353986     1.429210133903    -0.122447608143    12.000000000000
         C           -2.566152353986    -1.270469866097     0.391928391857    12.000000000000
         N           -2.433446353986    -2.241554866097     2.424318391857    14.003074004430
         C           -1.421556353986    -1.310781866097     2.440633391857    12.000000000000
         C           -3.110716353986    -2.220914866097     1.199497391857    12.000000000000
         C           -2.040320353986     2.416674133903     0.409319391857    12.000000000000
         C           -1.106525353986     1.298560133903    -1.536197608143    12.000000000000
         C           -2.685733353986     3.336118133903    -0.427277608143    12.000000000000
         C           -1.745737353986     2.222524133903    -2.373310608143    12.000000000000
         C           -2.526472353986     3.257930133903    -1.824349608143    12.000000000000
         C            2.761250646014    -1.142265866097     0.478305391857    12.000000000000
         C            1.922143646014     0.371394133903    -1.233536608143    12.000000000000
         C            3.820698646014    -1.506185866097    -0.365126608143    12.000000000000
         C            2.977321646014    -0.009263866097    -2.076592608143    12.000000000000
         C            3.948052646014    -0.955614866097    -1.664411608143    12.000000000000
         H           -2.618114353986    -2.843412866097     3.213764391857     1.007825032230
         O           -0.602249353986    -1.113236866097     3.365658391857    15.994914619570
         H           -2.190245353986     2.466330133903     1.490016391857     1.007825032230
         H           -0.588385353986     0.448494133903    -1.979827608143     1.007825032230
         H           -3.313915353986     4.115802133903     0.007063391857     1.007825032230
         H           -1.646140353986     2.129738133903    -3.456327608143     1.007825032230
         H           -3.018636353986     3.982052133903    -2.475822608143     1.007825032230
         H            2.674499646014    -1.578661866097     1.476965391857     1.007825032230
         H            1.255877646014     1.167675133903    -1.542121608143     1.007825032230
         H            4.550151646014    -2.233466866097    -0.001385608143     1.007825032230
         H            3.048532646014     0.454676133903    -3.063091608143     1.007825032230
         N            5.012936646014    -1.336540866097    -2.525780608143    14.003074004430
         H           -2.892202353986    -1.023705866097    -0.608190608143     1.007825032230
         H           -3.933925353986    -2.898353866097     1.020288391857     1.007825032230
         H            5.828189646014    -1.586434866097    -1.960119608143     1.007825032230
         H            5.339721646014    -0.509615866097    -3.032478608143     1.007825032230

  Nuclear repulsion = 1526.470734680643545

  ==> Basis Set <==

  Basis Set: 6-311G
    Blend: 6-311G
    Number of shells: 192
    Number of basis functions: 318
    Number of Cartesian functions: 318
    Spherical Harmonics?: true
    Max angular momentum: 1

  ==> DFJKGrad: Density-Fitted SCF Gradients <==

    Gradient:                    1
    J tasked:                  Yes
    K tasked:                  Yes
    wK tasked:                 Yes
    Omega:               2.000E-01
    OpenMP threads:              2
    Integrals threads:           2
    Memory [MiB]:             5841
    Schwarz Cutoff:          1E-12
    Fitting Condition:       1E-10

   => Auxiliary Basis Set <=

  Basis Set: (6-311G AUX)
    Blend: CC-PVTZ-JKFIT
    Number of shells: 675
    Number of basis functions: 2109
    Number of Cartesian functions: 2541
    Spherical Harmonics?: true
    Max angular momentum: 4

  ==> DFT Potential <==

   => LibXC <=

    Version 5.1.5
    S. Lehtola, C. Steigemann, M. J. Oliveira, and M. A. Marques, SoftwareX 7, 1 (2018) (10.1016/j.softx.2017.11.002)

   => Composite Functional: WB97X-D <= 

    wB97X-D Hyb-GGA Exchange-Correlation Functional

    J.-D. Chai and M. Head-Gordon, Phys. Chem. Chem. Phys. 10, 6615 (2008) (10.1039/B810189B)

    Deriv               =              1
    GGA                 =           TRUE
    Meta                =          FALSE

    Exchange Hybrid     =           TRUE
    MP2 Hybrid          =          FALSE

   => Exchange-Correlation Functionals <=

    1.0000   wB97X-D range-separated functional

   => Exact (HF) Exchange <=

    0.7780            HF,LR [omega = 0.2000]
    0.2220               HF 

   => LibXC Density Thresholds  <==

    XC_HYB_GGA_XC_WB97X_D:  1.00E-14 

   => Molecular Quadrature <=

    Radial Scheme          =       TREUTLER
    Pruning Scheme         =           NONE
    Nuclear Scheme         =       TREUTLER

    BS radius alpha        =              1
    Pruning alpha          =              1
    Radial Points          =             75
    Spherical Points       =            302
    Total Points           =         742148
    Total Blocks           =           5295
    Max Points             =            256
    Max Functions          =            223
    Weights Tolerance      =       1.00E-15


  -Total Gradient:
     Atom            X                  Y                   Z
    ------   -----------------  -----------------  -----------------
       1       -0.001836680704    -0.012851540036     0.002618148913
       2       -0.036870824369    -0.007369459033    -0.050148063643
       3        0.010475740281     0.034645845753     0.068940568189
       4        0.008953371061    -0.016685379344    -0.025075837677
       5       -0.000370528428    -0.001079486825     0.017510450002
       6        0.016884923897     0.000301290240     0.014151054454
       7        0.020173552535    -0.014953899961    -0.008400639071
       8        0.007798364045     0.006342896010    -0.012545813757
       9       -0.010843952502     0.012950293994     0.018131721768
      10        0.003316289241     0.003129344088     0.002248583395
      11       -0.010785894078     0.001570324159     0.001047210566
      12       -0.000082884366    -0.003499886526    -0.007035948464
      13       -0.002549204165     0.000992177720     0.006858797086
      14        0.003935193186    -0.003602633770    -0.004465186176
      15       -0.004090994066     0.004576491375    -0.005658833944
      16        0.006920064355    -0.003786832657     0.008031573561
      17       -0.007339580404     0.004844233506    -0.006625225254
      18        0.005725184844    -0.004263433671     0.002194849657
      19       -0.001899837864     0.004840775200    -0.006323670584
      20        0.018010203613    -0.003791323549    -0.010721554661
      21        0.000163490655    -0.002988360840     0.007170799661
      22       -0.005040810816    -0.001598442406    -0.009025916231
      23       -0.001888485719     0.000414248867     0.006873561629
      24        0.002568930304    -0.005788144134    -0.003190859376
      25       -0.003379664697     0.005579184168     0.002467122803
      26        0.001621730469     0.000317327231    -0.006673121148
      27       -0.002903126210     0.004744659051    -0.004130441354
      28       -0.001464701101    -0.001718477879     0.007063730257
      29       -0.004451606130     0.004273754195    -0.000501014359
      30        0.003347456937    -0.004551990518     0.003201780647
      31       -0.001205803424     0.003224050360    -0.005606070194
      32       -0.019348744449    -0.025129898720    -0.015948640897
      33       -0.002267778894    -0.000339635527    -0.003391404907
      34       -0.005621927507    -0.000284690844     0.001684580639
      35        0.006362850762     0.012711663723     0.004997468941
      36        0.008018942014     0.008586661207     0.010106418431


*** tstop() called on node74.bme.utexas.edu at Thu Jun  9 05:11:06 2022
Module time:
	user time   =     127.87 seconds =       2.13 minutes
	system time =       1.86 seconds =       0.03 minutes
	total time  =         67 seconds =       1.12 minutes
Total time:
	user time   =     434.34 seconds =       7.24 minutes
	system time =       9.25 seconds =       0.15 minutes
	total time  =        226 seconds =       3.77 minutes

			-----------------------------------------
			 OPTKING 2.0: for geometry optimizations 
			  - R.A. King,  Bethel University        
			-----------------------------------------
	At level 1: Red. Int., RFO, no backsteps, dynamic trust

	Internal coordinates to be generated automatically.
	Detected frag 1 with atoms:  1 2 3 4 5 6 7 8 9 10 11 12 13 14 15 16 17 18 19 20
	 21 22 23 24 25 26 27 28 29 30 31 32 33 34 35 36
	---Fragment 1 Bond Connectivity---
	 1 : 2 16 17
	 2 : 1 3 5
	 3 : 2 4 6
	 4 : 3 7 9
	 5 : 2
	 6 : 3 11 12
	 7 : 4 10 33
	 8 : 9 10 21
	 9 : 4 8 22
	 10 : 7 8 34
	 11 : 6 13 23
	 12 : 6 14 24
	 13 : 11 15 25
	 14 : 12 15 26
	 15 : 13 14 27
	 16 : 1 18 28
	 17 : 1 19 29
	 18 : 16 20 30
	 19 : 17 20 31
	 20 : 18 19 32
	 21 : 8
	 22 : 9
	 23 : 11
	 24 : 12
	 25 : 13
	 26 : 14
	 27 : 15
	 28 : 16
	 29 : 17
	 30 : 18
	 31 : 19
	 32 : 20 35 36
	 33 : 7
	 34 : 10
	 35 : 32
	 36 : 32

	Assuming in current code that numbering for constraints corresponds to unified fragment.
	Frozen dihedral atom list: 
	     1     2     3     4
	    16     1     2     3
	     2     3     6    11
	    18    20    32    35
	---Fragment 1 Geometry and Gradient---
	 C           3.3441512793       -0.4189236831        0.0793163254
	 N           1.3175844159        0.1226472580        1.7754097737
	 C          -1.1872929168        0.7500249933        1.5525090183
	 C          -2.8282233698       -1.2305119211        2.1464442704
	 H           1.5516383349       -0.7452132445        3.5219948144
	 C          -2.2118532892        2.7008157288       -0.2313924441
	 C          -4.8493251452       -2.4008400976        0.7406373214
	 N          -4.5985471500       -4.2359247921        4.5812978015
	 C          -2.6863521809       -2.4770187371        4.6121286833
	 C          -5.8784019630       -4.1969208449        2.2667215588
	 C          -3.8556466772        4.5668522476        0.7735015484
	 C          -2.0910298699        2.4539230105       -2.9029927540
	 C          -5.0753004850        6.3043495952       -0.8074376589
	 C          -3.2989654860        4.1999619203       -4.4849070600
	 C          -4.7743408126        6.1565956890       -3.4475211165
	 C           5.2180074847       -2.1585696494        0.9038661949
	 C           3.6323250648        0.7018331977       -2.3310463551
	 C           7.2200740489       -2.8462787810       -0.6899892905
	 C           5.6263224984       -0.0175061698       -3.9241913035
	 C           7.4607382299       -1.8058503783       -3.1452820994
	 H          -4.9475190942       -5.3732715785        6.0731345324
	 O          -1.1380863383       -2.1037127897        6.3601725925
	 H          -4.1389638666        4.6606884880        2.8157229031
	 H          -1.1118871753        0.8475310820       -3.7413319550
	 H          -6.2623924220        7.7777388197        0.0133478761
	 H          -3.1107544331        4.0246217920       -6.5315125792
	 H          -5.7043959814        7.5249879504       -4.6786266646
	 H           5.0540718536       -2.9832385716        2.7910600874
	 H           2.3732647981        2.2065862066       -2.9141874915
	 H           8.5985404403       -4.2206406872       -0.0026184199
	 H           5.7608917855        0.8592133689       -5.7884042366
	 N           9.4730773452       -2.5256961924       -4.7730336024
	 H          -5.4654703484       -1.9345237199       -1.1493136815
	 H          -7.4340415170       -5.4770950216        1.9280656296
	 H          11.0136822382       -2.9979274128       -3.7040892325
	 H          10.0906114971       -0.9630344161       -5.7305540507
	            -0.0018366807       -0.0128515400        0.0026181489
	            -0.0368708244       -0.0073694590       -0.0501480636
	             0.0104757403        0.0346458458        0.0689405682
	             0.0089533711       -0.0166853793       -0.0250758377
	            -0.0003705284       -0.0010794868        0.0175104500
	             0.0168849239        0.0003012902        0.0141510545
	             0.0201735525       -0.0149539000       -0.0084006391
	             0.0077983640        0.0063428960       -0.0125458138
	            -0.0108439525        0.0129502940        0.0181317218
	             0.0033162892        0.0031293441        0.0022485834
	            -0.0107858941        0.0015703242        0.0010472106
	            -0.0000828844       -0.0034998865       -0.0070359485
	            -0.0025492042        0.0009921777        0.0068587971
	             0.0039351932       -0.0036026338       -0.0044651862
	            -0.0040909941        0.0045764914       -0.0056588339
	             0.0069200644       -0.0037868327        0.0080315736
	            -0.0073395804        0.0048442335       -0.0066252253
	             0.0057251848       -0.0042634337        0.0021948497
	            -0.0018998379        0.0048407752       -0.0063236706
	             0.0180102036       -0.0037913235       -0.0107215547
	             0.0001634907       -0.0029883608        0.0071707997
	            -0.0050408108       -0.0015984424       -0.0090259162
	            -0.0018884857        0.0004142489        0.0068735616
	             0.0025689303       -0.0057881441       -0.0031908594
	            -0.0033796647        0.0055791842        0.0024671228
	             0.0016217305        0.0003173272       -0.0066731211
	            -0.0029031262        0.0047446591       -0.0041304414
	            -0.0014647011       -0.0017184779        0.0070637303
	            -0.0044516061        0.0042737542       -0.0005010144
	             0.0033474569       -0.0045519905        0.0032017806
	            -0.0012058034        0.0032240504       -0.0056060702
	            -0.0193487444       -0.0251298987       -0.0159486409
	            -0.0022677789       -0.0003396355       -0.0033914049
	            -0.0056219275       -0.0002846908        0.0016845806
	             0.0063628508        0.0127116637        0.0049974689
	             0.0080189420        0.0085866612        0.0101064184

	Previous optimization step data not found.  Starting new optimization.

	---Fragment 1 Intrafragment Coordinates---
	 - Coordinate -           - BOHR/RAD -       - ANG/DEG -
	 H(5,22)          =         4.139492	       2.190525
	 R(1,2)           =         2.697593	       1.427504
	 R(1,16)          =         2.686557	       1.421665
	 R(1,17)          =         2.673759	       1.414892
	 R(2,3)           =         2.591852	       1.371549
	 R(2,5)           =         1.964312	       1.039469
	 R(3,4)           =         2.639685	       1.396861
	 R(3,6)           =         2.835068	       1.500254
	 R(4,7)           =         2.725952	       1.442512
	 R(4,9)           =         2.766497	       1.463967
	 R(6,11)          =         2.682156	       1.419336
	 R(6,12)          =         2.685703	       1.421213
	 R(7,10)          =         2.571738	       1.360905
	 R(7,33)          =         2.041813	       1.080481
	 R(8,9)           =         2.598305	       1.374964
	 R(8,10)          =         2.645149	       1.399753
	 R(8,21)          =         1.908118	       1.009733
	 R(9,22)          =         2.364771	       1.251383
	 R(10,34)         =         2.042926	       1.081070
	 R(11,13)         =         2.646851	       1.400653
	 R(11,23)         =         2.063914	       1.092176
	 R(12,14)         =         2.647681	       1.401092
	 R(12,24)         =         2.059618	       1.089903
	 R(13,15)         =         2.661287	       1.408292
	 R(13,25)         =         2.062463	       1.091408
	 R(14,15)         =         2.661075	       1.408180
	 R(14,26)         =         2.062707	       1.091538
	 R(15,27)         =         2.062310	       1.091327
	 R(16,18)         =         2.649828	       1.402229
	 R(16,28)         =         2.066024	       1.093293
	 R(17,19)         =         2.651714	       1.403226
	 R(17,29)         =         2.046843	       1.083143
	 R(18,20)         =         2.677475	       1.416859
	 R(18,30)         =         2.064345	       1.092404
	 R(19,20)         =         2.677677	       1.416966
	 R(19,31)         =         2.064470	       1.092470
	 R(20,32)         =         2.686496	       1.421633
	 R(32,35)         =         1.933677	       1.023258
	 R(32,36)         =         1.933935	       1.023394
	 B(1,2,3)         =         2.375412	     136.101054
	 B(1,2,5)         =         1.961501	     112.385714
	 B(1,16,18)       =         2.106487	     120.692800
	 B(1,16,28)       =         2.075417	     118.912633
	 B(1,17,19)       =         2.104760	     120.593844
	 B(1,17,29)       =         2.092883	     119.913391
	 B(2,1,16)        =         2.049941	     117.452967
	 B(2,1,17)        =         2.169559	     124.306567
	 B(2,3,4)         =         1.982110	     113.566542
	 B(2,3,6)         =         2.177221	     124.745567
	 B(3,2,5)         =         1.873987	     107.371571
	 B(3,4,7)         =         2.300954	     131.834933
	 B(3,4,9)         =         2.102171	     120.445542
	 B(3,6,11)        =         2.053818	     117.675128
	 B(3,6,12)        =         2.148867	     123.121031
	 B(4,3,6)         =         2.018832	     115.670548
	 B(4,7,10)        =         1.865540	     106.887565
	 B(4,7,33)        =         2.218104	     127.087990
	 B(4,9,8)         =         1.830398	     104.874109
	 B(4,9,22)        =         2.241163	     128.409160
	 B(6,11,13)       =         2.112181	     121.019048
	 B(6,11,23)       =         2.078854	     119.109554
	 B(6,12,14)       =         2.109690	     120.876328
	 B(6,12,24)       =         2.092070	     119.866791
	 B(7,4,9)         =         1.879911	     107.710960
	 B(7,10,8)        =         1.913391	     109.629242
	 B(7,10,34)       =         2.270476	     130.088711
	 B(8,9,22)        =         2.211138	     126.688879
	 B(8,10,34)       =         2.099313	     120.281791
	 B(9,8,10)        =         1.935299	     110.884490
	 B(9,8,21)        =         2.127999	     121.925364
	 B(10,7,33)       =         2.199407	     126.016724
	 B(10,8,21)       =         2.219842	     127.187603
	 B(11,6,12)       =         2.053550	     117.659729
	 B(11,13,15)      =         2.098992	     120.263404
	 B(11,13,25)      =         2.090322	     119.766654
	 B(12,14,15)      =         2.100079	     120.325654
	 B(12,14,26)      =         2.088772	     119.677825
	 B(13,11,23)      =         2.091988	     119.862055
	 B(13,15,14)      =         2.083176	     119.357210
	 B(13,15,27)      =         2.099437	     120.288861
	 B(14,12,24)      =         2.080639	     119.211811
	 B(14,15,27)      =         2.100405	     120.344318
	 B(15,13,25)      =         2.093870	     119.969939
	 B(15,14,26)      =         2.094262	     119.992396
	 B(16,1,17)       =         2.063415	     118.224970
	 B(16,18,20)      =         2.116060	     121.241285
	 B(16,18,30)      =         2.068057	     118.490926
	 B(17,19,20)      =         2.119479	     121.437228
	 B(17,19,31)      =         2.067277	     118.446225
	 B(18,16,28)      =         2.101092	     120.383686
	 B(18,20,19)      =         2.054090	     117.690711
	 B(18,20,32)      =         2.116278	     121.253788
	 B(19,17,29)      =         2.083820	     119.394093
	 B(19,20,32)      =         2.112816	     121.055450
	 B(20,18,30)      =         2.099051	     120.266789
	 B(20,19,31)      =         2.096293	     120.108740
	 B(20,32,35)      =         1.904224	     109.103973
	 B(20,32,36)      =         1.899342	     108.824272
	 B(35,32,36)      =         1.789154	     102.510964
	*D(1,2,3,4)       =         1.841173	     105.491459
	 D(1,2,3,6)       =        -0.800707	     -45.877128
	 D(1,16,18,20)    =         0.017217	       0.986459
	 D(1,16,18,30)    =        -3.118045	    -178.650836
	 D(1,17,19,20)    =        -0.041895	      -2.400430
	 D(1,17,19,31)    =         3.117424	     178.615254
	 D(2,1,16,18)     =         3.105062	     177.906960
	 D(2,1,16,28)     =        -0.015667	      -0.897658
	 D(2,1,17,19)     =        -3.094809	    -177.319495
	 D(2,1,17,29)     =         0.110198	       6.313882
	 D(2,3,4,7)       =        -2.179156	    -124.856422
	 D(2,3,4,9)       =         0.983494	      56.350035
	*D(2,3,6,11)      =        -2.261816	    -129.592517
	 D(2,3,6,12)      =         1.133245	      64.930170
	*D(3,2,1,16)      =        -2.593044	    -148.570498
	 D(3,2,1,17)      =         0.574047	      32.890444
	 D(3,4,7,10)      =        -3.106778	    -178.005278
	 D(3,4,7,33)      =         0.017916	       1.026526
	 D(3,4,9,8)       =         3.104532	     177.876602
	 D(3,4,9,22)      =        -0.069143	      -3.961621
	 D(3,6,11,13)     =        -3.035726	    -173.934274
	 D(3,6,11,23)     =         0.125302	       7.179302
	 D(3,6,12,14)     =         3.027864	     173.483818
	 D(3,6,12,24)     =        -0.070777	      -4.055241
	 D(4,3,2,5)       =        -0.850749	     -48.744323
	 D(4,3,6,11)      =         1.388778	      79.571116
	 D(4,3,6,12)      =        -1.499346	     -85.906197
	 D(4,7,10,8)      =        -0.004766	      -0.273085
	 D(4,7,10,34)     =         3.133553	     179.539390
	 D(4,9,8,10)      =         0.018114	       1.037857
	 D(4,9,8,21)      =        -3.132921	    -179.503166
	 D(5,2,1,16)      =         0.083291	       4.772212
	 D(5,2,1,17)      =        -3.032804	    -173.766846
	 D(5,2,3,6)       =         2.790556	     159.887090
	 D(6,3,4,7)       =         0.510344	      29.240546
	 D(6,3,4,9)       =        -2.610192	    -149.552997
	 D(6,11,13,15)    =         0.048888	       2.801102
	 D(6,11,13,25)    =        -3.092339	    -177.177989
	 D(6,12,14,15)    =        -0.061436	      -3.519997
	 D(6,12,14,26)    =         3.093052	     177.218832
	 D(7,4,9,8)       =        -0.020591	      -1.179806
	 D(7,4,9,22)      =         3.088918	     176.981971
	 D(7,10,8,9)      =        -0.008901	      -0.509994
	 D(7,10,8,21)     =        -3.140434	    -179.933605
	 D(8,10,7,33)     =        -3.129693	    -179.318220
	 D(9,4,7,10)      =         0.015758	       0.902886
	 D(9,4,7,33)      =         3.140453	     179.934690
	 D(9,8,10,34)     =         3.135591	     179.656139
	 D(10,8,9,22)     =        -3.092128	    -177.165879
	 D(11,6,12,14)    =         0.139703	       8.004414
	 D(11,6,12,24)    =        -2.958938	    -169.534646
	 D(11,13,15,14)   =         0.033628	       1.926758
	 D(11,13,15,27)   =        -3.127578	    -179.197032
	 D(12,6,11,13)    =        -0.133530	      -7.650690
	 D(12,6,11,23)    =         3.027498	     173.462886
	 D(12,14,15,13)   =        -0.027329	      -1.565809
	 D(12,14,15,27)   =         3.133889	     179.558618
	 D(13,15,14,26)   =         3.101328	     177.693032
	 D(14,15,13,25)   =        -3.108330	    -178.094193
	 D(15,13,11,23)   =        -3.112285	    -178.320775
	 D(15,14,12,24)   =         3.037483	     174.034963
	 D(16,1,17,19)    =         0.072464	       4.151882
	 D(16,1,17,29)    =        -3.005714	    -172.214741
	 D(16,18,20,19)   =         0.014884	       0.852799
	 D(16,18,20,32)   =        -3.128135	    -179.228921
	 D(17,1,16,18)    =        -0.060435	      -3.462663
	 D(17,1,16,28)    =         3.102021	     177.732719
	 D(17,19,20,18)   =        -0.002676	      -0.153351
	 D(17,19,20,32)   =         3.140339	     179.928198
	 D(18,20,19,31)   =         3.120898	     178.814303
	*D(18,20,32,35)   =        -0.522488	     -29.936345
	 D(18,20,32,36)   =        -2.461853	    -141.053806
	 D(19,20,18,30)   =        -3.133150	    -179.516291
	 D(19,20,32,35)   =         2.617631	     149.979187
	 D(19,20,32,36)   =         0.678265	      38.861726
	 D(20,18,16,28)   =         3.137639	     179.773476
	 D(20,19,17,29)   =         3.036610	     173.984918
	 D(21,8,9,22)     =         0.040022	       2.293099
	 D(21,8,10,34)    =         0.004058	       0.232528
	 D(23,11,13,25)   =         0.029673	       1.700134
	 D(24,12,14,26)   =        -0.091215	      -5.226208
	 D(25,13,15,27)   =         0.013649	       0.782016
	 D(26,14,15,27)   =        -0.020639	      -1.182541
	 D(28,16,18,30)   =         0.002377	       0.136181
	 D(29,17,19,31)   =        -0.087256	      -4.999398
	 D(30,18,20,32)   =         0.007016	       0.401989
	 D(31,19,20,32)   =        -0.019271	      -1.104147
	 D(33,7,10,34)    =         0.008626	       0.494256
	 R(1,12)          =         6.832906	       3.615818
	 R(2,22)          =         5.657477	       2.993808
	 R(6,17)          =         6.523718	       3.452203
	 R(7,11)          =         7.038268	       3.724491
	 R(7,12)          =         6.667305	       3.528186
	 R(12,17)         =         6.012797	       3.181835

	Current energy   :      -895.8947384769

	Generating empirical Hessian (Schlegel '84) for each fragment.
	Taking RFO optimization step.
	Going to follow RFO solution 1.
	Using RFO vector 1.

	Determining step-restricting scale parameter for RS-RFO.
	Maximum step size allowed    0.50000

	 Iter      |step|        alpha        rfo_root  
	------------------------------------------------
	    0     0.69559       1.00000           1
	    1     0.55836       1.67767           1
	    2     0.50812       2.08226           1
	    3     0.50020       2.15800           1
	    4     0.50000       2.15994           1
	------------------------------------------------
	Norm of target step-size    0.50000
	Projected energy change by RFO approximation:        -0.0151935753

	Back-transformation to cartesian coordinates...
	Could not converge backtransformation.
	Using first guess instead.

	Back-transformation to cartesian coordinates to adjust frozen coordinates...
	Successfully converged to displaced geometry.

	--- Internal Coordinate Step in ANG or DEG, aJ/ANG or AJ/DEG ---
	 ---------------------------------------------------------------------------
	   Coordinate                Previous        Force       Change         New 
	   ----------                --------       ------       ------       ------
	    1 H(5,22)         =      2.190525     0.040169     0.015674     2.206199
	    2 R(1,2)          =      1.427504    -0.144552    -0.018167     1.409338
	    3 R(1,16)         =      1.421665    -0.151540    -0.017973     1.403691
	    4 R(1,17)         =      1.414892    -0.121412    -0.014419     1.400473
	    5 R(2,3)          =      1.371549     0.175853     0.023364     1.394913
	    6 R(2,5)          =      1.039469    -0.104688    -0.017157     1.022312
	    7 R(3,4)          =      1.396861     0.090333     0.021057     1.417918
	    8 R(3,6)          =      1.500254     0.030694     0.008917     1.509171
	    9 R(4,7)          =      1.442512     0.059913     0.026742     1.469254
	   10 R(4,9)          =      1.463967     0.009535     0.024979     1.488946
	   11 R(6,11)         =      1.419336    -0.063914    -0.006452     1.412884
	   12 R(6,12)         =      1.421213    -0.139001    -0.016302     1.404911
	   13 R(7,10)         =      1.360905    -0.007152     0.001506     1.362412
	   14 R(7,33)         =      1.080481    -0.030959     0.009093     1.089573
	   15 R(8,9)          =      1.374964     0.069808     0.012412     1.387376
	   16 R(8,10)         =      1.399753     0.010024     0.017807     1.417559
	   17 R(8,21)         =      1.009733    -0.060575    -0.001051     1.008681
	   18 R(9,22)         =      1.251383     0.087686     0.023724     1.275106
	   19 R(10,34)        =      1.081070    -0.034513    -0.002220     1.078850
	   20 R(11,13)        =      1.400653    -0.080107    -0.008643     1.392010
	   21 R(11,23)        =      1.092176    -0.058484    -0.008297     1.083880
	   22 R(12,14)        =      1.401092    -0.073037    -0.007830     1.393262
	   23 R(12,24)        =      1.089903    -0.057811    -0.008338     1.081565
	   24 R(13,15)        =      1.408292    -0.126824    -0.015116     1.393176
	   25 R(13,25)        =      1.091408    -0.057085    -0.008373     1.083035
	   26 R(14,15)        =      1.408180    -0.115287    -0.014198     1.393982
	   27 R(14,26)        =      1.091538    -0.055382    -0.007530     1.084008
	   28 R(15,27)        =      1.091327    -0.057013    -0.007808     1.083519
	   29 R(16,18)        =      1.402229    -0.123146    -0.014715     1.387514
	   30 R(16,28)        =      1.093293    -0.059776    -0.008380     1.084913
	   31 R(17,19)        =      1.403226    -0.102532    -0.011998     1.391228
	   32 R(17,29)        =      1.083143    -0.049669    -0.006462     1.076681
	   33 R(18,20)        =      1.416859    -0.136123    -0.016751     1.400108
	   34 R(18,30)        =      1.092404    -0.052129    -0.007180     1.085224
	   35 R(19,20)        =      1.416966    -0.146506    -0.017589     1.399376
	   36 R(19,31)        =      1.092470    -0.052335    -0.006953     1.085518
	   37 R(20,32)        =      1.421633     0.018145     0.002618     1.424250
	   38 R(32,35)        =      1.023258    -0.038937    -0.003535     1.019722
	   39 R(32,36)        =      1.023394    -0.037165     0.004660     1.028054
	   40 B(1,2,3)        =    136.101054     0.000128     0.214459   136.315513
	   41 B(1,2,5)        =    112.385714    -0.000201    -2.016026   110.369688
	   42 B(1,16,18)      =    120.692800    -0.000008     0.061647   120.754447
	   43 B(1,16,28)      =    118.912633     0.000115     0.369843   119.282476
	   44 B(1,17,19)      =    120.593844    -0.000148    -0.238434   120.355410
	   45 B(1,17,29)      =    119.913391     0.000190     0.521020   120.434412
	   46 B(2,1,16)       =    117.452967    -0.000262    -1.151107   116.301860
	   47 B(2,1,17)       =    124.306567     0.000135     0.937069   125.243636
	   48 B(2,3,4)        =    113.566542     0.000837     3.582828   117.149370
	   49 B(2,3,6)        =    124.745567    -0.000398    -2.143860   122.601706
	   50 B(3,2,5)        =    107.371571    -0.000027     0.923289   108.294860
	   51 B(3,4,7)        =    131.834933     0.000376     0.001266   131.836199
	   52 B(3,4,9)        =    120.445542    -0.000053     0.559900   121.005443
	   53 B(3,6,11)       =    117.675128     0.000414     0.754569   118.429697
	   54 B(3,6,12)       =    123.121031    -0.000339    -0.701460   122.419571
	   55 B(4,3,6)        =    115.670548    -0.000303    -0.351718   115.318831
	   56 B(4,7,10)       =    106.887565     0.000261     0.249005   107.136570
	   57 B(4,7,33)       =    127.087990    -0.000257    -0.293876   126.794114
	   58 B(4,9,8)        =    104.874109     0.000179    -0.169261   104.704847
	   59 B(4,9,22)       =    128.409160    -0.000163     1.253214   129.662374
	   60 B(6,11,13)      =    121.019048     0.000042     0.235271   121.254319
	   61 B(6,11,23)      =    119.109554    -0.000073    -0.310087   118.799467
	   62 B(6,12,14)      =    120.876328     0.000051     0.259625   121.135953
	   63 B(6,12,24)      =    119.866791    -0.000055    -0.230234   119.636557
	   64 B(7,4,9)        =    107.710960    -0.000318    -0.559039   107.151921
	   65 B(7,10,8)       =    109.629242     0.000021     0.235157   109.864399
	   66 B(7,10,34)      =    130.088711    -0.000086    -0.727575   129.361136
	   67 B(8,9,22)       =    126.688879    -0.000016    -1.060932   125.627947
	   68 B(8,10,34)      =    120.281791     0.000065     0.492571   120.774362
	   69 B(9,8,10)       =    110.884490    -0.000145     0.207211   111.091701
	   70 B(9,8,21)       =    121.925364     0.000247    -0.163810   121.761554
	   71 B(10,7,33)      =    126.016724    -0.000001     0.049893   126.066617
	   72 B(10,8,21)      =    127.187603    -0.000104    -0.076909   127.110694
	   73 B(11,6,12)      =    117.659729    -0.000141    -0.531143   117.128586
	   74 B(11,13,15)     =    120.263404    -0.000038    -0.072505   120.190899
	   75 B(11,13,25)     =    119.766654    -0.000007    -0.043676   119.722977
	   76 B(12,14,15)     =    120.325654     0.000058     0.104275   120.429929
	   77 B(12,14,26)     =    119.677825    -0.000040    -0.066387   119.611437
	   78 B(13,11,23)     =    119.862055     0.000031     0.073237   119.935292
	   79 B(13,15,14)     =    119.357210     0.000019    -0.051076   119.306134
	   80 B(13,15,27)     =    120.288861    -0.000009     0.043066   120.331927
	   81 B(14,12,24)     =    119.211811     0.000003    -0.043877   119.167934
	   82 B(14,15,27)     =    120.344318    -0.000011    -0.003142   120.341176
	   83 B(15,13,25)     =    119.969939     0.000046     0.113569   120.083508
	   84 B(15,14,26)     =    119.992396    -0.000018    -0.041110   119.951287
	   85 B(16,1,17)      =    118.224970     0.000123     0.138717   118.363687
	   86 B(16,18,20)     =    121.241285    -0.000052    -0.179664   121.061621
	   87 B(16,18,30)     =    118.490926     0.000136     0.422911   118.913837
	   88 B(17,19,20)     =    121.437228    -0.000036    -0.077657   121.359571
	   89 B(17,19,31)     =    118.446225     0.000149     0.424976   118.871200
	   90 B(18,16,28)     =    120.383686    -0.000107    -0.436620   119.947066
	   91 B(18,20,19)     =    117.690711     0.000119     0.263120   117.953831
	   92 B(18,20,32)     =    121.253788    -0.000030    -0.041214   121.212574
	   93 B(19,17,29)     =    119.394093    -0.000043    -0.286861   119.107232
	   94 B(19,20,32)     =    121.055450    -0.000088    -0.249614   120.805836
	   95 B(20,18,30)     =    120.266789    -0.000084    -0.242792   120.023998
	   96 B(20,19,31)     =    120.108740    -0.000113    -0.349562   119.759178
	   97 B(20,32,35)     =    109.103973     0.000626     2.878984   111.982957
	   98 B(20,32,36)     =    108.824272     0.000730     3.072301   111.896573
	   99 B(35,32,36)     =    102.510964     0.000293     2.698600   105.209563
	  100 *D(1,2,3,4)     =    105.491459     0.000000    -0.000000   105.491459
	  101 D(1,2,3,6)      =    -45.877128    -0.000058    -2.590101   -48.467230
	  102 D(1,16,18,20)   =      0.986459     0.000017     0.593867     1.580326
	  103 D(1,16,18,30)   =   -178.650836     0.000014     0.499365  -178.151472
	  104 D(1,17,19,20)   =     -2.400430    -0.000014    -0.501933    -2.902363
	  105 D(1,17,19,31)   =    178.615254    -0.000010    -0.361330   178.253924
	  106 D(2,1,16,18)    =    177.906960     0.000033     1.329273   179.236234
	  107 D(2,1,16,28)    =     -0.897658     0.000040     1.590225     0.692567
	  108 D(2,1,17,19)    =   -177.319495    -0.000040    -1.602030  -178.921525
	  109 D(2,1,17,29)    =      6.313882    -0.000037    -1.513674     4.800208
	  110 D(2,3,4,7)      =   -124.856422    -0.000303    -9.021001  -133.877423
	  111 D(2,3,4,9)      =     56.350035    -0.000379   -11.278078    45.071957
	  112 *D(2,3,6,11)    =   -129.592517     0.000000     0.000000  -129.592517
	  113 D(2,3,6,12)     =     64.930170     0.000074     2.126126    67.056297
	  114 *D(3,2,1,16)    =   -148.570498    -0.000000    -0.000000  -148.570498
	  115 D(3,2,1,17)     =     32.890444     0.000048     2.075476    34.965919
	  116 D(3,4,7,10)     =   -178.005278    -0.000075    -2.677081  -180.682360
	  117 D(3,4,7,33)     =      1.026526    -0.000036    -1.137423    -0.110897
	  118 D(3,4,9,8)      =    177.876602     0.000043     1.407944   179.284546
	  119 D(3,4,9,22)     =     -3.961621     0.000045     2.468731    -1.492889
	  120 D(3,6,11,13)    =   -173.934274     0.000054     1.454812  -172.479462
	  121 D(3,6,11,23)    =      7.179302     0.000056     1.544508     8.723810
	  122 D(3,6,12,14)    =    173.483818    -0.000047    -1.749371   171.734447
	  123 D(3,6,12,24)    =     -4.055241    -0.000040    -1.380211    -5.435453
	  124 D(4,3,2,5)      =    -48.744323     0.000083     2.959604   -45.784719
	  125 D(4,3,6,11)     =     79.571116    -0.000125    -3.558892    76.012224
	  126 D(4,3,6,12)     =    -85.906197    -0.000051    -1.432766   -87.338962
	  127 D(4,7,10,8)     =     -0.273085     0.000028     1.397325     1.124240
	  128 D(4,7,10,34)    =    179.539390     0.000044     1.702757   181.242147
	  129 D(4,9,8,10)     =      1.037857     0.000038     1.226115     2.263971
	  130 D(4,9,8,21)     =   -179.503166    -0.000008    -0.270604  -179.773770
	  131 D(5,2,1,16)     =      4.772212    -0.000077    -2.468814     2.303398
	  132 D(5,2,1,17)     =   -173.766846    -0.000029    -0.393339  -174.160185
	  133 D(5,2,3,6)      =    159.887090     0.000024     0.369502   160.256592
	  134 D(6,3,4,7)      =     29.240546    -0.000266    -7.269262    21.971283
	  135 D(6,3,4,9)      =   -149.552997    -0.000342    -9.526340  -159.079337
	  136 D(6,11,13,15)   =      2.801102     0.000018     0.522844     3.323946
	  137 D(6,11,13,25)   =   -177.177989    -0.000001    -0.085827  -177.263816
	  138 D(6,12,14,15)   =     -3.519997     0.000006     0.294900    -3.225096
	  139 D(6,12,14,26)   =    177.218832     0.000012     0.542506   177.761338
	  140 D(7,4,9,8)      =     -1.179806    -0.000019    -0.354833    -1.534639
	  141 D(7,4,9,22)     =    176.981971    -0.000016     0.705955   177.687926
	  142 D(7,10,8,9)     =     -0.509994    -0.000042    -1.724165    -2.234159
	  143 D(7,10,8,21)    =   -179.933605     0.000005    -0.127898  -180.061503
	  144 D(8,10,7,33)    =   -179.318220    -0.000009    -0.123672  -179.441892
	  145 D(9,4,7,10)     =      0.902886    -0.000005    -0.642837     0.260049
	  146 D(9,4,7,33)     =    179.934690     0.000033     0.896821   180.831511
	  147 D(9,8,10,34)    =    179.656139    -0.000057    -1.996400   177.659739
	  148 D(10,8,9,22)    =   -177.165879     0.000036     0.166157  -176.999722
	  149 D(11,6,12,14)   =      8.004414     0.000009     0.175204     8.179617
	  150 D(11,6,12,24)   =   -169.534646     0.000017     0.544363  -168.990282
	  151 D(11,13,15,14)  =      1.926758     0.000001     0.018945     1.945703
	  152 D(11,13,15,27)  =   -179.197032    -0.000016    -0.508970  -179.706002
	  153 D(12,6,11,13)   =     -7.650690    -0.000023    -0.597063    -8.247753
	  154 D(12,6,11,23)   =    173.462886    -0.000022    -0.507366   172.955519
	  155 D(12,14,15,13)  =     -1.565809    -0.000015    -0.441823    -2.007632
	  156 D(12,14,15,27)  =    179.558618     0.000001     0.085611   179.644229
	  157 D(13,15,14,26)  =    177.693032    -0.000021    -0.690453   177.002579
	  158 D(14,15,13,25)  =   -178.094193     0.000020     0.629790  -177.464404
	  159 D(15,13,11,23)  =   -178.320775     0.000016     0.427949  -177.892826
	  160 D(15,14,12,24)  =    174.034963    -0.000002    -0.077135   173.957828
	  161 D(16,1,17,19)   =      4.151882     0.000010     0.529498     4.681380
	  162 D(16,1,17,29)   =   -172.214741     0.000013     0.617854  -171.596887
	  163 D(16,18,20,19)  =      0.852799    -0.000021    -0.537427     0.315372
	  164 D(16,18,20,32)  =   -179.228921     0.000047     1.445949  -177.782972
	  165 D(17,1,16,18)   =     -3.462663    -0.000011    -0.583061    -4.045723
	  166 D(17,1,16,28)   =    177.732719    -0.000005    -0.322109   177.410610
	  167 D(17,19,20,18)  =     -0.153351     0.000021     0.498276     0.344925
	  168 D(17,19,20,32)  =    179.928198    -0.000047    -1.476830   178.451369
	  169 D(18,20,19,31)  =    178.814303     0.000017     0.364226   179.178529
	  170 *D(18,20,32,35) =    -29.936345    -0.000000     0.000000   -29.936345
	  171 D(18,20,32,36)  =   -141.053806    -0.000235    -6.733122  -147.786928
	  172 D(19,20,18,30)  =   -179.516291    -0.000018    -0.439493  -179.955783
	  173 D(19,20,32,35)  =    149.979187     0.000071     2.040207   152.019394
	  174 D(19,20,32,36)  =     38.861726    -0.000164    -4.692915    34.168811
	  175 D(20,18,16,28)  =    179.773476     0.000010     0.340880   180.114356
	  176 D(20,19,17,29)  =    173.984918    -0.000015    -0.559955   173.424963
	  177 D(21,8,9,22)    =      2.293099    -0.000010    -1.330562     0.962537
	  178 D(21,8,10,34)   =      0.232528    -0.000009    -0.400133    -0.167605
	  179 D(23,11,13,25)  =      1.700134    -0.000003    -0.180722     1.519411
	  180 D(24,12,14,26)  =     -5.226208     0.000004     0.170470    -5.055738
	  181 D(25,13,15,27)  =      0.782016     0.000003     0.101875     0.883891
	  182 D(26,14,15,27)  =     -1.182541    -0.000005    -0.163019    -1.345560
	  183 D(28,16,18,30)  =      0.136181     0.000008     0.246378     0.382559
	  184 D(29,17,19,31)  =     -4.999398    -0.000011    -0.419352    -5.418750
	  185 D(30,18,20,32)  =      0.401989     0.000050     1.543884     1.945873
	  186 D(31,19,20,32)  =     -1.104147    -0.000051    -1.610880    -2.715027
	  187 D(33,7,10,34)   =      0.494256     0.000007     0.181760     0.676015
	  188 R(1,12)         =      3.615818    -0.046054    -0.019763     3.596055
	  189 R(2,22)         =      2.993808    -0.017907     0.015265     3.009073
	  190 R(6,17)         =      3.452203     0.006072     0.007176     3.459379
	  191 R(7,11)         =      3.724491    -0.126033    -0.098506     3.625985
	  192 R(7,12)         =      3.528186     0.048583     0.036090     3.564276
	  193 R(12,17)        =      3.181835     0.032328     0.007532     3.189368
	 ---------------------------------------------------------------------------
	Successfully symmetrized geometry.

  ==> Convergence Check <==

  Measures of convergence in internal coordinates in au.
  Criteria marked as inactive (o), active & met (*), and active & unmet ( ).
  --------------------------------------------------------------------------------------------- ~
   Step     Total Energy     Delta E     MAX Force     RMS Force      MAX Disp      RMS Disp    ~
  --------------------------------------------------------------------------------------------- ~
    Convergence Criteria             o    2.50e-03 *    1.70e-03 *    1.00e-02 *    6.70e-03 *  ~
  --------------------------------------------------------------------------------------------- ~
      1    -895.89473848   -8.96e+02 o    2.17e-02      6.11e-03      1.97e-01      3.59e-02    ~
  ---------------------------------------------------------------------------------------------

	Writing optimization data to binary file.
	Structure for next step:
	Cartesian Geometry (in Angstrom)
	    C     1.7888128766  -0.1707654076   0.0231478163
	    N     0.7369252193   0.1355894862   0.9096646486
	    C    -0.6250059917   0.4165634627   0.8002191155
	    C    -1.5294582808  -0.6023458401   1.1930051280
	    H     0.9034731489  -0.2950154189   1.8217846971
	    C    -1.1716191951   1.4197932736  -0.1858543067
	    C    -2.7383915422  -1.1394364199   0.5536917576
	    N    -2.3952442448  -2.2454113828   2.5125692452
	    C    -1.3251786400  -1.3641874365   2.4558701049
	    C    -3.2156821428  -2.1262684896   1.3627169501
	    C    -2.0592615614   2.4123497464   0.2865465678
	    C    -1.1187117179   1.2163227578  -1.5749455097
	    C    -2.7183057663   3.2686908172  -0.5909690298
	    C    -1.7788854133   2.0721768374  -2.4540726193
	    C    -2.5649308602   3.1153622728  -1.9671620392
	    C     2.7952250909  -1.0138362773   0.5198525014
	    C     1.9359033488   0.3520214197  -1.2677367158
	    C     3.8659979089  -1.3878160549  -0.2793845166
	    C     3.0055516018  -0.0387837652  -2.0668858683
	    C     3.9907692501  -0.9104973348  -1.5896898291
	    H    -2.5113346391  -2.8910655158   3.2787885125
	    O    -0.3883880012  -1.2769481299   3.3165146786
	    H    -2.2083399584   2.5136203430   1.3553381203
	    H    -0.5953298119   0.3561873571  -1.9699417168
	    H    -3.3589424661   4.0494017101  -0.1997665468
	    H    -1.6916410601   1.9135775081  -3.5228605275
	    H    -3.0730782799   3.7836008274  -2.6521855300
	    H     2.7174217162  -1.3931331742   1.5333202256
	    H     1.2578272369   1.1049762872  -1.6317616606
	    H     4.6113225791  -2.0649984086   0.1251241484
	    H     3.0804582402   0.3595695944  -3.0738874398
	    N     5.0630838416  -1.3287058286  -2.4285770126
	    H    -3.1720111733  -0.8208518261  -0.3937512254
	    H    -4.0732833250  -2.7667526759   1.2277457076
	    H     5.9013226296  -1.5534122148  -1.8931363927
	    H     5.3504256285  -0.5882702894  -3.0813292942
			--------------------------
			 OPTKING Finished Execution 
			--------------------------

    Structure for next step:
    Molecular point group: c1
    Full point group: C1

    Geometry (in Angstrom), charge = 0, multiplicity = 1:

    C            1.777735663294    -0.168521926975     0.021580738253
    N            0.725848001810     0.137832968122     0.908097573991
    C           -0.636083214502     0.418806945700     0.798652040503
    C           -1.540535507176    -0.600102361094     1.191438054478
    H            0.892395932080    -0.292771938677     1.820217626055
    C           -1.182696420075     1.422036760561    -0.187421385629
    C           -2.749468773286    -1.137192942988     0.552124681574
    N           -2.406321474587    -2.243167910236     2.511002176919
    C           -1.336255865590    -1.361943960488     2.454303036388
    C           -3.226759375835    -2.124025016634     1.361149877316
    C           -2.070338789836     2.414593237246     0.284979490770
    C           -1.129788942637     1.218566243971    -1.576512594066
    C           -2.729382997351     3.270934311356    -0.592536110273
    C           -1.789962640674     2.074420326850    -2.455639707108
    C           -2.576008090639     3.117605766422    -1.968729125097
    C            2.784147881535    -1.011592799917     0.518285425279
    C            1.924826136018     0.354264902398    -1.269303798979
    C            3.854920703727    -1.385572579050    -0.280951595916
    C            2.994474393299    -0.036540284037    -2.068452954565
    C            3.979692045418    -0.908253857037    -1.591256913518
    H           -2.522411869347    -2.888822045796     3.277221447193
    O           -0.399465223078    -1.274704653551     3.314947613447
    H           -2.219417187476     2.515863834242     1.353771047447
    H           -0.606407034597     0.358430839846    -1.971508802695
    H           -3.370019699694     4.051645207335    -0.201333625796
    H           -1.702718287102     1.915820996940    -3.524427619515
    H           -3.084155512336     3.785844323639    -2.653752618600
    H            2.706344506534    -1.390889698290     1.531753153478
    H            1.246750021527     1.107219772934    -1.633328745201
    H            4.600245376860    -2.062754935341     0.123557070713
    H            3.069381031993     0.361813077134    -3.075454530039
    N            5.052006641189    -1.326462352456    -2.430144100318
    H           -3.183088406096    -0.818608347954    -0.395318305110
    H           -4.084360561329    -2.764509205389     1.226178634206
    H            5.890245432446    -1.551168739536    -1.894703478362
    H            5.339348429163    -0.586026810375    -3.082896384523


Scratch directory: /scratch/bdw2292/Psi4-1_7_Index_0_GrowFragment_0-farH_in17/

Scratch directory: /scratch/bdw2292/Psi4-1_7_Index_0_GrowFragment_0-farH_in17/
gradient() will perform analytic gradient computation.

*** tstart() called on node74.bme.utexas.edu
*** at Thu Jun  9 05:11:07 2022

   => Loading Basis Set <=

    Name: 6-311G
    Role: ORBITAL
    Keyword: BASIS
    atoms 1, 3-4, 6-7, 9-20   entry C          line    92 file /home/bdw2292/miniconda3/envs/newamoebamdpoltype/share/psi4/basis/6-311g.gbs 
    atoms 2, 8, 32            entry N          line   109 file /home/bdw2292/miniconda3/envs/newamoebamdpoltype/share/psi4/basis/6-311g.gbs 
    atoms 5, 21, 23-31, 33-36 entry H          line    21 file /home/bdw2292/miniconda3/envs/newamoebamdpoltype/share/psi4/basis/6-311g.gbs 
    atoms 22                  entry O          line   126 file /home/bdw2292/miniconda3/envs/newamoebamdpoltype/share/psi4/basis/6-311g.gbs 

   => WB97X-D: Empirical Dispersion <=

    Chai and Head-Gordon Dispersion Correction
    Chai, J.-D.; Head-Gordon, M. (2010), J. Chem. Phys., 132: 6615-6620

        s6 =       1.000000


         ---------------------------------------------------------
                                   SCF
               by Justin Turney, Rob Parrish, Andy Simmonett
                          and Daniel G. A. Smith
                              RKS Reference
                        2 Threads,   7788 MiB Core
         ---------------------------------------------------------

  ==> Geometry <==

    Molecular point group: c1
    Full point group: C1

    Geometry (in Angstrom), charge = 0, multiplicity = 1:

       Center              X                  Y                   Z               Mass       
    ------------   -----------------  -----------------  -----------------  -----------------
         C            1.777735663294    -0.168521926975     0.021580738253    12.000000000000
         N            0.725848001810     0.137832968122     0.908097573991    14.003074004430
         C           -0.636083214502     0.418806945700     0.798652040503    12.000000000000
         C           -1.540535507176    -0.600102361094     1.191438054478    12.000000000000
         H            0.892395932080    -0.292771938677     1.820217626055     1.007825032230
         C           -1.182696420075     1.422036760561    -0.187421385629    12.000000000000
         C           -2.749468773286    -1.137192942988     0.552124681574    12.000000000000
         N           -2.406321474587    -2.243167910236     2.511002176919    14.003074004430
         C           -1.336255865590    -1.361943960488     2.454303036388    12.000000000000
         C           -3.226759375835    -2.124025016634     1.361149877316    12.000000000000
         C           -2.070338789836     2.414593237246     0.284979490770    12.000000000000
         C           -1.129788942637     1.218566243971    -1.576512594066    12.000000000000
         C           -2.729382997351     3.270934311356    -0.592536110273    12.000000000000
         C           -1.789962640674     2.074420326850    -2.455639707108    12.000000000000
         C           -2.576008090639     3.117605766422    -1.968729125097    12.000000000000
         C            2.784147881535    -1.011592799917     0.518285425279    12.000000000000
         C            1.924826136018     0.354264902398    -1.269303798979    12.000000000000
         C            3.854920703727    -1.385572579050    -0.280951595916    12.000000000000
         C            2.994474393299    -0.036540284037    -2.068452954565    12.000000000000
         C            3.979692045418    -0.908253857037    -1.591256913518    12.000000000000
         H           -2.522411869347    -2.888822045796     3.277221447193     1.007825032230
         O           -0.399465223078    -1.274704653551     3.314947613447    15.994914619570
         H           -2.219417187476     2.515863834242     1.353771047447     1.007825032230
         H           -0.606407034597     0.358430839846    -1.971508802695     1.007825032230
         H           -3.370019699694     4.051645207335    -0.201333625796     1.007825032230
         H           -1.702718287102     1.915820996940    -3.524427619515     1.007825032230
         H           -3.084155512336     3.785844323639    -2.653752618600     1.007825032230
         H            2.706344506534    -1.390889698290     1.531753153478     1.007825032230
         H            1.246750021527     1.107219772934    -1.633328745201     1.007825032230
         H            4.600245376860    -2.062754935341     0.123557070713     1.007825032230
         H            3.069381031993     0.361813077134    -3.075454530039     1.007825032230
         N            5.052006641189    -1.326462352456    -2.430144100318    14.003074004430
         H           -3.183088406096    -0.818608347954    -0.395318305110     1.007825032230
         H           -4.084360561329    -2.764509205389     1.226178634206     1.007825032230
         H            5.890245432446    -1.551168739536    -1.894703478362     1.007825032230
         H            5.339348429163    -0.586026810375    -3.082896384523     1.007825032230

  Running in c1 symmetry.

  Rotational constants: A =      0.01265  B =      0.00756  C =      0.00527 [cm^-1]
  Rotational constants: A =    379.10825  B =    226.62599  C =    157.89413 [MHz]
  Nuclear repulsion = 1524.564331886205082

  Charge       = 0
  Multiplicity = 1
  Electrons    = 146
  Nalpha       = 73
  Nbeta        = 73

  ==> Algorithm <==

  SCF Algorithm Type is DF.
  DIIS enabled.
  MOM disabled.
  Fractional occupation disabled.
  Guess Type is READ.
  Energy threshold   = 1.00e-08
  Density threshold  = 1.00e-08
  Integral threshold = 1.00e-12

  ==> Primary Basis <==

  Basis Set: 6-311G
    Blend: 6-311G
    Number of shells: 192
    Number of basis functions: 318
    Number of Cartesian functions: 318
    Spherical Harmonics?: true
    Max angular momentum: 1

  ==> DFT Potential <==

   => LibXC <=

    Version 5.1.5
    S. Lehtola, C. Steigemann, M. J. Oliveira, and M. A. Marques, SoftwareX 7, 1 (2018) (10.1016/j.softx.2017.11.002)

   => Composite Functional: WB97X-D <= 

    wB97X-D Hyb-GGA Exchange-Correlation Functional

    J.-D. Chai and M. Head-Gordon, Phys. Chem. Chem. Phys. 10, 6615 (2008) (10.1039/B810189B)

    Deriv               =              1
    GGA                 =           TRUE
    Meta                =          FALSE

    Exchange Hybrid     =           TRUE
    MP2 Hybrid          =          FALSE

   => Exchange-Correlation Functionals <=

    1.0000   wB97X-D range-separated functional

   => Exact (HF) Exchange <=

    0.7780            HF,LR [omega = 0.2000]
    0.2220               HF 

   => LibXC Density Thresholds  <==

    XC_HYB_GGA_XC_WB97X_D:  1.00E-14 

   => Molecular Quadrature <=

    Radial Scheme          =       TREUTLER
    Pruning Scheme         =           NONE
    Nuclear Scheme         =       TREUTLER

    BS radius alpha        =              1
    Pruning alpha          =              1
    Radial Points          =             75
    Spherical Points       =            302
    Total Points           =         742278
    Total Blocks           =           5243
    Max Points             =            256
    Max Functions          =            222
    Weights Tolerance      =       1.00E-15

   => Loading Basis Set <=

    Name: (6-311G AUX)
    Role: JKFIT
    Keyword: DF_BASIS_SCF
    atoms 1, 3-4, 6-7, 9-20   entry C          line   125 file /home/bdw2292/miniconda3/envs/newamoebamdpoltype/share/psi4/basis/cc-pvtz-jkfit.gbs 
    atoms 2, 8, 32            entry N          line   177 file /home/bdw2292/miniconda3/envs/newamoebamdpoltype/share/psi4/basis/cc-pvtz-jkfit.gbs 
[...]
	   42 B(1,16,18)      =    121.478528     0.000002     0.003992   121.482520
	   43 B(1,16,28)      =    119.125636     0.000001     0.002791   119.128427
	   44 B(1,17,19)      =    121.058190    -0.000001    -0.002692   121.055498
	   45 B(1,17,29)      =    120.843828     0.000009     0.043744   120.887573
	   46 B(2,1,16)       =    115.696753    -0.000011    -0.048273   115.648480
	   47 B(2,1,17)       =    126.033104     0.000011     0.039080   126.072184
	   48 B(2,3,4)        =    118.150499    -0.000011    -0.039882   118.110618
	   49 B(2,3,6)        =    123.602317     0.000007     0.080893   123.683210
	   50 B(3,2,5)        =    106.974507     0.000001    -0.003710   106.970797
	   51 B(3,4,7)        =    130.275398    -0.000009    -0.026582   130.248816
	   52 B(3,4,9)        =    123.558107     0.000009     0.021016   123.579123
	   53 B(3,6,11)       =    117.815021    -0.000008    -0.051565   117.763456
	   54 B(3,6,12)       =    122.668818     0.000008     0.043672   122.712490
	   55 B(4,3,6)        =    117.177504     0.000004    -0.029416   117.148088
	   56 B(4,7,10)       =    107.831994     0.000004     0.005913   107.837907
	   57 B(4,7,33)       =    125.850080     0.000003     0.022760   125.872839
	   58 B(4,9,8)        =    105.482247    -0.000001    -0.006993   105.475254
	   59 B(4,9,22)       =    129.425749    -0.000001    -0.022883   129.402866
	   60 B(6,11,13)      =    121.181282    -0.000002    -0.007370   121.173912
	   61 B(6,11,23)      =    119.029546    -0.000001    -0.003557   119.025989
	   62 B(6,12,14)      =    120.915199     0.000000    -0.001561   120.913638
	   63 B(6,12,24)      =    120.004154     0.000002     0.009542   120.013695
	   64 B(7,4,9)        =    106.140374    -0.000000     0.007705   106.148079
	   65 B(7,10,8)       =    109.764990     0.000001    -0.003456   109.761533
	   66 B(7,10,34)      =    129.760569    -0.000001    -0.004839   129.755730
	   67 B(8,9,22)       =    125.050927     0.000002     0.032322   125.083248
	   68 B(8,10,34)      =    120.458960     0.000001     0.008477   120.467437
	   69 B(9,8,10)       =    110.712061    -0.000004    -0.005593   110.706468
	   70 B(9,8,21)       =    122.798881     0.000004     0.010479   122.809360
	   71 B(10,7,33)      =    126.190489    -0.000007    -0.036805   126.153684
	   72 B(10,8,21)      =    126.470478    -0.000000    -0.004930   126.465548
	   73 B(11,6,12)      =    117.789577     0.000000     0.004527   117.794104
	   74 B(11,13,15)     =    120.062176     0.000002     0.007019   120.069195
	   75 B(11,13,25)     =    119.661522     0.000002     0.013099   119.674621
	   76 B(12,14,15)     =    120.382334     0.000002     0.005709   120.388043
	   77 B(12,14,26)     =    119.434357     0.000002     0.009126   119.443483
	   78 B(13,11,23)     =    119.765616     0.000003     0.010112   119.775728
	   79 B(13,15,14)     =    119.351010    -0.000002    -0.007643   119.343367
	   80 B(13,15,27)     =    120.346549     0.000001     0.002252   120.348801
	   81 B(14,12,24)     =    118.948138    -0.000003    -0.017205   118.930933
	   82 B(14,15,27)     =    120.282060     0.000001     0.003538   120.285598
	   83 B(15,13,25)     =    120.270231    -0.000004    -0.019759   120.250472
	   84 B(15,14,26)     =    120.158079    -0.000003    -0.014276   120.143803
	   85 B(16,1,17)      =    117.329064    -0.000001    -0.006825   117.322239
	   86 B(16,18,20)     =    120.911489    -0.000000    -0.000046   120.911443
	   87 B(16,18,30)     =    119.461290    -0.000002    -0.009532   119.451758
	   88 B(17,19,20)     =    121.305352     0.000001     0.003947   121.309299
	   89 B(17,19,31)     =    119.028486    -0.000004    -0.019399   119.009087
	   90 B(18,16,28)     =    119.275295    -0.000003    -0.012271   119.263025
	   91 B(18,20,19)     =    117.624658    -0.000000    -0.006612   117.618046
	   92 B(18,20,32)     =    120.795876    -0.000004    -0.007791   120.788085
	   93 B(19,17,29)     =    117.974547    -0.000007    -0.042546   117.932001
	   94 B(19,20,32)     =    121.560100     0.000004     0.012324   121.572424
	   95 B(20,18,30)     =    119.627133     0.000002     0.009500   119.636633
	   96 B(20,19,31)     =    119.637385     0.000003     0.015511   119.652896
	   97 B(20,32,35)     =    119.288735    -0.000002    -0.005477   119.283258
	   98 B(20,32,36)     =    118.783081     0.000003     0.028138   118.811219
	   99 B(35,32,36)     =    115.898007    -0.000000     0.008563   115.906569
	  100 *D(1,2,3,4)     =    105.491459     0.000000    -0.000000   105.491459
	  101 D(1,2,3,6)      =    -62.329802    -0.000000    -0.061026   -62.390828
	  102 D(1,16,18,20)   =      3.405151     0.000000     0.071536     3.476687
	  103 D(1,16,18,30)   =   -176.486182     0.000001     0.111630  -176.374552
	  104 D(1,17,19,20)   =     -2.101249    -0.000000    -0.025010    -2.126259
	  105 D(1,17,19,31)   =    179.857406    -0.000000    -0.027315   179.830091
	  106 D(2,1,16,18)    =   -175.966811    -0.000000    -0.013515  -175.980326
	  107 D(2,1,16,28)    =      8.054365     0.000000     0.077376     8.131741
	  108 D(2,1,17,19)    =    174.087262    -0.000000    -0.030947   174.056315
	  109 D(2,1,17,29)    =     -1.791815    -0.000000    -0.004382    -1.796197
	  110 D(2,3,4,7)      =   -174.516913     0.000001     0.065211  -174.451702
	  111 D(2,3,4,9)      =      7.609742     0.000001    -0.023897     7.585844
	  112 *D(2,3,6,11)    =   -129.592517     0.000000     0.000000  -129.592517
	  113 D(2,3,6,12)     =     65.723475     0.000000     0.014668    65.738143
	  114 *D(3,2,1,16)    =   -148.570498     0.000000    -0.000000  -148.570498
	  115 D(3,2,1,17)     =     42.890074     0.000000     0.097915    42.987989
	  116 D(3,4,7,10)     =    179.191242    -0.000001    -0.127576   179.063667
	  117 D(3,4,7,33)     =      3.098613    -0.000000    -0.003295     3.095318
	  118 D(3,4,9,8)      =   -179.351431     0.000001     0.102617  -179.248814
	  119 D(3,4,9,22)     =      2.923621    -0.000000     0.033018     2.956640
	  120 D(3,6,11,13)    =   -171.738781    -0.000000     0.003700  -171.735081
	  121 D(3,6,11,23)    =     10.031005    -0.000000     0.033865    10.064870
	  122 D(3,6,12,14)    =    170.872433    -0.000001    -0.070803   170.801630
	  123 D(3,6,12,24)    =     -4.898965     0.000000     0.074409    -4.824556
	  124 D(4,3,2,5)      =    -29.154748    -0.000001    -0.009927   -29.164675
	  125 D(4,3,6,11)     =     62.476650     0.000000    -0.059136    62.417515
	  126 D(4,3,6,12)     =   -102.207358     0.000000    -0.044467  -102.251825
	  127 D(4,7,10,8)     =      1.952354     0.000000     0.047309     1.999664
	  128 D(4,7,10,34)    =   -176.593772     0.000000     0.038622  -176.555150
	  129 D(4,9,8,10)     =     -1.244243    -0.000000    -0.005186    -1.249429
	  130 D(4,9,8,21)     =   -179.768600    -0.000000    -0.003353  -179.771954
	  131 D(5,2,1,16)     =    -13.631183     0.000000    -0.000116   -13.631299
	  132 D(5,2,1,17)     =    177.829389     0.000000     0.097799   177.927188
	  133 D(5,2,3,6)      =    163.023991    -0.000001    -0.070953   162.953038
	  134 D(6,3,4,7)      =     -5.908697     0.000002     0.135992    -5.772704
	  135 D(6,3,4,9)      =    176.217958     0.000001     0.046884   176.264842
	  136 D(6,11,13,15)   =      2.542280     0.000000     0.012365     2.554645
	  137 D(6,11,13,25)   =   -178.351519     0.000000     0.039039  -178.312480
	  138 D(6,12,14,15)   =     -2.351619     0.000001     0.092209    -2.259409
	  139 D(6,12,14,26)   =    179.472396     0.000000     0.072165   179.544561
	  140 D(7,4,9,8)      =      2.337527     0.000000     0.032559     2.370086
	  141 D(7,4,9,22)     =   -175.387421    -0.000001    -0.037039  -175.424461
	  142 D(7,10,8,9)     =     -0.436090     0.000000    -0.027056    -0.463147
	  143 D(7,10,8,21)    =    178.021432     0.000000    -0.028692   177.992740
	  144 D(8,10,7,33)    =    178.028041    -0.000000    -0.074444   177.953597
	  145 D(9,4,7,10)     =     -2.653569    -0.000000    -0.049924    -2.703492
	  146 D(9,4,7,33)     =   -178.746198     0.000000     0.074357  -178.671841
	  147 D(9,8,10,34)    =    178.267375    -0.000000    -0.019512   178.247863
	  148 D(10,8,9,22)    =    176.609142     0.000001     0.058971   176.668113
	  149 D(11,6,12,14)   =      6.184752    -0.000000    -0.048035     6.136717
	  150 D(11,6,12,24)   =   -169.586647     0.000001     0.097178  -169.489469
	  151 D(11,13,15,14)  =      1.480743     0.000000     0.030002     1.510745
	  152 D(11,13,15,27)  =    179.843331    -0.000000    -0.042754   179.800577
	  153 D(12,6,11,13)   =     -6.295889     0.000000    -0.003544    -6.299433
	  154 D(12,6,11,23)   =    175.473898     0.000000     0.026621   175.500518
	  155 D(12,14,15,13)  =     -1.578312    -0.000000    -0.081598    -1.659910
	  156 D(12,14,15,27)  =   -179.941978    -0.000000    -0.008867  -179.950845
	  157 D(13,15,14,26)  =    176.584428    -0.000000    -0.060981   176.523446
	  158 D(14,15,13,25)  =   -177.619967     0.000000     0.002875  -177.617091
	  159 D(15,13,11,23)  =   -179.240367    -0.000000    -0.018265  -179.258632
	  160 D(15,14,12,24)  =    173.463683    -0.000000    -0.050353   173.413330
	  161 D(16,1,17,19)   =      5.714163     0.000000     0.072514     5.786677
	  162 D(16,1,17,29)   =   -170.164913     0.000001     0.099079  -170.065834
	  163 D(16,18,20,19)  =      0.428702    -0.000000    -0.019659     0.409043
	  164 D(16,18,20,32)  =   -177.995054     0.000000     0.062543  -177.932511
	  165 D(17,1,16,18)   =     -6.387044    -0.000000    -0.096400    -6.483444
	  166 D(17,1,16,28)   =    177.634132     0.000000    -0.005509   177.628624
	  167 D(17,19,20,18)  =     -1.074703     0.000000    -0.003266    -1.077968
	  168 D(17,19,20,32)  =    177.336276    -0.000000    -0.086491   177.249785
	  169 D(18,20,19,31)  =    176.954906     0.000000    -0.001620   176.953286
	  170 *D(18,20,32,35) =    -29.936345    -0.000000    -0.000000   -29.936345
	  171 D(18,20,32,36)  =    178.477479    -0.000000    -0.071016   178.406463
	  172 D(19,20,18,30)  =   -179.680144    -0.000000    -0.059846  -179.739990
	  173 D(19,20,32,35)  =    151.702649     0.000000     0.085808   151.788457
	  174 D(19,20,32,36)  =      0.116473     0.000000     0.014793     0.131266
	  175 D(20,18,16,28)  =    179.378090    -0.000000    -0.018882   179.359208
	  176 D(20,19,17,29)  =    173.892749    -0.000000    -0.047399   173.845350
	  177 D(21,8,9,22)    =     -1.915215     0.000001     0.060804    -1.854412
	  178 D(21,8,10,34)   =     -3.275103    -0.000000    -0.021148    -3.296251
	  179 D(23,11,13,25)  =     -0.134166     0.000000     0.008409    -0.125757
	  180 D(24,12,14,26)  =     -4.712302    -0.000000    -0.070397    -4.782700
	  181 D(25,13,15,27)  =      0.742621    -0.000000    -0.069881     0.672741
	  182 D(26,14,15,27)  =     -1.779238     0.000000     0.011749    -1.767489
	  183 D(28,16,18,30)  =     -0.513243     0.000000     0.021212    -0.492031
	  184 D(29,17,19,31)  =     -4.148596    -0.000000    -0.049704    -4.198300
	  185 D(30,18,20,32)  =      1.896101     0.000000     0.022356     1.918456
	  186 D(31,19,20,32)  =     -4.634115    -0.000000    -0.084845    -4.718960
	  187 D(33,7,10,34)   =     -0.518085    -0.000000    -0.083131    -0.601216
	  188 R(1,12)         =      3.647676     0.000316     0.002769     3.650445
	  189 R(2,22)         =      2.771351     0.000763    -0.000926     2.770426
	  190 R(6,17)         =      3.603117    -0.000048     0.002505     3.605622
	  191 R(7,11)         =      3.146840    -0.001580    -0.002766     3.144074
	  192 R(7,12)         =      3.866534    -0.000365    -0.001560     3.864974
	  193 R(12,17)        =      3.292626     0.000839     0.004487     3.297112
	 ---------------------------------------------------------------------------
	Successfully symmetrized geometry.

  ==> Convergence Check <==

  Measures of convergence in internal coordinates in au.
  Criteria marked as inactive (o), active & met (*), and active & unmet ( ).
  ---------------------------------------------------------------------------------------------
   Step     Total Energy     Delta E     MAX Force     RMS Force      MAX Disp      RMS Disp   
  ---------------------------------------------------------------------------------------------
    Convergence Criteria             o    2.50e-03 *    1.70e-03 *    1.00e-02 *    6.70e-03 *
  ---------------------------------------------------------------------------------------------
     12    -895.95163652   -2.69e-05 o    3.93e-04 *    7.09e-05 *    8.48e-03 *    1.18e-03 *  ~
  ---------------------------------------------------------------------------------------------


  **** Optimization is complete! (in 12 steps) ****

  ==> Optimization Summary <==

  Measures of convergence in internal coordinates in au.
  --------------------------------------------------------------------------------------------------------------- ~
   Step         Total Energy             Delta E       MAX Force       RMS Force        MAX Disp        RMS Disp  ~
  --------------------------------------------------------------------------------------------------------------- ~
      1    -895.894738476920   -895.894738476920      0.02173242      0.00611101      0.19683960      0.03594206  ~
      2    -895.917125011949     -0.022386535029      0.02253231      0.00383331      0.31115469      0.04678732  ~
      3    -895.928334189823     -0.011209177874      0.03974881      0.00596884      0.30303077      0.03814614  ~
      4    -895.944130299118     -0.015796109295      0.01460446      0.00190033      0.24759056      0.03928830  ~
      5    -895.948972895625     -0.004842596507      0.00611113      0.00181476      0.12213734      0.02479213  ~
      6    -895.950672118878     -0.001699223253      0.00766358      0.00088772      0.08374248      0.01913976  ~
      7    -895.950721299516     -0.000049180638      0.00484867      0.00108424      0.05205428      0.01080437  ~
      8    -895.951360834060     -0.000639534544      0.00177930      0.00042489      0.08785619      0.01459402  ~
      9    -895.951440562841     -0.000079728781      0.00369623      0.00058803      0.03146781      0.00607304  ~
     10    -895.951575505247     -0.000134942406      0.00110405      0.00024889      0.02491560      0.00647790  ~
     11    -895.951609625737     -0.000034120490      0.00168349      0.00026140      0.01128292      0.00196104  ~
     12    -895.951636521059     -0.000026895323      0.00039317      0.00007093      0.00847857      0.00117693  ~
  --------------------------------------------------------------------------------------------------------------- ~

	Writing optimization data to binary file.
	Final energy is   -895.9516365210594
	Final (previous) structure:
	Cartesian Geometry (in Angstrom)
	    C     1.7333136397   0.1188366915  -0.2074811930
	    N     0.6912937805   0.5763153002   0.6554012509
	    C    -0.7002821005   0.4791291506   0.6430213755
	    C    -1.2969673203  -0.3949259956   1.5195924085
	    H     0.9963160252   0.3594421083   1.6034793112
	    C    -1.5622337885   1.0643031294  -0.4322817088
	    C    -2.6983163389  -0.7829736660   1.6591648796
	    N    -1.5071795319  -1.8898374173   3.2196247292
	    C    -0.5635211958  -1.1151409388   2.5814088918
	    C    -2.7790895959  -1.6880643525   2.6568637932
	    C    -2.6451612112   1.8652587258  -0.0398467374
	    C    -1.5333309185   0.6088061939  -1.7549003094
	    C    -3.5886552045   2.3039052099  -0.9634903021
	    C    -2.4765412763   1.0438612323  -2.6820648926
	    C    -3.4987108873   1.9062324520  -2.2949779494
	    C     2.9500472149  -0.1947175081   0.4201181002
	    C     1.7264542449   0.1707922516  -1.6021627514
	    C     4.0647004802  -0.5700098159  -0.3104105478
	    C     2.8501785417  -0.1934857956  -2.3404376402
	    C     4.0367077276  -0.5817701207  -1.7128013092
	    H    -1.2861921088  -2.4868616387   3.9926056454
	    O     0.6480413437  -1.0401764120   2.9060615268
	    H    -2.7266517867   2.1671534505   0.9957016730
	    H    -0.8169956275  -0.1393817335  -2.0515552888
	    H    -4.3988399989   2.9424419943  -0.6388054002
	    H    -2.4266362461   0.6829299181  -3.7002502985
	    H    -4.2308794720   2.2423340603  -3.0161371573
	    H     2.9977885577  -0.2049850150   1.5012374457
	    H     0.8767062290   0.5552149746  -2.1346789390
	    H     4.9690119116  -0.8597769863   0.2092216853
	    H     2.8078461336  -0.1428422739  -3.4216188550
	    N     5.1458065491  -0.9993128022  -2.4447466598
	    H    -3.5074231434  -0.4560146371   1.0319438893
	    H    -3.6289374816  -2.2377700314   3.0194697512
	    H     6.0632615794  -0.8646498087  -2.0644360683
	    H     5.0849030439  -1.0175679800  -3.4449303481
	Saving final (previous) structure.
	Cleaning optimization helper files.
			--------------------------
			 OPTKING Finished Execution 
			--------------------------

    Final optimized geometry and variables:
    Molecular point group: c1
    Full point group: C1

    Geometry (in Angstrom), charge = 0, multiplicity = 1:

    C            1.733313646483     0.118836691968    -0.207481193824
    N            0.691293783236     0.576315302507     0.655401253472
    C           -0.700282103236     0.479129152436     0.643021378067
    C           -1.296967325434    -0.394925997130     1.519592414428
    H            0.996316029116     0.359442109680     1.603479317552
    C           -1.562233794690     1.064303133552    -0.432281710546
    C           -2.698316349459    -0.782973669120     1.659164886167
    N           -1.507179537855    -1.889837424750     3.219624741874
    C           -0.563521198040    -1.115140943167     2.581408901918
    C           -2.779089606804    -1.688064359185     2.656863803688
    C           -2.645161221598     1.865258733101    -0.039846737585
    C           -1.533330924505     0.608806196320    -1.754900316255
    C           -3.588655218564     2.303905218995    -0.963490305901
    C           -2.476541286077     1.043861236446    -2.682064903121
    C           -3.498710901013     1.906232459483    -2.294977958452
    C            2.950047226543    -0.194717508817     0.420118101875
    C            1.726454251685     0.170792252223    -1.602162757718
    C            4.064700496187    -0.570009818130    -0.310410549066
    C            2.850178552899    -0.193485796365    -2.340437649414
    C            4.036707743515    -0.581770122971    -1.712801315946
    H           -1.286192113843    -2.486861648497     3.992605661046
    O            0.648041346207    -1.040176416057     2.906061538180
    H           -2.726651797408     2.167153458983     0.995701676890
    H           -0.816995630712    -0.139381734042    -2.051555296910
    H           -4.398840016152     2.942442005866    -0.638805402675
    H           -2.426636255663     0.682929920811    -3.700250313009
    H           -4.230879488615     2.242334069129    -3.016137169191
    H            2.997788569521    -0.204985015813     1.501237451619
    H            0.876706232478     0.555214976753    -2.134678947408
    H            4.969011931118    -0.859776989665     0.209221686097
    H            2.807846144608    -0.142842274501    -3.421618868453
    N            5.145806569350    -0.999312806126    -2.444746669436
    H           -3.507423157137    -0.456014638918     1.031943893378
    H           -3.628937495847    -2.237770040236     3.019469763024
    H            6.063261603189    -0.864649812090    -2.064436076421
    H            5.084903063853    -1.017567984035    -3.444930361677

	Removing binary optimization data file.
	Cleaning optimization helper files.

    Psi4 stopped on: Thursday, 09 June 2022 05:47AM
    Psi4 wall time for execution: 0:40:02.18

*** Psi4 exiting successfully. Buy a developer a beer!
