
    -----------------------------------------------------------------------
          Psi4: An Open-Source Ab Initio Electronic Structure Package
                               Psi4 1.5 release

                         Git: Rev {HEAD} e9f4d6d 


    D. G. A. Smith, L. A. Burns, A. C. Simmonett, R. M. Parrish,
    M. C. Schieber, R. Galvelis, P. Kraus, H. Kruse, R. Di Remigio,
    A. Alenaizan, A. M. James, S. Lehtola, J. P. Misiewicz, M. Scheurer,
    R. A. Shaw, J. B. Schriber, Y. Xie, Z. L. Glick, D. A. Sirianni,
    J. S. O'Brien, J. M. Waldrop, A. Kumar, E. G. Hohenstein,
    B. P. Pritchard, B. R. Brooks, H. F. Schaefer III, A. Yu. Sokolov,
    K. Patkowski, A. E. DePrince III, U. Bozkaya, R. A. King,
    F. A. Evangelista, J. M. Turney, T. D. Crawford, C. D. Sherrill,
    J. Chem. Phys. 152(18) 184108 (2020). https://doi.org/10.1063/5.0006002

                            Additional Code Authors
    E. T. Seidl, C. L. Janssen, E. F. Valeev, M. L. Leininger,
    J. F. Gonthier, R. M. Richard, H. R. McAlexander, M. Saitow, X. Wang,
    P. Verma, M. H. Lechner, and A. Jiang

             Previous Authors, Complete List of Code Contributors,
                       and Citations for Specific Modules
    https://github.com/psi4/psi4/blob/master/codemeta.json
    https://github.com/psi4/psi4/graphs/contributors
    http://psicode.org/psi4manual/master/introduction.html#citing-psifour

    -----------------------------------------------------------------------


    Psi4 started on: Thursday, 09 June 2022 03:57AM

    Process ID: 1282982
    Host:       node74.bme.utexas.edu
    PSIDATADIR: /home/bdw2292/miniconda3/envs/newamoebamdpoltype/share/psi4
    Memory:     500.0 MiB
    Threads:    1
    
  ==> Input File <==

--------------------------------------------------------------------------
molecule { 
0 1
 C    1.700175   -0.343864    0.049123
 N    0.541943   -0.576314    0.846183
 C   -0.698000    0.010733    0.822437
 C   -1.747267   -0.635431    1.496696
 H    0.557581   -1.419371    1.451448
 C   -1.061712    0.950020   -0.288397
 C   -3.175837   -0.523915    1.311971
 N   -2.790890   -1.929039    3.028686
 C   -1.531280   -1.569600    2.611162
 C   -3.770582   -1.309424    2.249522
 C   -1.629410    2.210546    0.022847
 C   -0.924056    0.576411   -1.651920
 C   -2.016743    3.086335   -0.999373
 C   -1.311203    1.457593   -2.669887
 C   -1.857273    2.717681   -2.350740
 C    2.574680   -1.433572   -0.189811
 C    1.964692    0.898435   -0.583372
 C    3.692615   -1.277012   -1.021636
 C    3.083146    1.040858   -1.417876
 C    3.976668   -0.036039   -1.646869
 H   -2.936824   -2.566720    3.797864
 O   -0.451367   -1.989562    3.087827
 H   -1.761017    2.494197    1.068856
 H   -0.516507   -0.404099   -1.904606
 H   -2.443304    4.058418   -0.745652
 H   -1.189977    1.165293   -3.714385
 H   -2.158504    3.402515   -3.145470
 H    2.357537   -2.395565    0.280810
 H    1.307632    1.748220   -0.404615
 H    4.345138   -2.137910   -1.184625
 H    3.256837    2.008884   -1.893223
 N    5.112675    0.123113   -2.487034
 H   -3.690137    0.078273    0.576134
 H   -4.818606   -1.489725    2.442919
 H    5.853282   -0.508103   -2.170693
 H    5.520282    1.046241   -2.315428
}
set optking { 
  frozen_dihedral = ("
    1 2 3 4
    16 1 2 3
    2 3 6 11
    18 20 32 35
  ")
}
set {
  geom_maxiter 400
  g_convergence GAU_LOOSE
  dynamic_level 1
}
memory 8.166666666666666GB
set_num_threads(2)
psi4_io.set_default_path("/scratch/bdw2292/Psi4-1_7_Index_0_GrowFragment_0-farH_in17")
for _ in range(1):
  try:
    set opt_coordinates both
    optimize('wb97x-d/6-311G')
    break
  except OptimizationConvergenceError:
    break
  else:
    try:
      set opt_coordinates cartesian
      optimize('wb97x-d/6-311G')
      break
    except OptimizationConvergenceError:
      pass
clean()
--------------------------------------------------------------------------

  Memory set to   7.606 GiB by Python driver.
  Threads set to 2 by Python driver.

Scratch directory: /scratch/bdw2292/Psi4-1_7_Index_0_GrowFragment_0-farH_in17/

Scratch directory: /scratch/bdw2292/Psi4-1_7_Index_0_GrowFragment_0-farH_in17/
gradient() will perform analytic gradient computation.

*** tstart() called on node74.bme.utexas.edu
*** at Thu Jun  9 03:57:37 2022

   => Loading Basis Set <=

    Name: 6-311G
    Role: ORBITAL
    Keyword: BASIS
    atoms 1, 3-4, 6-7, 9-20   entry C          line    92 file /home/bdw2292/miniconda3/envs/newamoebamdpoltype/share/psi4/basis/6-311g.gbs 
    atoms 2, 8, 32            entry N          line   109 file /home/bdw2292/miniconda3/envs/newamoebamdpoltype/share/psi4/basis/6-311g.gbs 
    atoms 5, 21, 23-31, 33-36 entry H          line    21 file /home/bdw2292/miniconda3/envs/newamoebamdpoltype/share/psi4/basis/6-311g.gbs 
    atoms 22                  entry O          line   126 file /home/bdw2292/miniconda3/envs/newamoebamdpoltype/share/psi4/basis/6-311g.gbs 

   => WB97X-D: Empirical Dispersion <=

    Chai and Head-Gordon Dispersion Correction
    Chai, J.-D.; Head-Gordon, M. (2010), J. Chem. Phys., 132: 6615-6620

        s6 =       1.000000


         ---------------------------------------------------------
                                   SCF
               by Justin Turney, Rob Parrish, Andy Simmonett
                          and Daniel G. A. Smith
                              RKS Reference
                        2 Threads,   7788 MiB Core
         ---------------------------------------------------------

  ==> Geometry <==

    Molecular point group: c1
    Full point group: C1

    Geometry (in Angstrom), charge = 0, multiplicity = 1:

       Center              X                  Y                   Z               Mass       
    ------------   -----------------  -----------------  -----------------  -----------------
         C            1.686401221553    -0.379140244130     0.013659013837    12.000000000000
         N            0.528169221553    -0.611590244130     0.810719013837    14.003074004430
         C           -0.711773778447    -0.024543244130     0.786973013837    12.000000000000
         C           -1.761040778447    -0.670707244130     1.461232013837    12.000000000000
         H            0.543807221553    -1.454647244130     1.415984013837     1.007825032230
         C           -1.075485778447     0.914743755870    -0.323860986163    12.000000000000
         C           -3.189610778447    -0.559191244130     1.276507013837    12.000000000000
         N           -2.804663778447    -1.964315244130     2.993222013837    14.003074004430
         C           -1.545053778447    -1.604876244130     2.575698013837    12.000000000000
         C           -3.784355778447    -1.344700244130     2.214058013837    12.000000000000
         C           -1.643183778447     2.175269755870    -0.012616986163    12.000000000000
         C           -0.937829778447     0.541134755870    -1.687383986163    12.000000000000
         C           -2.030516778447     3.051058755870    -1.034836986163    12.000000000000
         C           -1.324976778447     1.422316755870    -2.705350986163    12.000000000000
         C           -1.871046778447     2.682404755870    -2.386203986163    12.000000000000
         C            2.560906221553    -1.468848244130    -0.225274986163    12.000000000000
         C            1.950918221553     0.863158755870    -0.618835986163    12.000000000000
         C            3.678841221553    -1.312288244130    -1.057099986163    12.000000000000
         C            3.069372221553     1.005581755870    -1.453339986163    12.000000000000
         C            3.962894221553    -0.071315244130    -1.682332986163    12.000000000000
         H           -2.950597778447    -2.601996244130     3.762400013837     1.007825032230
         O           -0.465140778447    -2.024838244130     3.052363013837    15.994914619570
         H           -1.774790778447     2.458920755870     1.033392013837     1.007825032230
         H           -0.530280778447    -0.439375244130    -1.940069986163     1.007825032230
         H           -2.457077778447     4.023141755870    -0.781115986163     1.007825032230
         H           -1.203750778447     1.130016755870    -3.749848986163     1.007825032230
         H           -2.172277778447     3.367238755870    -3.180933986163     1.007825032230
         H            2.343763221553    -2.430841244130     0.245346013837     1.007825032230
         H            1.293858221553     1.712943755870    -0.440078986163     1.007825032230
         H            4.331364221553    -2.173186244130    -1.220088986163     1.007825032230
         H            3.243063221553     1.973607755870    -1.928686986163     1.007825032230
         N            5.098901221553     0.087836755870    -2.522497986163    14.003074004430
         H           -3.703910778447     0.042996755870     0.540670013837     1.007825032230
         H           -4.832379778447    -1.525001244130     2.407455013837     1.007825032230
         H            5.839508221553    -0.543379244130    -2.206156986163     1.007825032230
         H            5.506508221553     1.010964755870    -2.350891986163     1.007825032230

  Running in c1 symmetry.

  Rotational constants: A =      0.01454  B =      0.00741  C =      0.00522 [cm^-1]
  Rotational constants: A =    435.87572  B =    222.21371  C =    156.46210 [MHz]
  Nuclear repulsion = 1535.358459536197415

  Charge       = 0
  Multiplicity = 1
  Electrons    = 146
  Nalpha       = 73
  Nbeta        = 73

  ==> Algorithm <==

  SCF Algorithm Type is DF.
  DIIS enabled.
  MOM disabled.
  Fractional occupation disabled.
  Guess Type is SAD.
  Energy threshold   = 1.00e-08
  Density threshold  = 1.00e-08
  Integral threshold = 1.00e-12

  ==> Primary Basis <==

  Basis Set: 6-311G
    Blend: 6-311G
    Number of shells: 192
    Number of basis functions: 318
    Number of Cartesian functions: 318
    Spherical Harmonics?: true
    Max angular momentum: 1

  ==> DFT Potential <==

   => LibXC <=

    Version 5.1.5
    S. Lehtola, C. Steigemann, M. J. Oliveira, and M. A. Marques, SoftwareX 7, 1 (2018) (10.1016/j.softx.2017.11.002)

   => Composite Functional: WB97X-D <= 

    wB97X-D Hyb-GGA Exchange-Correlation Functional

    J.-D. Chai and M. Head-Gordon, Phys. Chem. Chem. Phys. 10, 6615 (2008) (10.1039/B810189B)

    Deriv               =              1
    GGA                 =           TRUE
    Meta                =          FALSE

    Exchange Hybrid     =           TRUE
    MP2 Hybrid          =          FALSE

   => Exchange-Correlation Functionals <=

    1.0000   wB97X-D range-separated functional

   => Exact (HF) Exchange <=

    0.7780            HF,LR [omega = 0.2000]
    0.2220               HF 

   => LibXC Density Thresholds  <==

    XC_HYB_GGA_XC_WB97X_D:  1.00E-14 

   => Molecular Quadrature <=

    Radial Scheme          =       TREUTLER
    Pruning Scheme         =           NONE
    Nuclear Scheme         =       TREUTLER

    BS radius alpha        =              1
    Pruning alpha          =              1
    Radial Points          =             75
    Spherical Points       =            302
    Total Points           =         741224
    Total Blocks           =           5269
    Max Points             =            256
    Max Functions          =            228
    Weights Tolerance      =       1.00E-15

   => Loading Basis Set <=

    Name: (6-311G AUX)
    Role: JKFIT
    Keyword: DF_BASIS_SCF
    atoms 1, 3-4, 6-7, 9-20   entry C          line   125 file /home/bdw2292/miniconda3/envs/newamoebamdpoltype/share/psi4/basis/cc-pvtz-jkfit.gbs 
    atoms 2, 8, 32            entry N          line   177 file /home/bdw2292/miniconda3/envs/newamoebamdpoltype/share/psi4/basis/cc-pvtz-jkfit.gbs 
    atoms 5, 21, 23-31, 33-36 entry H          line    51 file /home/bdw2292/miniconda3/envs/newamoebamdpoltype/share/psi4/basis/cc-pvtz-jkfit.gbs 
    atoms 22                  entry O          line   229 file /home/bdw2292/miniconda3/envs/newamoebamdpoltype/share/psi4/basis/cc-pvtz-jkfit.gbs 

  ==> Integral Setup <==

  DFHelper Memory: AOs need 3.565 GiB; user supplied 3.565 GiB. Using in-core AOs.

  ==> MemDFJK: Density-Fitted J/K Matrices <==

    J tasked:                   Yes
    K tasked:                   Yes
    wK tasked:                  Yes
    Omega:                2.000E-01
    OpenMP threads:               2
    Memory [MiB]:              3650
    Algorithm:                 Core
    Schwarz Cutoff:           1E-12
    Mask sparsity (%):      26.3755
    Fitting Condition:        1E-10

   => Auxiliary Basis Set <=

  Basis Set: (6-311G AUX)
    Blend: CC-PVTZ-JKFIT
    Number of shells: 675
    Number of basis functions: 2109
    Number of Cartesian functions: 2541
    Spherical Harmonics?: true
    Max angular momentum: 4

  Cached 50.0% of DFT collocation blocks in 1.584 [GiB].

  Minimum eigenvalue in the overlap matrix is 2.6044797966E-04.
  Reciprocal condition number of the overlap matrix is 3.8702654070E-05.
    Using symmetric orthogonalization.

  ==> Pre-Iterations <==

  SCF Guess: Superposition of Atomic Densities via on-the-fly atomic UHF (no occupation information).

   -------------------------
    Irrep   Nso     Nmo    
   -------------------------
     A        318     318 
   -------------------------
    Total     318     318
   -------------------------

  ==> Iterations <==

                           Total Energy        Delta E     RMS |[F,P]|

   @DF-RKS iter SAD:  -895.23314730395373   -8.95233e+02   0.00000e+00 
   @DF-RKS iter   1:  -895.33403931297084   -1.00892e-01   3.60309e-03 DIIS
   @DF-RKS iter   2:  -895.56862914392718   -2.34590e-01   3.11727e-03 DIIS
   @DF-RKS iter   3:  -895.93893437345912   -3.70305e-01   7.85672e-04 DIIS
   @DF-RKS iter   4:  -895.96238208466877   -2.34477e-02   2.01330e-04 DIIS
   @DF-RKS iter   5:  -895.96393288455306   -1.55080e-03   6.89023e-05 DIIS
   @DF-RKS iter   6:  -895.96415565226096   -2.22768e-04   1.22426e-05 DIIS
   @DF-RKS iter   7:  -895.96416549760670   -9.84535e-06   7.13931e-06 DIIS
   @DF-RKS iter   8:  -895.96416876571857   -3.26811e-06   1.89006e-06 DIIS
   @DF-RKS iter   9:  -895.96416934888634   -5.83168e-07   1.28782e-06 DIIS
   @DF-RKS iter  10:  -895.96416953132848   -1.82442e-07   2.81855e-07 DIIS
   @DF-RKS iter  11:  -895.96416954521487   -1.38864e-08   1.48750e-07 DIIS
   @DF-RKS iter  12:  -895.96416954751021   -2.29534e-09   3.91210e-08 DIIS
   @DF-RKS iter  13:  -895.96416954778579   -2.75577e-10   1.98868e-08 DIIS
   @DF-RKS iter  14:  -895.96416954782637   -4.05862e-11   6.66616e-09 DIIS
  Energy and wave function converged.


  ==> Post-Iterations <==

   Electrons on quadrature grid:
      Ntotal   =  145.9999376095 ; deviation = -6.239e-05 

    Orbital Energies [Eh]
    ---------------------

    Doubly Occupied:                                                      

       1A    -19.201304     2A    -14.479231     3A    -14.463722  
       4A    -14.445180     5A    -10.382162     6A    -10.372606  
       7A    -10.346119     8A    -10.342035     9A    -10.324739  
      10A    -10.316187    11A    -10.309967    12A    -10.309335  
      13A    -10.309018    14A    -10.307594    15A    -10.307368  
      16A    -10.304474    17A    -10.301608    18A    -10.300513  
      19A    -10.299274    20A    -10.288629    21A    -10.277581  
      22A     -1.136988    23A     -1.068919    24A     -1.055962  
      25A     -1.033955    26A     -0.974549    27A     -0.950165  
      28A     -0.903948    29A     -0.870047    30A     -0.861872  
      31A     -0.856461    32A     -0.843808    33A     -0.807033  
      34A     -0.767245    35A     -0.727983    36A     -0.720300  
      37A     -0.713333    38A     -0.693585    39A     -0.679279  
      40A     -0.664351    41A     -0.636308    42A     -0.617350  
      43A     -0.602337    44A     -0.595126    45A     -0.590920  
      46A     -0.572937    47A     -0.558144    48A     -0.551384  
      49A     -0.536560    50A     -0.525276    51A     -0.523780  
      52A     -0.520871    53A     -0.515945    54A     -0.510065  
      55A     -0.505948    56A     -0.498916    57A     -0.489024  
      58A     -0.484941    59A     -0.471015    60A     -0.466807  
      61A     -0.452649    62A     -0.444937    63A     -0.438386  
      64A     -0.433238    65A     -0.401714    66A     -0.395853  
      67A     -0.348395    68A     -0.343451    69A     -0.338400  
      70A     -0.330363    71A     -0.326090    72A     -0.285725  
      73A     -0.243153  

    Virtual:                                                              

      74A      0.002554    75A      0.043718    76A      0.051400  
      77A      0.061588    78A      0.084688    79A      0.114937  
      80A      0.119780    81A      0.132613    82A      0.136662  
      83A      0.137904    84A      0.147024    85A      0.153565  
      86A      0.162227    87A      0.167967    88A      0.176422  
      89A      0.186081    90A      0.192643    91A      0.198297  
      92A      0.198559    93A      0.203607    94A      0.215336  
      95A      0.219955    96A      0.229454    97A      0.236884  
      98A      0.252552    99A      0.285687   100A      0.300150  
     101A      0.302339   102A      0.318468   103A      0.333151  
     104A      0.336639   105A      0.340976   106A      0.346261  
     107A      0.350059   108A      0.361845   109A      0.365442  
     110A      0.369508   111A      0.378826   112A      0.395298  
     113A      0.406404   114A      0.409554   115A      0.420330  
     116A      0.425215   117A      0.435072   118A      0.443591  
     119A      0.449704   120A      0.463955   121A      0.467201  
     122A      0.470142   123A      0.477001   124A      0.479595  
     125A      0.483187   126A      0.487956   127A      0.490078  
     128A      0.494267   129A      0.496610   130A      0.504872  
     131A      0.506332   132A      0.512135   133A      0.518334  
     134A      0.527658   135A      0.534478   136A      0.538393  
     137A      0.540891   138A      0.550552   139A      0.553042  
     140A      0.558419   141A      0.564490   142A      0.569655  
     143A      0.575531   144A      0.584309   145A      0.592305  
     146A      0.614218   147A      0.620190   148A      0.628926  
     149A      0.631093   150A      0.643327   151A      0.650274  
     152A      0.656130   153A      0.666245   154A      0.675841  
     155A      0.682470   156A      0.686832   157A      0.692023  
     158A      0.700634   159A      0.703807   160A      0.708695  
     161A      0.710530   162A      0.722452   163A      0.727035  
     164A      0.730862   165A      0.735889   166A      0.738960  
     167A      0.742221   168A      0.747406   169A      0.754199  
     170A      0.763645   171A      0.766393   172A      0.776050  
     173A      0.790342   174A      0.797581   175A      0.809307  
     176A      0.815101   177A      0.826531   178A      0.840036  
     179A      0.843605   180A      0.850402   181A      0.857842  
     182A      0.866777   183A      0.870338   184A      0.881996  
     185A      0.883355   186A      0.889473   187A      0.901919  
     188A      0.908186   189A      0.921397   190A      0.933773  
     191A      0.951453   192A      0.972342   193A      0.982916  
     194A      0.986135   195A      0.996396   196A      1.015115  
     197A      1.017835   198A      1.030339   199A      1.047314  
     200A      1.052177   201A      1.058651   202A      1.071764  
     203A      1.092695   204A      1.117722   205A      1.120142  
     206A      1.140606   207A      1.169797   208A      1.177824  
     209A      1.200022   210A      1.241094   211A      1.284534  
     212A      1.324256   213A      1.325301   214A      1.345751  
     215A      1.389027   216A      1.467786   217A      1.477858  
     218A      1.575657   219A      1.821072   220A      2.279872  
     221A      2.302049   222A      2.328693   223A      2.344064  
     224A      2.346782   225A      2.358401   226A      2.387099  
     227A      2.389717   228A      2.410573   229A      2.441083  
     230A      2.452839   231A      2.470904   232A      2.477777  
     233A      2.570072   234A      2.605276   235A      2.626315  
     236A      2.636439   237A      2.642031   238A      2.664358  
     239A      2.674880   240A      2.687053   241A      2.706300  
     242A      2.748417   243A      2.753934   244A      2.772725  
     245A      2.780959   246A      2.789604   247A      2.807960  
     248A      2.822790   249A      2.826708   250A      2.841646  
     251A      2.850047   252A      2.856147   253A      2.871009  
     254A      2.890983   255A      2.909874   256A      2.927396  
     257A      2.949907   258A      2.964555   259A      2.966545  
     260A      3.001644   261A      3.026302   262A      3.042973  
     263A      3.081387   264A      3.099346   265A      3.136671  
     266A      3.145197   267A      3.165960   268A      3.174108  
     269A      3.199740   270A      3.212988   271A      3.229418  
     272A      3.237037   273A      3.255369   274A      3.282468  
     275A      3.297772   276A      3.309744   277A      3.319707  
     278A      3.329624   279A      3.330921   280A      3.358522  
     281A      3.359777   282A      3.386837   283A      3.445103  
     284A      3.506979   285A      3.543833   286A      3.821931  
     287A      3.858484   288A      3.898270   289A      4.052536  
     290A      4.063741   291A      4.117719   292A      4.238713  
     293A      4.268731   294A      4.308058   295A      5.003383  
     296A      5.114555   297A      5.154118   298A     23.239451  
     299A     23.270941   300A     23.347142   301A     23.467808  
     302A     23.481687   303A     23.492625   304A     23.512579  
     305A     23.526282   306A     23.595853   307A     23.702822  
     308A     23.724870   309A     23.761694   310A     23.772466  
     311A     23.794898   312A     23.877570   313A     23.971985  
     314A     23.989200   315A     35.530577   316A     35.539290  
     317A     35.584082   318A     50.087010  

    Final Occupation by Irrep:
              A 
    DOCC [    73 ]

  @DF-RKS Final Energy:  -895.96416954782637

   => Energetics <=

    Nuclear Repulsion Energy =           1535.3584595361974152
    One-Electron Energy =               -4263.3581747913995059
    Two-Electron Energy =                1919.6628307570356355
    DFT Exchange-Correlation Energy =     -87.6014157438457346
    Empirical Dispersion Energy =          -0.0258693058138310
    VV10 Nonlocal Energy =                  0.0000000000000000
    Total Energy =                       -895.9641695478262591

Computation Completed


Properties will be evaluated at   0.000000,   0.000000,   0.000000 [a0]

Properties computed using the SCF density matrix

  Nuclear Dipole Moment: [e a0]
     X:     3.2490      Y:     4.2643      Z:    -7.8569

  Electronic Dipole Moment: [e a0]
     X:    -3.2186      Y:    -3.5410      Z:     7.0916

  Dipole Moment: [e a0]
     X:     0.0304      Y:     0.7233      Z:    -0.7653     Total:     1.0535

  Dipole Moment: [D]
     X:     0.0772      Y:     1.8385      Z:    -1.9453     Total:     2.6777


*** tstop() called on node74.bme.utexas.edu at Thu Jun  9 04:00:07 2022
Module time:
	user time   =     290.53 seconds =       4.84 minutes
	system time =       5.57 seconds =       0.09 minutes
	total time  =        150 seconds =       2.50 minutes
Total time:
	user time   =     290.53 seconds =       4.84 minutes
	system time =       5.57 seconds =       0.09 minutes
	total time  =        150 seconds =       2.50 minutes

*** tstart() called on node74.bme.utexas.edu
*** at Thu Jun  9 04:00:07 2022


         ------------------------------------------------------------
                                   SCF GRAD                          
                          Rob Parrish, Justin Turney,                
                       Andy Simmonett, and Alex Sokolov              
         ------------------------------------------------------------

  ==> Geometry <==

    Molecular point group: c1
    Full point group: C1

    Geometry (in Angstrom), charge = 0, multiplicity = 1:

       Center              X                  Y                   Z               Mass       
    ------------   -----------------  -----------------  -----------------  -----------------
         C            1.686401221553    -0.379140244130     0.013659013837    12.000000000000
         N            0.528169221553    -0.611590244130     0.810719013837    14.003074004430
         C           -0.711773778447    -0.024543244130     0.786973013837    12.000000000000
         C           -1.761040778447    -0.670707244130     1.461232013837    12.000000000000
         H            0.543807221553    -1.454647244130     1.415984013837     1.007825032230
         C           -1.075485778447     0.914743755870    -0.323860986163    12.000000000000
         C           -3.189610778447    -0.559191244130     1.276507013837    12.000000000000
         N           -2.804663778447    -1.964315244130     2.993222013837    14.003074004430
         C           -1.545053778447    -1.604876244130     2.575698013837    12.000000000000
         C           -3.784355778447    -1.344700244130     2.214058013837    12.000000000000
         C           -1.643183778447     2.175269755870    -0.012616986163    12.000000000000
         C           -0.937829778447     0.541134755870    -1.687383986163    12.000000000000
         C           -2.030516778447     3.051058755870    -1.034836986163    12.000000000000
         C           -1.324976778447     1.422316755870    -2.705350986163    12.000000000000
         C           -1.871046778447     2.682404755870    -2.386203986163    12.000000000000
         C            2.560906221553    -1.468848244130    -0.225274986163    12.000000000000
         C            1.950918221553     0.863158755870    -0.618835986163    12.000000000000
         C            3.678841221553    -1.312288244130    -1.057099986163    12.000000000000
         C            3.069372221553     1.005581755870    -1.453339986163    12.000000000000
         C            3.962894221553    -0.071315244130    -1.682332986163    12.000000000000
         H           -2.950597778447    -2.601996244130     3.762400013837     1.007825032230
         O           -0.465140778447    -2.024838244130     3.052363013837    15.994914619570
         H           -1.774790778447     2.458920755870     1.033392013837     1.007825032230
         H           -0.530280778447    -0.439375244130    -1.940069986163     1.007825032230
         H           -2.457077778447     4.023141755870    -0.781115986163     1.007825032230
         H           -1.203750778447     1.130016755870    -3.749848986163     1.007825032230
         H           -2.172277778447     3.367238755870    -3.180933986163     1.007825032230
         H            2.343763221553    -2.430841244130     0.245346013837     1.007825032230
         H            1.293858221553     1.712943755870    -0.440078986163     1.007825032230
         H            4.331364221553    -2.173186244130    -1.220088986163     1.007825032230
         H            3.243063221553     1.973607755870    -1.928686986163     1.007825032230
         N            5.098901221553     0.087836755870    -2.522497986163    14.003074004430
         H           -3.703910778447     0.042996755870     0.540670013837     1.007825032230
         H           -4.832379778447    -1.525001244130     2.407455013837     1.007825032230
         H            5.839508221553    -0.543379244130    -2.206156986163     1.007825032230
         H            5.506508221553     1.010964755870    -2.350891986163     1.007825032230

  Nuclear repulsion = 1535.358459536197415

  ==> Basis Set <==

  Basis Set: 6-311G
    Blend: 6-311G
    Number of shells: 192
    Number of basis functions: 318
    Number of Cartesian functions: 318
    Spherical Harmonics?: true
    Max angular momentum: 1

  ==> DFJKGrad: Density-Fitted SCF Gradients <==

    Gradient:                    1
    J tasked:                  Yes
    K tasked:                  Yes
    wK tasked:                 Yes
    Omega:               2.000E-01
    OpenMP threads:              2
    Integrals threads:           2
    Memory [MiB]:             5841
    Schwarz Cutoff:          1E-12
    Fitting Condition:       1E-10

   => Auxiliary Basis Set <=

  Basis Set: (6-311G AUX)
    Blend: CC-PVTZ-JKFIT
    Number of shells: 675
    Number of basis functions: 2109
    Number of Cartesian functions: 2541
    Spherical Harmonics?: true
    Max angular momentum: 4

  ==> DFT Potential <==

   => LibXC <=

    Version 5.1.5
    S. Lehtola, C. Steigemann, M. J. Oliveira, and M. A. Marques, SoftwareX 7, 1 (2018) (10.1016/j.softx.2017.11.002)

   => Composite Functional: WB97X-D <= 

    wB97X-D Hyb-GGA Exchange-Correlation Functional

    J.-D. Chai and M. Head-Gordon, Phys. Chem. Chem. Phys. 10, 6615 (2008) (10.1039/B810189B)

    Deriv               =              1
    GGA                 =           TRUE
    Meta                =          FALSE

    Exchange Hybrid     =           TRUE
    MP2 Hybrid          =          FALSE

   => Exchange-Correlation Functionals <=

    1.0000   wB97X-D range-separated functional

   => Exact (HF) Exchange <=

    0.7780            HF,LR [omega = 0.2000]
    0.2220               HF 

   => LibXC Density Thresholds  <==

    XC_HYB_GGA_XC_WB97X_D:  1.00E-14 

   => Molecular Quadrature <=

    Radial Scheme          =       TREUTLER
    Pruning Scheme         =           NONE
    Nuclear Scheme         =       TREUTLER

    BS radius alpha        =              1
    Pruning alpha          =              1
    Radial Points          =             75
    Spherical Points       =            302
    Total Points           =         741224
    Total Blocks           =           5269
    Max Points             =            256
    Max Functions          =            228
    Weights Tolerance      =       1.00E-15


  -Total Gradient:
     Atom            X                  Y                   Z
    ------   -----------------  -----------------  -----------------
       1       -0.000448989759    -0.004850832646     0.009599547353
       2       -0.001591890544     0.006970739850    -0.011571093510
       3        0.017038045418     0.036339824851     0.027557296755
       4       -0.021243554427    -0.016548689764    -0.006001565434
       5       -0.005039550291    -0.016230791424     0.003482942912
       6        0.005993681560    -0.014713005302     0.004659266715
       7        0.010687184166    -0.004658544210    -0.006399430229
       8       -0.001096206374     0.007916399069    -0.011817756268
       9        0.004847247351    -0.005918061919     0.013087157167
      10        0.006795851925    -0.004629653515     0.005786505182
      11       -0.004563480659     0.008302101118     0.003563460025
      12        0.001646853196    -0.002888018379    -0.008786341536
      13       -0.000941673571     0.002235962643     0.007585589076
      14        0.002422424503    -0.004241702731    -0.004860717391
      15       -0.002547390814     0.004354957509    -0.007456986996
      16        0.003856932974    -0.012188383426     0.000915084420
      17       -0.007352563395     0.009844027414    -0.005660723833
      18        0.002988231703    -0.005134518424    -0.000209054917
      19        0.000682965657     0.006458750095    -0.001971362425
      20        0.019096059715     0.004012532436    -0.009896019746
      21        0.000611839574    -0.004508799488     0.006294774708
      22       -0.010982418886     0.005506278886    -0.001986478431
      23       -0.001169911138     0.002136656469     0.006404475611
      24        0.001521320098    -0.006533924240    -0.002166488643
      25       -0.002364987462     0.006110229720     0.001689948340
      26        0.000991981429    -0.001304239297    -0.006766191826
      27       -0.001991616799     0.004361004172    -0.005047931995
      28       -0.002976044405    -0.005394466306     0.003961921210
      29       -0.005896201272     0.004897350742     0.001998067799
      30        0.002686802283    -0.006045769986    -0.000059219018
      31       -0.000522650631     0.006328802875    -0.002169498171
      32       -0.017665167210    -0.007193391607    -0.030555902345
      33       -0.002963368908     0.002175006208    -0.001876201600
      34       -0.003807879995    -0.000334867054     0.002057391834
      35        0.006258998000     0.005950049683     0.012612690764
      36        0.007221093110    -0.000547260739     0.013994230693


*** tstop() called on node74.bme.utexas.edu at Thu Jun  9 04:01:14 2022
Module time:
	user time   =     128.96 seconds =       2.15 minutes
	system time =       1.68 seconds =       0.03 minutes
	total time  =         67 seconds =       1.12 minutes
Total time:
	user time   =     419.49 seconds =       6.99 minutes
	system time =       7.25 seconds =       0.12 minutes
	total time  =        217 seconds =       3.62 minutes

			-----------------------------------------
			 OPTKING 2.0: for geometry optimizations 
			  - R.A. King,  Bethel University        
			-----------------------------------------
	At level 1: Red. Int., RFO, no backsteps, dynamic trust

	Internal coordinates to be generated automatically.
	Detected frag 1 with atoms:  1 2 3 4 5 6 7 8 9 10 11 12 13 14 15 16 17 18 19 20
	 21 22 23 24 25 26 27 28 29 30 31 32 33 34 35 36
	---Fragment 1 Bond Connectivity---
	 1 : 2 16 17
	 2 : 1 3 5
	 3 : 2 4 6
	 4 : 3 7 9
	 5 : 2
	 6 : 3 11 12
	 7 : 4 10 33
	 8 : 9 10 21
	 9 : 4 8 22
	 10 : 7 8 34
	 11 : 6 13 23
	 12 : 6 14 24
	 13 : 11 15 25
	 14 : 12 15 26
	 15 : 13 14 27
	 16 : 1 18 28
	 17 : 1 19 29
	 18 : 16 20 30
	 19 : 17 20 31
	 20 : 18 19 32
	 21 : 8
	 22 : 9
	 23 : 11
	 24 : 12
	 25 : 13
	 26 : 14
	 27 : 15
	 28 : 16
	 29 : 17
	 30 : 18
	 31 : 19
	 32 : 20 35 36
	 33 : 7
	 34 : 10
	 35 : 32
	 36 : 32

	Assuming in current code that numbering for constraints corresponds to unified fragment.
	Frozen dihedral atom list: 
	     1     2     3     4
	    16     1     2     3
	     2     3     6    11
	    18    20    32    35
	---Fragment 1 Geometry and Gradient---
	 C           3.1868364464       -0.7164712245        0.0258117953
	 N           0.9980951766       -1.1557380624        1.5320369009
	 C          -1.3450575045       -0.0463800096        1.4871634643
	 C          -3.3278847670       -1.2674530018        2.7613283119
	 H           1.0276467138       -2.7488849006        2.6758219842
	 C          -2.0323735731        1.7286151736       -0.6120085666
	 C          -6.0274908181       -1.0567183032        2.4122486534
	 N          -5.3000464153       -3.7120178355        5.6563698388
	 C          -2.9197284904       -3.0327765667        4.8673638280
	 C          -7.1513959826       -2.5411151822        4.1839632720
	 C          -3.1051673151        4.1106640876       -0.0238426484
	 C          -1.7722414336        1.0225964856       -3.1886936023
	 C          -3.8371206044        5.7656654413       -1.9555584883
	 C          -2.5038432339        2.6877891322       -5.1123724371
	 C          -3.5357659792        5.0690103462       -4.5092720133
	 C           4.8394113917       -2.7757209013       -0.4257080268
	 C           3.6867011319        1.6311336514       -1.1694305304
	 C           6.9520023678       -2.4798653791       -1.9976294611
	 C           5.8002728758        1.9002741154       -2.7464145410
	 C           7.4887847429       -0.1347662800       -3.1791485957
	 H          -5.5758217076       -4.9170602809        7.1099056006
	 O          -0.8789886810       -3.8263897298        5.7681301316
	 H          -3.3538685013        4.6466867928        1.9528278864
	 H          -1.0020854409       -0.8302988777       -3.6662009381
	 H          -4.6432040702        7.6026360825       -1.4760952861
	 H          -2.2747592946        2.1354221858       -7.0861875957
	 H          -4.1050100697        6.3631590476       -6.0110940570
	 H           4.4290705917       -4.5936242059        0.4636367721
	 H           2.4450376839        3.2369945669       -0.8316287574
	 H           8.1850921283       -4.1067268210       -2.3056340325
	 H           6.1285012963        3.7295781377       -3.6446901856
	 N           9.6355268495        0.1659874123       -4.7668303459
	 H          -6.9993769644        0.0812520929        1.0217182504
	 H          -9.1318743155       -2.8818346924        4.5494306355
	 H          11.0350712461       -1.0268379537       -4.1690324936
	 H          10.4057924463        1.9104465111       -4.4425420044
	            -0.0004489898       -0.0048508326        0.0095995474
	            -0.0015918905        0.0069707399       -0.0115710935
	             0.0170380454        0.0363398249        0.0275572968
	            -0.0212435544       -0.0165486898       -0.0060015654
	            -0.0050395503       -0.0162307914        0.0034829429
	             0.0059936816       -0.0147130053        0.0046592667
	             0.0106871842       -0.0046585442       -0.0063994302
	            -0.0010962064        0.0079163991       -0.0118177563
	             0.0048472474       -0.0059180619        0.0130871572
	             0.0067958519       -0.0046296535        0.0057865052
	            -0.0045634807        0.0083021011        0.0035634600
	             0.0016468532       -0.0028880184       -0.0087863415
	            -0.0009416736        0.0022359626        0.0075855891
	             0.0024224245       -0.0042417027       -0.0048607174
	            -0.0025473908        0.0043549575       -0.0074569870
	             0.0038569330       -0.0121883834        0.0009150844
	            -0.0073525634        0.0098440274       -0.0056607238
	             0.0029882317       -0.0051345184       -0.0002090549
	             0.0006829657        0.0064587501       -0.0019713624
	             0.0190960597        0.0040125324       -0.0098960197
	             0.0006118396       -0.0045087995        0.0062947747
	            -0.0109824189        0.0055062789       -0.0019864784
	            -0.0011699111        0.0021366565        0.0064044756
	             0.0015213201       -0.0065339242       -0.0021664886
	            -0.0023649875        0.0061102297        0.0016899483
	             0.0009919814       -0.0013042393       -0.0067661918
	            -0.0019916168        0.0043610042       -0.0050479320
	            -0.0029760444       -0.0053944663        0.0039619212
	            -0.0058962013        0.0048973507        0.0019980678
	             0.0026868023       -0.0060457700       -0.0000592190
	            -0.0005226506        0.0063288029       -0.0021694982
	            -0.0176651672       -0.0071933916       -0.0305559023
	            -0.0029633689        0.0021750062       -0.0018762016
	            -0.0038078800       -0.0003348671        0.0020573918
	             0.0062589980        0.0059500497        0.0126126908
	             0.0072210931       -0.0005472607        0.0139942307

	Previous optimization step data not found.  Starting new optimization.

	---Fragment 1 Intrafragment Coordinates---
	 - Coordinate -           - BOHR/RAD -       - ANG/DEG -
	 H(5,22)          =         3.789280	       2.005201
	 R(1,2)           =         2.693002	       1.425075
	 R(1,16)          =         2.678691	       1.417502
	 R(1,17)          =         2.681365	       1.418917
	 R(2,3)           =         2.592885	       1.372096
	 R(2,5)           =         1.961437	       1.037948
	 R(3,4)           =         2.654453	       1.404676
	 R(3,6)           =         2.833643	       1.499499
	 R(4,7)           =         2.730227	       1.444774
	 R(4,9)           =         2.778191	       1.470155
	 R(6,11)          =         2.677869	       1.417067
	 R(6,12)          =         2.684294	       1.420467
	 R(7,10)          =         2.570130	       1.360054
	 R(7,33)          =         2.042820	       1.081014
	 R(8,9)           =         2.598040	       1.374824
	 R(8,10)          =         2.639411	       1.396716
	 R(8,21)          =         1.908126	       1.009737
	 R(9,22)          =         2.367661	       1.252912
	 R(10,34)         =         2.042535	       1.080863
	 R(11,13)         =         2.646944	       1.400702
	 R(11,23)         =         2.063104	       1.091748
	 R(12,14)         =         2.647385	       1.400936
	 R(12,24)         =         2.062614	       1.091488
	 R(13,15)         =         2.664131	       1.409798
	 R(13,25)         =         2.062551	       1.091455
	 R(14,15)         =         2.664359	       1.409918
	 R(14,26)         =         2.062410	       1.091380
	 R(15,27)         =         2.062603	       1.091482
	 R(16,18)         =         2.649813	       1.402221
	 R(16,28)         =         2.064966	       1.092733
	 R(17,19)         =         2.650755	       1.402719
	 R(17,29)         =         2.057821	       1.088952
	 R(18,20)         =         2.680226	       1.418315
	 R(18,30)         =         2.064475	       1.092473
	 R(19,20)         =         2.679500	       1.417930
	 R(19,31)         =         2.064216	       1.092336
	 R(20,32)         =         2.686948	       1.421871
	 R(32,35)         =         1.933628	       1.023232
	 R(32,36)         =         1.934324	       1.023600
	 B(1,2,3)         =         2.284985	     130.919970
	 B(1,2,5)         =         2.033530	     116.512712
	 B(1,16,18)       =         2.101358	     120.398933
	 B(1,16,28)       =         2.073258	     118.788959
	 B(1,17,19)       =         2.097549	     120.180680
	 B(1,17,29)       =         2.091598	     119.839744
	 B(2,1,16)        =         2.060424	     118.053572
	 B(2,1,17)        =         2.145568	     122.931988
	 B(2,3,4)         =         2.059991	     118.028816
	 B(2,3,6)         =         2.094416	     120.001197
	 B(3,2,5)         =         1.951118	     111.790831
	 B(3,4,7)         =         2.267541	     129.920552
	 B(3,4,9)         =         2.148897	     123.122738
	 B(3,6,11)        =         2.084797	     119.450045
	 B(3,6,12)        =         2.120981	     121.523275
	 B(4,3,6)         =         2.051675	     117.552336
	 B(4,7,10)        =         1.875146	     107.437970
	 B(4,7,33)        =         2.214860	     126.902111
	 B(4,9,8)         =         1.835623	     105.173441
	 B(4,9,22)        =         2.249797	     128.903868
	 B(6,11,13)       =         2.102114	     120.442248
	 B(6,11,23)       =         2.082706	     119.330272
	 B(6,12,14)       =         2.100510	     120.350333
	 B(6,12,24)       =         2.088269	     119.649021
	 B(7,4,9)         =         1.866315	     106.931957
	 B(7,10,8)        =         1.911387	     109.514382
	 B(7,10,34)       =         2.270115	     130.068002
	 B(8,9,22)        =         2.197551	     125.910401
	 B(8,10,34)       =         2.101681	     120.417478
	 B(9,8,10)        =         1.936113	     110.931126
	 B(9,8,21)        =         2.128061	     121.928890
	 B(10,7,33)       =         2.193115	     125.656209
	 B(10,8,21)       =         2.218979	     127.138133
	 B(11,6,12)       =         2.075583	     118.922148
	 B(11,13,15)      =         2.099906	     120.315768
	 B(11,13,25)      =         2.088966	     119.688917
	 B(12,14,15)      =         2.099836	     120.311750
	 B(12,14,26)      =         2.090085	     119.753045
	 B(13,11,23)      =         2.098364	     120.227412
	 B(13,15,14)      =         2.088048	     119.636313
	 B(13,15,27)      =         2.097462	     120.175717
	 B(14,12,24)      =         2.094403	     120.000463
	 B(14,15,27)      =         2.097668	     120.187549
	 B(15,13,25)      =         2.094313	     119.995307
	 B(15,14,26)      =         2.093264	     119.935165
	 B(16,1,17)       =         2.074778	     118.876009
	 B(16,18,20)      =         2.116325	     121.256501
	 B(16,18,30)      =         2.067711	     118.471092
	 B(17,19,20)      =         2.119311	     121.427602
	 B(17,19,31)      =         2.066502	     118.401826
	 B(18,16,28)      =         2.108553	     120.811168
	 B(18,20,19)      =         2.056831	     117.847732
	 B(18,20,32)      =         2.115805	     121.226692
	 B(19,17,29)      =         2.093858	     119.969212
	 B(19,20,32)      =         2.110502	     120.922880
	 B(20,18,30)      =         2.099140	     120.271882
	 B(20,19,31)      =         2.097371	     120.170508
	 B(20,32,35)      =         1.903446	     109.059413
	 B(20,32,36)      =         1.896560	     108.664910
	 B(35,32,36)      =         1.788802	     102.490805
	*D(1,2,3,4)       =         2.871529	     164.526482
	 D(1,2,3,6)       =         0.151467	       8.678404
	 D(1,16,18,20)    =        -0.003812	      -0.218393
	 D(1,16,18,30)    =        -3.140817	    -179.955579
	 D(1,17,19,20)    =        -0.005850	      -0.335206
	 D(1,17,19,31)    =         3.137340	     179.756346
	 D(2,1,16,18)     =         3.085871	     176.807364
	 D(2,1,16,28)     =        -0.049617	      -2.842851
	 D(2,1,17,19)     =        -3.077365	    -176.320017
	 D(2,1,17,29)     =         0.084672	       4.851342
	 D(2,3,4,7)       =        -2.755823	    -157.897025
	 D(2,3,4,9)       =         0.421644	      24.158410
	*D(2,3,6,11)      =        -2.283273	    -130.821889
	 D(2,3,6,12)      =         0.923910	      52.936116
	*D(3,2,1,16)      =        -2.611889	    -149.650223
	 D(3,2,1,17)      =         0.454129	      26.019660
	 D(3,4,7,10)      =        -3.095753	    -177.373588
	 D(3,4,7,33)      =         0.034094	       1.953467
	 D(3,4,9,8)       =         3.094275	     177.288888
	 D(3,4,9,22)      =        -0.068827	      -3.943485
	 D(3,6,11,13)     =        -3.105519	    -177.933153
	 D(3,6,11,23)     =         0.037731	       2.161799
	 D(3,6,12,14)     =         3.106026	     177.962194
	 D(3,6,12,24)     =        -0.032853	      -1.882314
	 D(4,3,2,5)       =        -0.084189	      -4.823671
	 D(4,3,6,11)      =         1.277890	      73.217724
	 D(4,3,6,12)      =        -1.798113	    -103.024272
	 D(4,7,10,8)      =        -0.004728	      -0.270875
	 D(4,7,10,34)     =         3.134466	     179.591681
	 D(4,9,8,10)      =         0.016232	       0.930006
	 D(4,9,8,21)      =        -3.133422	    -179.531869
	 D(5,2,1,16)      =         0.336740	      19.293774
	 D(5,2,1,17)      =        -2.880428	    -165.036344
	 D(5,2,3,6)       =        -2.804251	    -160.671749
	 D(6,3,4,7)       =        -0.025379	      -1.454126
	 D(6,3,4,9)       =        -3.131098	    -179.398691
	 D(6,11,13,15)    =         0.010327	       0.591713
	 D(6,11,13,25)    =        -3.130710	    -179.376485
	 D(6,12,14,15)    =        -0.014107	      -0.808285
	 D(6,12,14,26)    =         3.128760	     179.264752
	 D(7,4,9,8)       =        -0.018560	      -1.063422
	 D(7,4,9,22)      =         3.101523	     177.704205
	 D(7,10,8,9)      =        -0.007679	      -0.439993
	 D(7,10,8,21)     =        -3.140690	    -179.948266
	 D(8,10,7,33)     =        -3.134761	    -179.608586
	 D(9,4,7,10)      =         0.014435	       0.827068
	 D(9,4,7,33)      =        -3.138903	    -179.845878
	 D(9,8,10,34)     =         3.136042	     179.681978
	 D(10,8,9,22)     =        -3.104695	    -177.885914
	 D(11,6,12,14)    =         0.029686	       1.700881
	 D(11,6,12,24)    =        -3.109193	    -178.143627
	 D(11,13,15,14)   =         0.005703	       0.326777
	 D(11,13,15,27)   =        -3.140002	    -179.908871
	 D(12,6,11,13)    =        -0.027802	      -1.592916
	 D(12,6,11,23)    =         3.115448	     178.502036
	 D(12,14,15,13)   =        -0.003788	      -0.217063
	 D(12,14,15,27)   =        -3.141268	    -179.981388
	 D(13,15,14,26)   =         3.136527	     179.709767
	 D(14,15,13,25)   =        -3.136446	    -179.705123
	 D(15,13,11,23)   =        -3.132937	    -179.504093
	 D(15,14,12,24)   =         3.124762	     179.035675
	 D(16,1,17,19)    =        -0.011939	      -0.684031
	 D(16,1,17,29)    =        -3.133087	    -179.512672
	 D(16,18,20,19)   =        -0.013664	      -0.782872
	 D(16,18,20,32)   =         3.138261	     179.809135
	 D(17,1,16,18)    =         0.016710	       0.957409
	 D(17,1,16,28)    =        -3.118778	    -178.692805
	 D(17,19,20,18)   =         0.018510	       1.060560
	 D(17,19,20,32)   =        -3.133382	    -179.529558
	 D(18,20,19,31)   =        -3.124708	    -179.032591
	*D(18,20,32,35)   =        -0.522585	     -29.941891
	 D(18,20,32,36)   =        -2.459758	    -140.933761
	 D(19,20,18,30)   =         3.123260	     178.949623
	 D(19,20,32,35)   =         2.629658	     150.668288
	 D(19,20,32,36)   =         0.692484	      39.676418
	 D(20,18,16,28)   =         3.131551	     179.424678
	 D(20,19,17,29)   =         3.115272	     178.491912
	 D(21,8,9,22)     =         0.028837	       1.652211
	 D(21,8,10,34)    =         0.003032	       0.173705
	 D(23,11,13,25)   =         0.009210	       0.527709
	 D(24,12,14,26)   =        -0.015556	      -0.891288
	 D(25,13,15,27)   =         0.001034	       0.059230
	 D(26,14,15,27)   =        -0.000952	      -0.054557
	 D(28,16,18,30)   =        -0.005454	      -0.312508
	 D(29,17,19,31)   =        -0.024723	      -1.416537
	 D(30,18,20,32)   =        -0.008000	      -0.458370
	 D(31,19,20,32)   =         0.006585	       0.377292
	 D(33,7,10,34)    =         0.004433	       0.253969
	 R(1,12)          =         6.160345	       3.259914
	 R(2,22)          =         5.347926	       2.830000
	 R(6,17)          =         5.747002	       3.041183
	 R(7,11)          =         6.416881	       3.395667
	 R(12,17)         =         5.852162	       3.096831

	Current energy   :      -895.9641695478

	Generating empirical Hessian (Schlegel '84) for each fragment.
	Taking RFO optimization step.
	Going to follow RFO solution 1.
	Using RFO vector 1.

	Determining step-restricting scale parameter for RS-RFO.
	Maximum step size allowed    0.50000

	 Iter      |step|        alpha        rfo_root  
	------------------------------------------------
	    0     0.57555       1.00000           1
	    1     0.51278       1.34319           1
	    2     0.50048       1.42699           1
	    3     0.50000       1.43041           1
	------------------------------------------------
	Norm of target step-size    0.50000
	Projected energy change by RFO approximation:        -0.0131661610

	Back-transformation to cartesian coordinates...
	Could not converge backtransformation.
	Using first guess instead.

	Back-transformation to cartesian coordinates to adjust frozen coordinates...
	Successfully converged to displaced geometry.

	--- Internal Coordinate Step in ANG or DEG, aJ/ANG or AJ/DEG ---
	 ---------------------------------------------------------------------------
	   Coordinate                Previous        Force       Change         New 
	   ----------                --------       ------       ------       ------
	    1 H(5,22)         =      2.005201    -0.015878    -0.006943     1.998258
	    2 R(1,2)          =      1.425075    -0.088386    -0.005371     1.419704
	    3 R(1,16)         =      1.417502    -0.145237    -0.015135     1.402367
	    4 R(1,17)         =      1.418917    -0.149391    -0.018866     1.400051
	    5 R(2,3)          =      1.372096    -0.032296     0.001981     1.374077
	    6 R(2,5)          =      1.037948    -0.135830    -0.017567     1.020380
	    7 R(3,4)          =      1.404676    -0.094467    -0.006502     1.398174
	    8 R(3,6)          =      1.499499     0.004798     0.000029     1.499529
	    9 R(4,7)          =      1.444774     0.072437     0.022171     1.466945
	   10 R(4,9)          =      1.470155     0.001793     0.006046     1.476201
	   11 R(6,11)         =      1.417067    -0.114294    -0.011592     1.405475
	   12 R(6,12)         =      1.420467    -0.141595    -0.014512     1.405956
	   13 R(7,10)         =      1.360054    -0.056914    -0.003408     1.356647
	   14 R(7,33)         =      1.081014    -0.032216    -0.000518     1.080496
	   15 R(8,9)          =      1.374824     0.042527     0.013244     1.388068
	   16 R(8,10)         =      1.396716     0.037321     0.013418     1.410134
	   17 R(8,21)         =      1.009737    -0.062195    -0.004954     1.004783
	   18 R(9,22)         =      1.252912     0.103643     0.018780     1.271693
	   19 R(10,34)        =      1.080863    -0.033993     0.000577     1.081440
	   20 R(11,13)        =      1.400702    -0.067364    -0.007453     1.393249
	   21 R(11,23)        =      1.091748    -0.056225    -0.004119     1.087628
	   22 R(12,14)        =      1.400936    -0.091594    -0.010805     1.390131
	   23 R(12,24)        =      1.091488    -0.057200    -0.006533     1.084955
	   24 R(13,15)        =      1.409798    -0.136458    -0.011522     1.398276
	   25 R(13,25)        =      1.091455    -0.055657    -0.005961     1.085494
	   26 R(14,15)        =      1.409918    -0.119084    -0.012125     1.397793
	   27 R(14,26)        =      1.091380    -0.057200    -0.004588     1.086792
	   28 R(15,27)        =      1.091482    -0.057388    -0.008649     1.082833
	   29 R(16,18)        =      1.402221    -0.114944    -0.007819     1.394402
	   30 R(16,28)        =      1.092733    -0.058122    -0.008820     1.083913
	   31 R(17,19)        =      1.402719    -0.113650    -0.007873     1.394846
	   32 R(17,29)        =      1.088952    -0.063503    -0.007406     1.081546
	   33 R(18,20)        =      1.418315    -0.151851    -0.019837     1.398478
	   34 R(18,30)        =      1.092473    -0.052544    -0.005896     1.086577
	   35 R(19,20)        =      1.417930    -0.144785    -0.015501     1.402429
	   36 R(19,31)        =      1.092336    -0.053235    -0.007561     1.084774
	   37 R(20,32)        =      1.421871     0.010201     0.008426     1.430297
	   38 R(32,35)        =      1.023232    -0.039297    -0.001308     1.021924
	   39 R(32,36)        =      1.023600    -0.038906     0.015394     1.038994
	   40 B(1,2,3)        =    130.919970     0.000242     0.640365   131.560336
	   41 B(1,2,5)        =    116.512712    -0.000419    -2.071727   114.440986
	   42 B(1,16,18)      =    120.398933     0.000079     0.490810   120.889743
	   43 B(1,16,28)      =    118.788959     0.000118     0.352116   119.141075
	   44 B(1,17,19)      =    120.180680    -0.000014    -0.024345   120.156335
	   45 B(1,17,29)      =    119.839744     0.000148     0.396917   120.236661
	   46 B(2,1,16)       =    118.053572    -0.000169    -0.569627   117.483945
	   47 B(2,1,17)       =    122.931988     0.000183     0.974300   123.906288
	   48 B(2,3,4)        =    118.028816    -0.000104     1.283258   119.312074
	   49 B(2,3,6)        =    120.001197     0.000116    -0.113397   119.887800
	   50 B(3,2,5)        =    111.790831     0.000195     1.612850   113.403681
	   51 B(3,4,7)        =    129.920552     0.000142     0.272479   130.193031
	   52 B(3,4,9)        =    123.122738     0.000099     0.221515   123.344254
	   53 B(3,6,11)       =    119.450045     0.000325     0.933240   120.383286
	   54 B(3,6,12)       =    121.523275    -0.000214    -1.202859   120.320416
	   55 B(4,3,6)        =    117.552336     0.000135     0.663173   118.215509
	   56 B(4,7,10)       =    107.437970     0.000284     0.698450   108.136420
	   57 B(4,7,33)       =    126.902111    -0.000239    -0.518949   126.383162
	   58 B(4,9,8)        =    105.173441     0.000018    -0.149096   105.024345
	   59 B(4,9,22)       =    128.903868     0.000339     0.986606   129.890474
	   60 B(6,11,13)      =    120.442248     0.000093     0.099465   120.541713
	   61 B(6,11,23)      =    119.330272    -0.000086     0.006677   119.336949
	   62 B(6,12,14)      =    120.350333     0.000083    -0.010923   120.339410
	   63 B(6,12,24)      =    119.649021    -0.000088    -0.007088   119.641933
	   64 B(7,4,9)        =    106.931957    -0.000239    -0.473028   106.458929
	   65 B(7,10,8)       =    109.514382    -0.000073    -0.506212   109.008170
	   66 B(7,10,34)      =    130.068002    -0.000026    -0.134427   129.933575
	   67 B(8,9,22)       =    125.910401    -0.000359    -0.860225   125.050176
	   68 B(8,10,34)      =    120.417478     0.000099     0.639742   121.057220
	   69 B(9,8,10)       =    110.931126     0.000009     0.423742   111.354868
	   70 B(9,8,21)       =    121.928890     0.000119     0.137021   122.065911
	   71 B(10,7,33)      =    125.656209    -0.000044    -0.176285   125.479924
	   72 B(10,8,21)      =    127.138133    -0.000129    -0.579850   126.558283
	   73 B(11,6,12)      =    118.922148    -0.000123     0.054062   118.976210
	   74 B(11,13,15)     =    120.315768    -0.000085    -0.383664   119.932104
	   75 B(11,13,25)     =    119.688917     0.000051     0.044437   119.733354
	   76 B(12,14,15)     =    120.311750     0.000042    -0.028649   120.283101
	   77 B(12,14,26)     =    119.753045    -0.000055    -0.301565   119.451480
	   78 B(13,11,23)     =    120.227412    -0.000007    -0.106296   120.121116
	   79 B(13,15,14)     =    119.636313    -0.000012     0.236164   119.872478
	   80 B(13,15,27)     =    120.175717     0.000007    -0.135150   120.040567
	   81 B(14,12,24)     =    120.000463     0.000005     0.017908   120.018372
	   82 B(14,15,27)     =    120.187549     0.000005    -0.104265   120.083283
	   83 B(15,13,25)     =    119.995307     0.000034     0.338658   120.333965
	   84 B(15,14,26)     =    119.935165     0.000013     0.330108   120.265272
	   85 B(16,1,17)      =    118.876009    -0.000001    -0.267307   118.608702
	   86 B(16,18,20)     =    121.256501    -0.000138    -0.454116   120.802385
	   87 B(16,18,30)     =    118.471092     0.000207     0.935059   119.406151
	   88 B(17,19,20)     =    121.427602    -0.000056     0.040379   121.467981
	   89 B(17,19,31)     =    118.401826     0.000168     0.538390   118.940216
	   90 B(18,16,28)     =    120.811168    -0.000197    -0.845101   119.966067
	   91 B(18,20,19)     =    117.847732     0.000130     0.204835   118.052567
	   92 B(18,20,32)     =    121.226692    -0.000032    -0.121014   121.105677
	   93 B(19,17,29)     =    119.969212    -0.000133    -0.368854   119.600358
	   94 B(19,20,32)     =    120.922880    -0.000101    -0.178986   120.743895
	   95 B(20,18,30)     =    120.271882    -0.000069    -0.481734   119.790149
	   96 B(20,19,31)     =    120.170508    -0.000111    -0.579392   119.591116
	   97 B(20,32,35)     =    109.059413     0.000645     4.303823   113.363236
	   98 B(20,32,36)     =    108.664910     0.000758     4.140449   112.805359
	   99 B(35,32,36)     =    102.490805     0.000290     3.828647   106.319452
	  100 *D(1,2,3,4)     =    164.526482    -0.000000     0.000000   164.526482
	  101 D(1,2,3,6)      =      8.678404    -0.000094    -5.607004     3.071400
	  102 D(1,16,18,20)   =     -0.218393     0.000014     0.797962     0.579568
	  103 D(1,16,18,30)   =   -179.955579     0.000015     0.953169  -179.002410
	  104 D(1,17,19,20)   =     -0.335206    -0.000021    -1.284573    -1.619779
	  105 D(1,17,19,31)   =    179.756346    -0.000017    -1.073434   178.682912
	  106 D(2,1,16,18)    =    176.807364     0.000030     2.341588   179.148952
	  107 D(2,1,16,28)    =     -2.842851     0.000034     2.634142    -0.208708
	  108 D(2,1,17,19)    =   -176.320017    -0.000025    -2.297838  -178.617856
	  109 D(2,1,17,29)    =      4.851342    -0.000029    -2.527686     2.323656
	  110 D(2,3,4,7)      =   -157.897025    -0.000138    -7.759346  -165.656371
	  111 D(2,3,4,9)      =     24.158410    -0.000160    -9.007200    15.151211
	  112 *D(2,3,6,11)    =   -130.821889     0.000000    -0.000000  -130.821889
	  113 D(2,3,6,12)     =     52.936116     0.000055     2.804821    55.740936
	  114 *D(3,2,1,16)    =   -149.650223    -0.000000     0.000000  -149.650223
	  115 D(3,2,1,17)     =     26.019660     0.000043     3.948580    29.968239
	  116 D(3,4,7,10)     =   -177.373588    -0.000020    -1.294071  -178.667659
	  117 D(3,4,7,33)     =      1.953467    -0.000006    -0.375498     1.577969
	  118 D(3,4,9,8)      =    177.288888     0.000015     0.884510   178.173397
	  119 D(3,4,9,22)     =     -3.943485    -0.000004     0.011884    -3.931601
	  120 D(3,6,11,13)    =   -177.933153     0.000033     1.778362  -176.154791
	  121 D(3,6,11,23)    =      2.161799     0.000035     1.854553     4.016352
	  122 D(3,6,12,14)    =    177.962194    -0.000032    -1.866866   176.095329
	  123 D(3,6,12,24)    =     -1.882314    -0.000039    -2.216754    -4.099068
	  124 D(4,3,2,5)      =     -4.823671    -0.000018    -1.142794    -5.966465
	  125 D(4,3,6,11)     =     73.217724    -0.000081    -5.695459    67.522265
	  126 D(4,3,6,12)     =   -103.024272    -0.000026    -2.890638  -105.914910
	  127 D(4,7,10,8)     =     -0.270875     0.000004     0.450965     0.180091
	  128 D(4,7,10,34)    =    179.591681     0.000015     0.962910   180.554590
	  129 D(4,9,8,10)     =      0.930006     0.000007     0.414422     1.344428
	  130 D(4,9,8,21)     =   -179.531869    -0.000010    -0.686290  -180.218159
	  131 D(5,2,1,16)     =     19.293774     0.000032     1.471567    20.765341
	  132 D(5,2,1,17)     =   -165.036344     0.000075     5.420147  -159.616197
	  133 D(5,2,3,6)      =   -160.671749    -0.000112    -6.749798  -167.421547
	  134 D(6,3,4,7)      =     -1.454126    -0.000047    -2.438297    -3.892423
	  135 D(6,3,4,9)      =   -179.398691    -0.000069    -3.686150  -183.084841
	  136 D(6,11,13,15)   =      0.591713     0.000009     0.452974     1.044687
	  137 D(6,11,13,25)   =   -179.376485     0.000004     0.145889  -179.230596
	  138 D(6,12,14,15)   =     -0.808285    -0.000004    -0.115534    -0.923819
	  139 D(6,12,14,26)   =    179.264752    -0.000003    -0.049588   179.215164
	  140 D(7,4,9,8)      =     -1.063422    -0.000004    -0.119938    -1.183361
	  141 D(7,4,9,22)     =    177.704205    -0.000023    -0.992564   176.711641
	  142 D(7,10,8,9)     =     -0.439993    -0.000007    -0.559685    -0.999679
	  143 D(7,10,8,21)    =   -179.948266     0.000010     0.597155  -179.351111
	  144 D(8,10,7,33)    =   -179.608586    -0.000009    -0.454161  -180.062747
	  145 D(9,4,7,10)     =      0.827068     0.000000    -0.198187     0.628881
	  146 D(9,4,7,33)     =   -179.845878     0.000014     0.720386  -179.125492
	  147 D(9,8,10,34)    =    179.681978    -0.000017    -1.016871   178.665107
	  148 D(10,8,9,22)    =   -177.885914     0.000024     1.203179  -176.682735
	  149 D(11,6,12,14)   =      1.700881     0.000018     0.865659     2.566540
	  150 D(11,6,12,24)   =   -178.143627     0.000011     0.515771  -177.627856
	  151 D(11,13,15,14)  =      0.326777     0.000006     0.310947     0.637724
	  152 D(11,13,15,27)  =   -179.908871    -0.000003    -0.149872  -180.058743
	  153 D(12,6,11,13)   =     -1.592916    -0.000021    -1.037264    -2.630180
	  154 D(12,6,11,23)   =    178.502036    -0.000019    -0.961073   177.540963
	  155 D(12,14,15,13)  =     -0.217063    -0.000009    -0.481109    -0.698172
	  156 D(12,14,15,27)  =   -179.981388    -0.000000    -0.020017  -180.001405
	  157 D(13,15,14,26)  =    179.709767    -0.000010    -0.548060   179.161707
	  158 D(14,15,13,25)  =   -179.705123     0.000012     0.619802  -179.085320
	  159 D(15,13,11,23)  =   -179.504093     0.000008     0.376295  -179.127798
	  160 D(15,14,12,24)  =    179.035675     0.000003     0.235636   179.271311
	  161 D(16,1,17,19)   =     -0.684031     0.000017     1.680626     0.996595
	  162 D(16,1,17,29)   =   -179.512672     0.000013     1.450778  -178.061894
	  163 D(16,18,20,19)  =     -0.782872    -0.000017    -0.353362    -1.136234
	  164 D(16,18,20,32)  =    179.809135     0.000053     2.625722   182.434857
	  165 D(17,1,16,18)   =      0.957409    -0.000013    -1.447763    -0.490354
	  166 D(17,1,16,28)   =   -178.692805    -0.000009    -1.155209  -179.848014
	  167 D(17,19,20,18)  =      1.060560     0.000021     0.602401     1.662961
	  168 D(17,19,20,32)  =   -179.529558    -0.000049    -2.365071  -181.894629
	  169 D(18,20,19,31)  =   -179.032591     0.000017     0.390928  -178.641663
	  170 *D(18,20,32,35) =    -29.941891     0.000000     0.000000   -29.941891
	  171 D(18,20,32,36)  =   -140.933761    -0.000238    -9.917400  -150.851161
	  172 D(19,20,18,30)  =    178.949623    -0.000019    -0.505473   178.444150
	  173 D(19,20,32,35)  =    150.668288     0.000071     3.056838   153.725126
	  174 D(19,20,32,36)  =     39.676418    -0.000166    -6.860562    32.815856
	  175 D(20,18,16,28)  =    179.424678     0.000010     0.507285   179.931963
	  176 D(20,19,17,29)  =    178.491912    -0.000016    -1.047203   177.444708
	  177 D(21,8,9,22)    =      1.652211     0.000007     0.102467     1.754678
	  178 D(21,8,10,34)   =      0.173705     0.000001     0.139970     0.313675
	  179 D(23,11,13,25)  =      0.527709     0.000002     0.069210     0.596919
	  180 D(24,12,14,26)  =     -0.891288     0.000004     0.301582    -0.589706
	  181 D(25,13,15,27)  =      0.059230     0.000003     0.158983     0.218213
	  182 D(26,14,15,27)  =     -0.054557    -0.000002    -0.086968    -0.141526
	  183 D(28,16,18,30)  =     -0.312508     0.000012     0.662492     0.349984
	  184 D(29,17,19,31)  =     -1.416537    -0.000013    -0.836064    -2.252601
	  185 D(30,18,20,32)  =     -0.458370     0.000051     2.473611     2.015241
	  186 D(31,19,20,32)  =      0.377292    -0.000052    -2.576545    -2.199253
	  187 D(33,7,10,34)   =      0.253969     0.000002     0.057784     0.311753
	  188 R(1,12)         =      3.259914    -0.038215    -0.014970     3.244944
	  189 R(2,22)         =      2.830000    -0.027379     0.010763     2.840764
	  190 R(6,17)         =      3.041183     0.026448     0.033436     3.074618
	  191 R(7,11)         =      3.395667    -0.055430    -0.067016     3.328651
	  192 R(12,17)        =      3.096831    -0.006097     0.004511     3.101341
	 ---------------------------------------------------------------------------
	Successfully symmetrized geometry.

  ==> Convergence Check <==

  Measures of convergence in internal coordinates in au.
  Criteria marked as inactive (o), active & met (*), and active & unmet ( ).
  --------------------------------------------------------------------------------------------- ~
   Step     Total Energy     Delta E     MAX Force     RMS Force      MAX Disp      RMS Disp    ~
  --------------------------------------------------------------------------------------------- ~
    Convergence Criteria             o    2.50e-03 *    1.70e-03 *    1.00e-02 *    6.70e-03 *  ~
  --------------------------------------------------------------------------------------------- ~
      1    -895.96416955   -8.96e+02 o    1.84e-02      5.33e-03      1.73e-01      3.52e-02    ~
  ---------------------------------------------------------------------------------------------

	Writing optimization data to binary file.
	Structure for next step:
	Cartesian Geometry (in Angstrom)
	    C     1.6587631987  -0.4673535864  -0.1140983287
	    N     0.5542468341  -0.5969193676   0.7684067448
	    C    -0.6671684428   0.0318309205   0.7984992107
	    C    -1.6957943616  -0.5077242187   1.5767659405
	    H     0.6229082055  -1.3804022648   1.4184963640
	    C    -1.0313574074   1.0089121673  -0.2791211606
	    C    -3.1343518484  -0.2205340354   1.5753385935
	    N    -2.7265724636  -1.7543936269   3.1741299872
	    C    -1.4737063118  -1.5264583255   2.6217672550
	    C    -3.7176993923  -0.9807295469   2.5357022054
	    C    -1.5428807544   2.2752328934   0.0527469469
	    C    -0.9956036459   0.6214699697  -1.6301659059
	    C    -1.9568994540   3.1552511984  -0.9449003730
	    C    -1.4103235500   1.5005760818  -2.6239680471
	    C    -1.8850482234   2.7715203720  -2.2875708054
	    C     2.4564923867  -1.6015803679  -0.3233586964
	    C     1.9870771304   0.7163488487  -0.7858133666
	    C     3.5485766605  -1.5588309310  -1.1893154920
	    C     3.0746981758   0.7482240696  -1.6585448657
	    C     3.8832045504  -0.3794448702  -1.8622286900
	    H    -2.8696617707  -2.4152183126   3.9173833410
	    O    -0.4062605596  -2.1300412424   2.9585897381
	    H    -1.6106768682   2.5651312773   1.0988339586
	    H    -0.6389833738  -0.3683068878  -1.8952919852
	    H    -2.3382367313   4.1348885287  -0.6743629544
	    H    -1.3645489979   1.1907055797  -3.6646421111
	    H    -2.2072409992   3.4537169722  -3.0643123422
	    H     2.2086689807  -2.5232709917   0.1903900112
	    H     1.4087579385   1.6150995586  -0.6198748321
	    H     4.1406006767  -2.4563733710  -1.3460805794
	    H     3.2983694166   1.6698834139  -2.1850909717
	    N     4.9702801636  -0.3416095611  -2.7909836548
	    H    -3.6492461985   0.4709099310   0.9239856737
	    H    -4.7562288094  -1.0525596050   2.8286351648
	    H     5.7164160419  -1.0035830385  -2.5687207606
	    H     5.4179607687   0.5941885590  -2.8490556794
			--------------------------
			 OPTKING Finished Execution 
			--------------------------

    Structure for next step:
    Molecular point group: c1
    Full point group: C1

    Geometry (in Angstrom), charge = 0, multiplicity = 1:

    C            1.654205984392    -0.466601165243    -0.115658461786
    N            0.549689615511    -0.596166946954     0.766846615167
    C           -0.671725666265     0.032583343606     0.796939081190
    C           -1.700351589073    -0.506971797740     1.575205814022
    H            0.618350987095    -1.379649847200     1.416936236895
    C           -1.035914632307     1.009664594195    -0.280681294409
    C           -3.138909081573    -0.219781613277     1.573778467050
    N           -2.731129695083    -1.753641210820     3.172569866995
    C           -1.478263538425    -1.525705908476     2.620207132605
    C           -3.722256627722    -0.979977127826     2.534142082728
    C           -1.547437981224     2.275985325293     0.051186814442
    C           -1.000160870623     0.622222395162    -1.631726044981
    C           -1.961456682547     3.156003633774    -0.946460509417
    C           -1.414880776333     1.501328510700    -2.625528190095
    C           -1.889605451603     2.772272805888    -2.289130947069
    C            2.451935175581    -1.600827951251    -0.324918830389
    C            1.982519917352     0.717101274486    -0.787373502396
    C            3.544019453595    -1.558078514128    -1.190875629370
    C            3.070140967071     0.748976495531    -1.660105004916
    C            3.878647344819    -0.378692448686    -1.863788829950
    H           -2.874219002757    -2.414465899162     3.915823223703
    O           -0.410817782025    -2.129288827825     2.957029617068
    H           -1.615234095339     2.565883710394     1.097273830297
    H           -0.643540597106    -0.367554466243    -1.896852125313
    H           -2.342793961252     4.135640967969    -0.675923089697
    H           -1.369106224086     1.191458007380    -3.666202258136
    H           -2.211798228654     3.454469408799    -3.065872486905
    H            2.204111768607    -2.522518578632     0.188829879284
    H            1.404200723249     1.615851987940    -0.621434967243
    H            4.136043472200    -2.455620957684    -1.347640717369
    H            3.293812208751     1.670635843446    -2.186651112988
    N            4.965722962318    -0.340857139464    -2.792543798396
    H           -3.653803433668     0.471662355816     0.922425544706
    H           -4.760786048883    -1.051807186160     2.827075043255
    H            5.711858843527    -1.002830619450    -2.570280903317
    H            5.413403569222     0.594940984359    -2.850615823285


Scratch directory: /scratch/bdw2292/Psi4-1_7_Index_0_GrowFragment_0-farH_in17/

Scratch directory: /scratch/bdw2292/Psi4-1_7_Index_0_GrowFragment_0-farH_in17/
gradient() will perform analytic gradient computation.

*** tstart() called on node74.bme.utexas.edu
*** at Thu Jun  9 04:01:16 2022

   => Loading Basis Set <=

    Name: 6-311G
    Role: ORBITAL
    Keyword: BASIS
    atoms 1, 3-4, 6-7, 9-20   entry C          line    92 file /home/bdw2292/miniconda3/envs/newamoebamdpoltype/share/psi4/basis/6-311g.gbs 
    atoms 2, 8, 32            entry N          line   109 file /home/bdw2292/miniconda3/envs/newamoebamdpoltype/share/psi4/basis/6-311g.gbs 
    atoms 5, 21, 23-31, 33-36 entry H          line    21 file /home/bdw2292/miniconda3/envs/newamoebamdpoltype/share/psi4/basis/6-311g.gbs 
    atoms 22                  entry O          line   126 file /home/bdw2292/miniconda3/envs/newamoebamdpoltype/share/psi4/basis/6-311g.gbs 

   => WB97X-D: Empirical Dispersion <=

    Chai and Head-Gordon Dispersion Correction
    Chai, J.-D.; Head-Gordon, M. (2010), J. Chem. Phys., 132: 6615-6620

        s6 =       1.000000


         ---------------------------------------------------------
                                   SCF
               by Justin Turney, Rob Parrish, Andy Simmonett
                          and Daniel G. A. Smith
                              RKS Reference
                        2 Threads,   7788 MiB Core
         ---------------------------------------------------------

  ==> Geometry <==

    Molecular point group: c1
    Full point group: C1

    Geometry (in Angstrom), charge = 0, multiplicity = 1:

       Center              X                  Y                   Z               Mass       
    ------------   -----------------  -----------------  -----------------  -----------------
         C            1.654205984392    -0.466601165243    -0.115658461786    12.000000000000
         N            0.549689615511    -0.596166946954     0.766846615167    14.003074004430
         C           -0.671725666265     0.032583343606     0.796939081190    12.000000000000
         C           -1.700351589073    -0.506971797740     1.575205814022    12.000000000000
         H            0.618350987095    -1.379649847200     1.416936236895     1.007825032230
         C           -1.035914632307     1.009664594195    -0.280681294409    12.000000000000
         C           -3.138909081573    -0.219781613277     1.573778467050    12.000000000000
         N           -2.731129695083    -1.753641210820     3.172569866995    14.003074004430
         C           -1.478263538425    -1.525705908476     2.620207132605    12.000000000000
         C           -3.722256627722    -0.979977127826     2.534142082728    12.000000000000
         C           -1.547437981224     2.275985325293     0.051186814442    12.000000000000
         C           -1.000160870623     0.622222395162    -1.631726044981    12.000000000000
         C           -1.961456682547     3.156003633774    -0.946460509417    12.000000000000
         C           -1.414880776333     1.501328510700    -2.625528190095    12.000000000000
         C           -1.889605451603     2.772272805888    -2.289130947069    12.000000000000
         C            2.451935175581    -1.600827951251    -0.324918830389    12.000000000000
         C            1.982519917352     0.717101274486    -0.787373502396    12.000000000000
         C            3.544019453595    -1.558078514128    -1.190875629370    12.000000000000
         C            3.070140967071     0.748976495531    -1.660105004916    12.000000000000
         C            3.878647344819    -0.378692448686    -1.863788829950    12.000000000000
         H           -2.874219002757    -2.414465899162     3.915823223703     1.007825032230
         O           -0.410817782025    -2.129288827825     2.957029617068    15.994914619570
         H           -1.615234095339     2.565883710394     1.097273830297     1.007825032230
         H           -0.643540597106    -0.367554466243    -1.896852125313     1.007825032230
         H           -2.342793961252     4.135640967969    -0.675923089697     1.007825032230
         H           -1.369106224086     1.191458007380    -3.666202258136     1.007825032230
         H           -2.211798228654     3.454469408799    -3.065872486905     1.007825032230
         H            2.204111768607    -2.522518578632     0.188829879284     1.007825032230
         H            1.404200723249     1.615851987940    -0.621434967243     1.007825032230
         H            4.136043472200    -2.455620957684    -1.347640717369     1.007825032230
         H            3.293812208751     1.670635843446    -2.186651112988     1.007825032230
         N            4.965722962318    -0.340857139464    -2.792543798396    14.003074004430
         H           -3.653803433668     0.471662355816     0.922425544706     1.007825032230
         H           -4.760786048883    -1.051807186160     2.827075043255     1.007825032230
         H            5.711858843527    -1.002830619450    -2.570280903317     1.007825032230
         H            5.413403569222     0.594940984359    -2.850615823285     1.007825032230

  Running in c1 symmetry.

  Rotational constants: A =      0.01450  B =      0.00741  C =      0.00518 [cm^-1]
  Rotational constants: A =    434.61348  B =    222.23881  C =    155.24871 [MHz]
  Nuclear repulsion = 1535.791067886611927

  Charge       = 0
  Multiplicity = 1
  Electrons    = 146
  Nalpha       = 73
  Nbeta        = 73

  ==> Algorithm <==

  SCF Algorithm Type is DF.
  DIIS enabled.
  MOM disabled.
  Fractional occupation disabled.
  Guess Type is READ.
  Energy threshold   = 1.00e-08
  Density threshold  = 1.00e-08
  Integral threshold = 1.00e-12

  ==> Primary Basis <==

  Basis Set: 6-311G
    Blend: 6-311G
    Number of shells: 192
    Number of basis functions: 318
    Number of Cartesian functions: 318
    Spherical Harmonics?: true
    Max angular momentum: 1

  ==> DFT Potential <==

   => LibXC <=

    Version 5.1.5
    S. Lehtola, C. Steigemann, M. J. Oliveira, and M. A. Marques, SoftwareX 7, 1 (2018) (10.1016/j.softx.2017.11.002)

   => Composite Functional: WB97X-D <= 

    wB97X-D Hyb-GGA Exchange-Correlation Functional

    J.-D. Chai and M. Head-Gordon, Phys. Chem. Chem. Phys. 10, 6615 (2008) (10.1039/B810189B)

    Deriv               =              1
    GGA                 =           TRUE
    Meta                =          FALSE

    Exchange Hybrid     =           TRUE
    MP2 Hybrid          =          FALSE

   => Exchange-Correlation Functionals <=

    1.0000   wB97X-D range-separated functional

   => Exact (HF) Exchange <=

    0.7780            HF,LR [omega = 0.2000]
    0.2220               HF 

   => LibXC Density Thresholds  <==

    XC_HYB_GGA_XC_WB97X_D:  1.00E-14 

   => Molecular Quadrature <=

    Radial Scheme          =       TREUTLER
    Pruning Scheme         =           NONE
    Nuclear Scheme         =       TREUTLER

    BS radius alpha        =              1
    Pruning alpha          =              1
    Radial Points          =             75
    Spherical Points       =            302
    Total Points           =         741168
    Total Blocks           =           5310
    Max Points             =            256
    Max Functions          =            221
    Weights Tolerance      =       1.00E-15

   => Loading Basis Set <=

    Name: (6-311G AUX)
    Role: JKFIT
    Keyword: DF_BASIS_SCF
    atoms 1, 3-4, 6-7, 9-20   entry C          line   125 file /home/bdw2292/miniconda3/envs/newamoebamdpoltype/share/psi4/basis/cc-pvtz-jkfit.gbs 
    atoms 2, 8, 32            entry N          line   177 file /home/bdw2292/miniconda3/envs/newamoebamdpoltype/share/psi4/basis/cc-pvtz-jkfit.gbs 
    atoms 5, 21, 23-31, 33-36 entry H          line    51 file /home/bdw2292/miniconda3/envs/newamoebamdpoltype/share/psi4/basis/cc-pvtz-jkfit.gbs 
    atoms 22                  entry O          line   229 file /home/bdw2292/miniconda3/envs/newamoebamdpoltype/share/psi4/basis/cc-pvtz-jkfit.gbs 

   => Loading Basis Set <=

[...]
	   37 R(20,32)        =      1.391397    -0.001972    -0.000328     1.391068
	   38 R(32,35)        =      1.002514    -0.000632    -0.000127     1.002387
	   39 R(32,36)        =      1.002552     0.000229     0.000369     1.002920
	   40 B(1,2,3)        =    131.452679    -0.000003    -0.001831   131.450848
	   41 B(1,2,5)        =    115.363432    -0.000001    -0.013040   115.350392
	   42 B(1,16,18)      =    121.044597    -0.000001     0.002487   121.047084
	   43 B(1,16,28)      =    119.203753     0.000000    -0.001127   119.202627
	   44 B(1,17,19)      =    120.519508    -0.000001     0.002263   120.521771
	   45 B(1,17,29)      =    120.429361     0.000001     0.000289   120.429651
	   46 B(2,1,16)       =    117.089276    -0.000003    -0.002427   117.086849
	   47 B(2,1,17)       =    124.130676     0.000000     0.002795   124.133471
	   48 B(2,3,4)        =    118.422594    -0.000004    -0.015389   118.407205
	   49 B(2,3,6)        =    121.399545     0.000003     0.010495   121.410040
	   50 B(3,2,5)        =    112.412223     0.000003     0.010237   112.422460
	   51 B(3,4,7)        =    130.760669    -0.000004    -0.010982   130.749687
	   52 B(3,4,9)        =    122.453795    -0.000000     0.001220   122.455015
	   53 B(3,6,11)       =    120.186449     0.000001     0.002714   120.189162
	   54 B(3,6,12)       =    120.242658    -0.000001    -0.003000   120.239658
	   55 B(4,3,6)        =    119.310272     0.000001     0.008555   119.318828
	   56 B(4,7,10)       =    107.652427    -0.000004    -0.011190   107.641237
	   57 B(4,7,33)       =    126.252798     0.000002     0.007249   126.260048
	   58 B(4,9,8)        =    105.733303    -0.000003    -0.006158   105.727145
	   59 B(4,9,22)       =    128.776691    -0.000003    -0.006395   128.770295
	   60 B(6,11,13)      =    120.363254     0.000000     0.001370   120.364623
	   61 B(6,11,23)      =    119.365200     0.000000     0.001966   119.367166
	   62 B(6,12,14)      =    120.269764    -0.000001    -0.003522   120.266242
	   63 B(6,12,24)      =    119.695302     0.000001     0.001966   119.697268
	   64 B(7,4,9)        =    106.765146     0.000004     0.008065   106.773211
	   65 B(7,10,8)       =    109.301953     0.000002     0.010715   109.312668
	   66 B(7,10,34)      =    130.012304    -0.000000    -0.003733   130.008571
	   67 B(8,9,22)       =    125.487326     0.000005     0.010708   125.498034
	   68 B(8,10,34)      =    120.684640    -0.000001    -0.009504   120.675137
	   69 B(9,8,10)       =    110.543542     0.000001     0.001904   110.545446
	   70 B(9,8,21)       =    122.975071    -0.000001    -0.002932   122.972138
	   71 B(10,7,33)      =    126.069884     0.000002     0.008009   126.077894
	   72 B(10,8,21)      =    126.474956     0.000000     0.003597   126.478553
	   73 B(11,6,12)      =    119.241286     0.000001    -0.000061   119.241225
	   74 B(11,13,15)     =    120.081694    -0.000000    -0.000312   120.081382
	   75 B(11,13,25)     =    119.736219     0.000002     0.006499   119.742718
	   76 B(12,14,15)     =    120.218034     0.000002     0.005191   120.223225
	   77 B(12,14,26)     =    119.633027    -0.000001    -0.002357   119.630670
	   78 B(13,11,23)     =    120.265655    -0.000000    -0.003171   120.262483
	   79 B(13,15,14)     =    119.787238    -0.000001    -0.002047   119.785191
	   80 B(13,15,27)     =    120.130726    -0.000000    -0.003032   120.127694
	   81 B(14,12,24)     =    120.034922     0.000001     0.001557   120.036479
	   82 B(14,15,27)     =    120.080079     0.000001     0.004967   120.085047
	   83 B(15,13,25)     =    120.181443    -0.000002    -0.006256   120.175187
	   84 B(15,14,26)     =    120.147951    -0.000001    -0.002843   120.145108
	   85 B(16,1,17)      =    118.400183     0.000003    -0.000386   118.399797
	   86 B(16,18,20)     =    120.705127    -0.000000    -0.002611   120.702515
	   87 B(16,18,30)     =    119.625117    -0.000001    -0.001515   119.623602
	   88 B(17,19,20)     =    121.185824    -0.000003    -0.008529   121.177295
	   89 B(17,19,31)     =    119.196768     0.000001     0.002516   119.199285
	   90 B(18,16,28)     =    119.725127     0.000001    -0.000998   119.724130
	   91 B(18,20,19)     =    118.035986     0.000003     0.007474   118.043459
	   92 B(18,20,32)     =    120.750508    -0.000003    -0.014680   120.735828
	   93 B(19,17,29)     =    119.041388    -0.000000    -0.003201   119.038186
	   94 B(19,20,32)     =    121.178650     0.000001     0.007278   121.185928
	   95 B(20,18,30)     =    119.668822     0.000001     0.004067   119.672889
	   96 B(20,19,31)     =    119.601211     0.000002     0.005536   119.606747
	   97 B(20,32,35)     =    119.309441     0.000002     0.015180   119.324621
	   98 B(20,32,36)     =    118.773221    -0.000002     0.003165   118.776386
	   99 B(35,32,36)     =    115.759138     0.000000     0.025591   115.784730
	  100 *D(1,2,3,4)     =    164.526482     0.000000    -0.000000   164.526482
	  101 D(1,2,3,6)      =     -4.734481    -0.000000    -0.023289    -4.757770
	  102 D(1,16,18,20)   =      2.023401    -0.000000    -0.020630     2.002772
	  103 D(1,16,18,30)   =   -177.623781    -0.000000    -0.009634  -177.633415
	  104 D(1,17,19,20)   =     -1.585978    -0.000000     0.011957    -1.574022
	  105 D(1,17,19,31)   =    179.884019     0.000000     0.033314   179.917333
	  106 D(2,1,16,18)    =   -177.086393     0.000000     0.015124  -177.071270
	  107 D(2,1,16,28)    =      4.792184     0.000000     0.002257     4.794441
	  108 D(2,1,17,19)    =    176.338868     0.000000    -0.011065   176.327803
	  109 D(2,1,17,29)    =     -2.514794    -0.000000     0.026497    -2.488297
	  110 D(2,3,4,7)      =   -174.922595     0.000001     0.156678  -174.765917
	  111 D(2,3,4,9)      =      3.206472     0.000001     0.080532     3.287004
	  112 *D(2,3,6,11)    =   -130.821889    -0.000000     0.000000  -130.821889
	  113 D(2,3,6,12)     =     55.819815     0.000000     0.003487    55.823302
	  114 *D(3,2,1,16)    =   -149.650223    -0.000000    -0.000000  -149.650223
	  115 D(3,2,1,17)     =     37.556213     0.000000     0.000226    37.556439
	  116 D(3,4,7,10)     =    178.065584     0.000002     0.155397   178.220981
	  117 D(3,4,7,33)     =     -0.202399     0.000000     0.007494    -0.194905
	  118 D(3,4,9,8)      =   -178.615036     0.000001     0.109580  -178.505456
	  119 D(3,4,9,22)     =      0.807743    -0.000001    -0.063202     0.744541
	  120 D(3,6,11,13)    =   -175.755575    -0.000000     0.023117  -175.732458
	  121 D(3,6,11,23)    =      5.125007     0.000000     0.010778     5.135786
	  122 D(3,6,12,14)    =    175.374030     0.000000    -0.016036   175.357993
	  123 D(3,6,12,24)    =     -4.666131    -0.000000    -0.014597    -4.680728
	  124 D(4,3,2,5)      =     -4.736486     0.000001     0.033018    -4.703468
	  125 D(4,3,6,11)     =     60.010371    -0.000000    -0.020989    59.989382
	  126 D(4,3,6,12)     =   -113.347925    -0.000000    -0.017502  -113.365427
	  127 D(4,7,10,8)     =      0.554225    -0.000005    -0.406833     0.147391
	  128 D(4,7,10,34)    =   -179.058034    -0.000001    -0.091624  -179.149657
	  129 D(4,9,8,10)     =      0.435203    -0.000004    -0.298155     0.137049
	  130 D(4,9,8,21)     =    179.566692    -0.000001    -0.102653   179.464038
	  131 D(5,2,1,16)     =     19.361881    -0.000001    -0.031783    19.330098
	  132 D(5,2,1,17)     =   -153.431683    -0.000000    -0.031557  -153.463240
	  133 D(5,2,3,6)      =   -173.997448     0.000000     0.009729  -173.987719
	  134 D(6,3,4,7)      =     -5.432088     0.000002     0.179755    -5.252333
	  135 D(6,3,4,9)      =    172.696979     0.000001     0.103609   172.800588
	  136 D(6,11,13,15)   =      1.192336     0.000000    -0.012587     1.179749
	  137 D(6,11,13,25)   =   -179.098966     0.000000    -0.027953  -179.126919
	  138 D(6,12,14,15)   =     -0.436479    -0.000000    -0.001009    -0.437488
	  139 D(6,12,14,26)   =    179.924564    -0.000000     0.000625   179.925188
	  140 D(7,4,9,8)      =     -0.094972     0.000001     0.049036    -0.045936
	  141 D(7,4,9,22)     =    179.327806    -0.000002    -0.123745   179.204061
	  142 D(7,10,8,9)     =     -0.640766     0.000006     0.456452    -0.184313
	  143 D(7,10,8,21)    =   -179.734674     0.000003     0.252546  -179.482128
	  144 D(8,10,7,33)    =    178.826246    -0.000003    -0.259290   178.566956
	  145 D(9,4,7,10)     =     -0.285659     0.000003     0.222544    -0.063114
	  146 D(9,4,7,33)     =   -178.553642     0.000001     0.074642  -178.479001
	  147 D(9,8,10,34)    =    179.013912     0.000002     0.175756   179.189669
	  148 D(10,8,9,22)    =   -179.012140    -0.000002    -0.132567  -179.144707
	  149 D(11,6,12,14)   =      1.953220     0.000000    -0.012768     1.940452
	  150 D(11,6,12,24)   =   -178.086941    -0.000000    -0.011329  -178.098269
	  151 D(11,13,15,14)  =      0.347550    -0.000000    -0.001347     0.346203
	  152 D(11,13,15,27)  =    179.839162    -0.000000    -0.015670   179.823493
	  153 D(12,6,11,13)   =     -2.330991    -0.000000     0.019467    -2.311524
	  154 D(12,6,11,23)   =    178.549592    -0.000000     0.007128   178.556720
	  155 D(12,14,15,13)  =     -0.723656     0.000000     0.008083    -0.715573
	  156 D(12,14,15,27)  =    179.784471     0.000000     0.022440   179.806912
	  157 D(13,15,14,26)  =    178.913432     0.000000     0.006442   178.919874
	  158 D(14,15,13,25)  =   -179.359840     0.000000     0.014048  -179.345792
	  159 D(15,13,11,23)  =   -179.696214    -0.000000    -0.000091  -179.696305
	  160 D(15,14,12,24)  =    179.603818     0.000000    -0.002453   179.601364
	  161 D(16,1,17,19)   =      3.633033     0.000000    -0.010704     3.622329
	  162 D(16,1,17,29)   =   -175.220629     0.000000     0.026858  -175.193771
	  163 D(16,18,20,19)  =      0.115126     0.000000     0.021033     0.136159
	  164 D(16,18,20,32)  =   -177.762462    -0.000000     0.018694  -177.743768
	  165 D(17,1,16,18)   =     -3.865691    -0.000000     0.015161    -3.850530
	  166 D(17,1,16,28)   =    178.012887    -0.000000     0.002295   178.015181
	  167 D(17,19,20,18)  =     -0.328513     0.000000    -0.016692    -0.345205
	  168 D(17,19,20,32)  =    177.539532     0.000000    -0.014831   177.524702
	  169 D(18,20,19,31)  =    178.195630    -0.000000    -0.038180   178.157450
	  170 *D(18,20,32,35) =    -29.941891    -0.000000    -0.000000   -29.941891
	  171 D(18,20,32,36)  =    178.790243    -0.000000    -0.102665   178.687578
	  172 D(19,20,18,30)  =    179.762155     0.000000     0.010013   179.772168
	  173 D(19,20,32,35)  =    152.247770    -0.000000    -0.002397   152.245373
	  174 D(19,20,32,36)  =      0.979904    -0.000001    -0.105062     0.874841
	  175 D(20,18,16,28)  =   -179.864862    -0.000000    -0.007699  -179.872561
	  176 D(20,19,17,29)  =    177.283440    -0.000000    -0.025050   177.258390
	  177 D(21,8,9,22)    =      0.119348     0.000001     0.062935     0.182282
	  178 D(21,8,10,34)   =     -0.079996    -0.000001    -0.028149    -0.108146
	  179 D(23,11,13,25)  =      0.012484    -0.000000    -0.015457    -0.002974
	  180 D(24,12,14,26)  =     -0.035139     0.000000    -0.000819    -0.035959
	  181 D(25,13,15,27)  =      0.131772    -0.000000    -0.000274     0.131498
	  182 D(26,14,15,27)  =     -0.578441     0.000000     0.020800    -0.557642
	  183 D(28,16,18,30)  =      0.487955     0.000000     0.003297     0.491252
	  184 D(29,17,19,31)  =     -1.246563     0.000000    -0.003692    -1.250255
	  185 D(30,18,20,32)  =      1.884568    -0.000000     0.007673     1.892241
	  186 D(31,19,20,32)  =     -3.936324     0.000000    -0.036319    -3.972643
	  187 D(33,7,10,34)   =     -0.786013     0.000001     0.055920    -0.730093
	  188 R(1,12)         =      3.220777     0.000090     0.000248     3.221025
	  189 R(2,22)         =      2.704764    -0.000362    -0.000139     2.704625
	  190 R(6,17)         =      3.126656     0.000191     0.000345     3.127002
	  191 R(7,11)         =      3.226863     0.000223     0.000794     3.227657
	  192 R(12,17)        =      3.090538     0.000083     0.000035     3.090572
	 ---------------------------------------------------------------------------
	Successfully symmetrized geometry.

  ==> Convergence Check <==

  Measures of convergence in internal coordinates in au.
  Criteria marked as inactive (o), active & met (*), and active & unmet ( ).
  ---------------------------------------------------------------------------------------------
   Step     Total Energy     Delta E     MAX Force     RMS Force      MAX Disp      RMS Disp   
  ---------------------------------------------------------------------------------------------
    Convergence Criteria             o    2.50e-03 *    1.70e-03 *    1.00e-02 *    6.70e-03 *
  ---------------------------------------------------------------------------------------------
      9    -895.98730808   -3.92e-06 o    3.40e-04 *    6.39e-05 *    7.97e-03 *    1.20e-03 *  ~
  ---------------------------------------------------------------------------------------------


  **** Optimization is complete! (in 9 steps) ****

  ==> Optimization Summary <==

  Measures of convergence in internal coordinates in au.
  --------------------------------------------------------------------------------------------------------------- ~
   Step         Total Energy             Delta E       MAX Force       RMS Force        MAX Disp        RMS Disp  ~
  --------------------------------------------------------------------------------------------------------------- ~
      1    -895.964169547826   -895.964169547826      0.01843134      0.00533283      0.17309128      0.03515811  ~
      2    -895.977751649873     -0.013582102047      0.02119982      0.00314865      0.16930592      0.03337149  ~
      3    -895.984145653397     -0.006394003523      0.01059809      0.00138134      0.15949342      0.02381737  ~
      4    -895.986192670429     -0.002047017032      0.00646956      0.00072434      0.14848319      0.02118347  ~
      5    -895.986855776789     -0.000663106361      0.00639508      0.00067640      0.08771282      0.01512610  ~
      6    -895.987164785012     -0.000309008223      0.00227627      0.00043159      0.03282208      0.00800723  ~
      7    -895.987239707871     -0.000074922859      0.00163014      0.00031714      0.02363438      0.00401245  ~
      8    -895.987304157897     -0.000064450027      0.00138981      0.00012417      0.01235495      0.00206007  ~
      9    -895.987308078275     -0.000003920378      0.00034005      0.00006387      0.00796660      0.00120459  ~
  --------------------------------------------------------------------------------------------------------------- ~

	Writing optimization data to binary file.
	Final energy is   -895.9873080782752
	Final (previous) structure:
	Cartesian Geometry (in Angstrom)
	    C     1.6047574730  -0.4769879210  -0.1525268078
	    N     0.5115062421  -0.5547675932   0.7468496756
	    C    -0.7117590018   0.0348341506   0.7281466734
	    C    -1.6977880952  -0.4670643688   1.5597955523
	    H     0.5817626759  -1.2874101590   1.4617561694
	    C    -1.0765190933   1.0310671467  -0.3157335584
	    C    -3.1041796809  -0.1152556775   1.6859157123
	    N    -2.6575655748  -1.7943265305   3.1162492889
	    C    -1.4509427091  -1.5537743491   2.4971877167
	    C    -3.6491256006  -0.9310077799   2.6170299952
	    C    -1.6476229586   2.2532526873   0.0484612331
	    C    -0.9800397776   0.6983591376  -1.6726547757
	    C    -2.0715527578   3.1517758885  -0.9288338741
	    C    -1.4106346635   1.5927048769  -2.6456805929
	    C    -1.9506255074   2.8249934011  -2.2770236046
	    C     2.4251811169  -1.6055670328  -0.2572851962
	    C     1.9903505224   0.6895135298  -0.8193517956
	    C     3.5516802747  -1.5984288873  -1.0667212596
	    C     3.1206735646   0.6996418705  -1.6269767587
	    C     3.9209895473  -0.4424363879  -1.7698950570
	    H    -2.7812292617  -2.5035665834   3.8120125698
	    O    -0.3716776778  -2.1815219331   2.7190076130
	    H    -1.7446647855   2.5019670706   1.0965652475
	    H    -0.5679679150  -0.2583802070  -1.9614592981
	    H    -2.4987734499   4.1010115420  -0.6356910795
	    H    -1.3302188805   1.3257045316  -3.6904461413
	    H    -2.2817407230   3.5205894653  -3.0360387681
	    H     2.1559904393  -2.5060073894   0.2800624842
	    H     1.4243300243   1.6000011784  -0.6992907253
	    H     4.1485651039  -2.4963925951  -1.1608534706
	    H     3.3986895588   1.6146411708  -2.1350767597
	    N     5.0240352076  -0.4475468113  -2.6179806120
	    H    -3.6248129320   0.6363543685   1.1200923395
	    H    -4.6599304798  -0.9899510566   2.9776476377
	    H     5.7942665030  -1.0571810595  -2.4176722930
	    H     5.2505188035   0.3900750577  -3.1201803547
	Saving final (previous) structure.
	Cleaning optimization helper files.
			--------------------------
			 OPTKING Finished Execution 
			--------------------------

    Final optimized geometry and variables:
    Molecular point group: c1
    Full point group: C1

    Geometry (in Angstrom), charge = 0, multiplicity = 1:

    C            1.604757479288    -0.476987922922    -0.152526808350
    N            0.511506244062    -0.554767595403     0.746849678559
    C           -0.711759004620     0.034834150703     0.728146676286
    C           -1.697788101836    -0.467064370666     1.559795558416
    H            0.581762678233    -1.287410164027     1.461756175111
    C           -1.076519097524     1.031067150792    -0.315733559608
    C           -3.104179693107    -0.115255677979     1.685915718964
    N           -2.657565585254    -1.794326537503     3.116249301127
    C           -1.450942714764    -1.553774355199     2.497187726513
    C           -3.649125614988    -0.931007783529     2.617030005514
    C           -1.647622965074     2.253252696161     0.048461233301
    C           -0.980039781456     0.698359140326    -1.672654782318
    C           -2.071552765961     3.151775900909    -0.928833877729
    C           -1.410634669066     1.592704883143    -2.645680603338
    C           -1.950625515111     2.824993412154    -2.277023613530
    C            2.425181126448    -1.605567039096    -0.257285197240
    C            1.990350530225     0.689513532556    -0.819351798830
    C            3.551680288633    -1.598428893568    -1.066721263788
    C            3.120673576888     0.699641873258    -1.626976765061
    C            3.920989562710    -0.442436389667    -1.769895063998
    H           -2.781229272673    -2.503566593232     3.812012584799
    O           -0.371677679218    -2.181521941657     2.719007623666
    H           -1.744664792354     2.501967080415     1.096565251808
    H           -0.567967917263    -0.258380208014    -1.961459305796
    H           -2.498773459712     4.101011558121    -0.635691082014
    H           -1.330218885772     1.325704536800    -3.690446155852
    H           -2.281740731942     3.520589479108    -3.036038780075
    H            2.155990447742    -2.506007399249     0.280062485279
    H            1.424330029944     1.600001184671    -0.699290728077
    H            4.148565120224    -2.496392604873    -1.160853475120
    H            3.398689572155     1.614641177102    -2.135076768135
    N            5.024035227380    -0.447546813047    -2.617980622332
    H           -3.624812946216     0.636354370967     1.120092343864
    H           -4.659930498144    -0.989951060496     2.977647649426
    H            5.794266525750    -1.057181063620    -2.417672302519
    H            5.250518824175     0.390075059210    -3.120180367006

	Removing binary optimization data file.
	Cleaning optimization helper files.

    Psi4 stopped on: Thursday, 09 June 2022 04:27AM
    Psi4 wall time for execution: 0:29:30.06

*** Psi4 exiting successfully. Buy a developer a beer!
