
    -----------------------------------------------------------------------
          Psi4: An Open-Source Ab Initio Electronic Structure Package
                               Psi4 1.5 release

                         Git: Rev {HEAD} e9f4d6d 


    D. G. A. Smith, L. A. Burns, A. C. Simmonett, R. M. Parrish,
    M. C. Schieber, R. Galvelis, P. Kraus, H. Kruse, R. Di Remigio,
    A. Alenaizan, A. M. James, S. Lehtola, J. P. Misiewicz, M. Scheurer,
    R. A. Shaw, J. B. Schriber, Y. Xie, Z. L. Glick, D. A. Sirianni,
    J. S. O'Brien, J. M. Waldrop, A. Kumar, E. G. Hohenstein,
    B. P. Pritchard, B. R. Brooks, H. F. Schaefer III, A. Yu. Sokolov,
    K. Patkowski, A. E. DePrince III, U. Bozkaya, R. A. King,
    F. A. Evangelista, J. M. Turney, T. D. Crawford, C. D. Sherrill,
    J. Chem. Phys. 152(18) 184108 (2020). https://doi.org/10.1063/5.0006002

                            Additional Code Authors
    E. T. Seidl, C. L. Janssen, E. F. Valeev, M. L. Leininger,
    J. F. Gonthier, R. M. Richard, H. R. McAlexander, M. Saitow, X. Wang,
    P. Verma, M. H. Lechner, and A. Jiang

             Previous Authors, Complete List of Code Contributors,
                       and Citations for Specific Modules
    https://github.com/psi4/psi4/blob/master/codemeta.json
    https://github.com/psi4/psi4/graphs/contributors
    http://psicode.org/psi4manual/master/introduction.html#citing-psifour

    -----------------------------------------------------------------------


    Psi4 started on: Thursday, 09 June 2022 08:29AM

    Process ID: 1303783
    Host:       node74.bme.utexas.edu
    PSIDATADIR: /home/bdw2292/miniconda3/envs/newamoebamdpoltype/share/psi4
    Memory:     500.0 MiB
    Threads:    1
    
  ==> Input File <==

--------------------------------------------------------------------------
molecule { 
0 1
 C    1.643556   -0.108716   -0.004705
 N    0.708868    0.590307    0.791308
 C   -0.692159    0.474310    0.545727
 C   -1.359362   -0.650578    0.884480
 H    0.968125    0.701281    1.758322
 C   -1.365364    1.680101    0.008949
 C   -2.737040   -1.045448    0.586644
 N   -1.779039   -2.719999    1.760476
 C   -0.765592   -1.776539    1.676878
 C   -2.933184   -2.276350    1.098089
 C   -2.557166    2.151901    0.576888
 C   -0.746044    2.443228   -0.990625
 C   -3.149198    3.322374    0.109854
 C   -1.345760    3.603705   -1.465966
 C   -2.552337    4.043865   -0.921480
 C    2.864763   -0.518910    0.541172
 C    1.381730   -0.416198   -1.342162
 C    3.810666   -1.171681   -0.236040
 C    2.333119   -1.067325   -2.123383
 C    3.569563   -1.444647   -1.590168
 H   -1.671240   -3.586930    2.249850
 O    0.341922   -1.874981    2.225639
 H   -3.009001    1.605549    1.393836
 H    0.212914    2.128792   -1.377765
 H   -4.066233    3.676758    0.560847
 H   -0.865669    4.173297   -2.249798
 H   -3.012213    4.952578   -1.285443
 H    3.061057   -0.349346    1.591523
 H    0.429405   -0.153340   -1.783944
 H    4.737642   -1.501185    0.216450
 H    2.107941   -1.282456   -3.161038
 N    4.517226   -2.125333   -2.359219
 H   -3.438935   -0.477768    0.003622
 H   -3.803936   -2.905534    1.041922
 H    5.488533   -2.029197   -2.132282
 H    4.309614   -2.316632   -3.320502
}
memory 8.166666666666666GB
set_num_threads(2)
psi4_io.set_default_path("/scratch/bdw2292/Psi4-1_7_Index_0_GrowFragment_0-farH_in17")
set freeze_core True
E, wfn = energy('wb97x-d/6-311+G*',return_wfn=True)
oeprop(wfn,"WIBERG_LOWDIN_INDICES")
clean()
--------------------------------------------------------------------------

  Memory set to   7.606 GiB by Python driver.
  Threads set to 2 by Python driver.

Scratch directory: /scratch/bdw2292/Psi4-1_7_Index_0_GrowFragment_0-farH_in17/

Scratch directory: /scratch/bdw2292/Psi4-1_7_Index_0_GrowFragment_0-farH_in17/

*** tstart() called on node74.bme.utexas.edu
*** at Thu Jun  9 08:29:59 2022

   => Loading Basis Set <=

    Name: 6-311+G*
    Role: ORBITAL
    Keyword: BASIS
    atoms 1, 3-4, 6-7, 9-20   entry C          line   130 file /home/bdw2292/miniconda3/envs/newamoebamdpoltype/share/psi4/basis/6-311pgs.gbs 
    atoms 2, 8, 32            entry N          line   151 file /home/bdw2292/miniconda3/envs/newamoebamdpoltype/share/psi4/basis/6-311pgs.gbs 
    atoms 5, 21, 23-31, 33-36 entry H          line    47 file /home/bdw2292/miniconda3/envs/newamoebamdpoltype/share/psi4/basis/6-311pgs.gbs 
    atoms 22                  entry O          line   172 file /home/bdw2292/miniconda3/envs/newamoebamdpoltype/share/psi4/basis/6-311pgs.gbs 

   => WB97X-D: Empirical Dispersion <=

    Chai and Head-Gordon Dispersion Correction
    Chai, J.-D.; Head-Gordon, M. (2010), J. Chem. Phys., 132: 6615-6620

        s6 =       1.000000


         ---------------------------------------------------------
                                   SCF
               by Justin Turney, Rob Parrish, Andy Simmonett
                          and Daniel G. A. Smith
                              RKS Reference
                        2 Threads,   7788 MiB Core
         ---------------------------------------------------------

  ==> Geometry <==

    Molecular point group: c1
    Full point group: C1

    Geometry (in Angstrom), charge = 0, multiplicity = 1:

       Center              X                  Y                   Z               Mass       
    ------------   -----------------  -----------------  -----------------  -----------------
         C            1.643555977855    -0.108716020822    -0.004705046317    12.000000000000
         N            0.708867977855     0.590306979178     0.791307953683    14.003074004430
         C           -0.692159022145     0.474309979178     0.545726953683    12.000000000000
         C           -1.359362022145    -0.650578020822     0.884479953683    12.000000000000
         H            0.968124977855     0.701280979178     1.758321953683     1.007825032230
         C           -1.365364022145     1.680100979178     0.008948953683    12.000000000000
         C           -2.737040022145    -1.045448020822     0.586643953683    12.000000000000
         N           -1.779039022145    -2.719999020822     1.760475953683    14.003074004430
         C           -0.765592022145    -1.776539020822     1.676877953683    12.000000000000
         C           -2.933184022145    -2.276350020822     1.098088953683    12.000000000000
         C           -2.557166022145     2.151900979178     0.576887953683    12.000000000000
         C           -0.746044022145     2.443227979178    -0.990625046317    12.000000000000
         C           -3.149198022145     3.322373979178     0.109853953683    12.000000000000
         C           -1.345760022145     3.603704979178    -1.465966046317    12.000000000000
         C           -2.552337022145     4.043864979178    -0.921480046317    12.000000000000
         C            2.864762977855    -0.518910020822     0.541171953683    12.000000000000
         C            1.381729977855    -0.416198020822    -1.342162046317    12.000000000000
         C            3.810665977855    -1.171681020822    -0.236040046317    12.000000000000
         C            2.333118977855    -1.067325020822    -2.123383046317    12.000000000000
         C            3.569562977855    -1.444647020822    -1.590168046317    12.000000000000
         H           -1.671240022145    -3.586930020822     2.249849953683     1.007825032230
         O            0.341921977855    -1.874981020822     2.225638953683    15.994914619570
         H           -3.009001022145     1.605548979178     1.393835953683     1.007825032230
         H            0.212913977855     2.128791979178    -1.377765046317     1.007825032230
         H           -4.066233022145     3.676757979178     0.560846953683     1.007825032230
         H           -0.865669022145     4.173296979178    -2.249798046317     1.007825032230
         H           -3.012213022145     4.952577979178    -1.285443046317     1.007825032230
         H            3.061056977855    -0.349346020822     1.591522953683     1.007825032230
         H            0.429404977855    -0.153340020822    -1.783944046317     1.007825032230
         H            4.737641977855    -1.501185020822     0.216449953683     1.007825032230
         H            2.107940977855    -1.282456020822    -3.161038046317     1.007825032230
         N            4.517225977855    -2.125333020822    -2.359219046317    14.003074004430
         H           -3.438935022145    -0.477768020822     0.003621953683     1.007825032230
         H           -3.803936022145    -2.905534020822     1.041921953683     1.007825032230
         H            5.488532977855    -2.029197020822    -2.132282046317     1.007825032230
         H            4.309613977855    -2.316632020822    -3.320502046317     1.007825032230

  Running in c1 symmetry.

  Rotational constants: A =      0.01396  B =      0.00761  C =      0.00553 [cm^-1]
  Rotational constants: A =    418.37614  B =    228.20040  C =    165.91939 [MHz]
  Nuclear repulsion = 1547.988134550053246

  Charge       = 0
  Multiplicity = 1
  Electrons    = 146
  Nalpha       = 73
  Nbeta        = 73

  ==> Algorithm <==

  SCF Algorithm Type is DF.
  DIIS enabled.
  MOM disabled.
  Fractional occupation disabled.
  Guess Type is SAD.
  Energy threshold   = 1.00e-06
  Density threshold  = 1.00e-06
  Integral threshold = 1.00e-12

  ==> Primary Basis <==

  Basis Set: 6-311+G*
    Blend: 6-311+G*
    Number of shells: 255
    Number of basis functions: 507
    Number of Cartesian functions: 528
    Spherical Harmonics?: true
    Max angular momentum: 2

  ==> DFT Potential <==

   => LibXC <=

    Version 5.1.5
    S. Lehtola, C. Steigemann, M. J. Oliveira, and M. A. Marques, SoftwareX 7, 1 (2018) (10.1016/j.softx.2017.11.002)

   => Composite Functional: WB97X-D <= 

    wB97X-D Hyb-GGA Exchange-Correlation Functional

    J.-D. Chai and M. Head-Gordon, Phys. Chem. Chem. Phys. 10, 6615 (2008) (10.1039/B810189B)

    Deriv               =              1
    GGA                 =           TRUE
    Meta                =          FALSE

    Exchange Hybrid     =           TRUE
    MP2 Hybrid          =          FALSE

   => Exchange-Correlation Functionals <=

    1.0000   wB97X-D range-separated functional

   => Exact (HF) Exchange <=

    0.7780            HF,LR [omega = 0.2000]
    0.2220               HF 

   => LibXC Density Thresholds  <==

    XC_HYB_GGA_XC_WB97X_D:  1.00E-14 

   => Molecular Quadrature <=

    Radial Scheme          =       TREUTLER
    Pruning Scheme         =           NONE
    Nuclear Scheme         =       TREUTLER

    BS radius alpha        =              1
    Pruning alpha          =              1
    Radial Points          =             75
    Spherical Points       =            302
    Total Points           =         744962
    Total Blocks           =           5306
    Max Points             =            256
    Max Functions          =            384
    Weights Tolerance      =       1.00E-15

   => Loading Basis Set <=

    Name: (6-311+G* AUX)
    Role: JKFIT
    Keyword: DF_BASIS_SCF
    atoms 1, 3-4, 6-7, 9-20   entry C          line   200 file /home/bdw2292/miniconda3/envs/newamoebamdpoltype/share/psi4/basis/heavy-aug-cc-pvtz-jkfit.gbs 
    atoms 2, 8, 32            entry N          line   262 file /home/bdw2292/miniconda3/envs/newamoebamdpoltype/share/psi4/basis/heavy-aug-cc-pvtz-jkfit.gbs 
    atoms 5, 21, 23-31, 33-36 entry H          line   116 file /home/bdw2292/miniconda3/envs/newamoebamdpoltype/share/psi4/basis/heavy-aug-cc-pvtz-jkfit.gbs 
    atoms 22                  entry O          line   324 file /home/bdw2292/miniconda3/envs/newamoebamdpoltype/share/psi4/basis/heavy-aug-cc-pvtz-jkfit.gbs 

  ==> Integral Setup <==

  ==> DiskDFJK: Density-Fitted J/K Matrices <==

    J tasked:                  Yes
    K tasked:                  Yes
    wK tasked:                 Yes
    Omega:               2.000E-01
    OpenMP threads:              2
    Integrals threads:           2
    Memory [MiB]:             2233
    Algorithm:                Disk
    Integral Cache:           NONE
    Schwarz Cutoff:          1E-12
    Fitting Condition:       1E-10

   => Auxiliary Basis Set <=

  Basis Set: (6-311+G* AUX)
    Blend: HEAVY-AUG-CC-PVTZ-JKFIT
    Number of shells: 780
    Number of basis functions: 2634
    Number of Cartesian functions: 3276
    Spherical Harmonics?: true
    Max angular momentum: 4

  Cached 50.0% of DFT collocation blocks in 2.926 [GiB].

  Minimum eigenvalue in the overlap matrix is 3.8290780680E-07.
  Reciprocal condition number of the overlap matrix is 2.2519653599E-08.
    Using symmetric orthogonalization.

  ==> Pre-Iterations <==

  SCF Guess: Superposition of Atomic Densities via on-the-fly atomic UHF (no occupation information).

   -------------------------
    Irrep   Nso     Nmo    
   -------------------------
     A        507     507 
   -------------------------
    Total     507     507
   -------------------------

  ==> Iterations <==

                           Total Energy        Delta E     RMS |[F,P]|

   @DF-RKS iter SAD:  -895.64967482456746   -8.95650e+02   0.00000e+00 
   @DF-RKS iter   1:  -895.28598891522665    3.63686e-01   2.67716e-03 DIIS
   @DF-RKS iter   2:  -895.68507577076582   -3.99087e-01   2.15537e-03 DIIS
   @DF-RKS iter   3:  -896.17959488451368   -4.94519e-01   4.10545e-04 DIIS
   @DF-RKS iter   4:  -896.19294737626353   -1.33525e-02   1.74013e-04 DIIS
   @DF-RKS iter   5:  -896.19584244934435   -2.89507e-03   3.82202e-05 DIIS
   @DF-RKS iter   6:  -896.19600516030334   -1.62711e-04   1.22010e-05 DIIS
   @DF-RKS iter   7:  -896.19602627770155   -2.11174e-05   2.98523e-06 DIIS
   @DF-RKS iter   8:  -896.19602861817737   -2.34048e-06   1.67244e-06 DIIS
   @DF-RKS iter   9:  -896.19602939161655   -7.73439e-07   6.27303e-07 DIIS
  Energy and wave function converged.


  ==> Post-Iterations <==

   Electrons on quadrature grid:
      Ntotal   =  146.0000342737 ; deviation = 3.427e-05 

    Orbital Energies [Eh]
    ---------------------

    Doubly Occupied:                                                      

       1A    -19.220566     2A    -14.474761     3A    -14.432240  
       4A    -14.423179     5A    -10.396636     6A    -10.350190  
       7A    -10.339628     8A    -10.312325     9A    -10.310669  
      10A    -10.308013    11A    -10.306709    12A    -10.298623  
      13A    -10.297509    14A    -10.296247    15A    -10.295348  
      16A    -10.294756    17A    -10.289541    18A    -10.272361  
      19A    -10.271273    20A    -10.271055    21A    -10.270125  
      22A     -1.139541    23A     -1.062692    24A     -1.038604  
      25A     -1.007461    26A     -0.970266    27A     -0.930323  
      28A     -0.905221    29A     -0.870315    30A     -0.856132  
      31A     -0.836426    32A     -0.832298    33A     -0.805484  
      34A     -0.766351    35A     -0.718142    36A     -0.707317  
      37A     -0.701942    38A     -0.694764    39A     -0.683084  
      40A     -0.647772    41A     -0.623160    42A     -0.615848  
      43A     -0.607264    44A     -0.595121    45A     -0.584144  
      46A     -0.575349    47A     -0.555437    48A     -0.543260  
      49A     -0.533731    50A     -0.527294    51A     -0.524205  
      52A     -0.518623    53A     -0.514843    54A     -0.511939  
      55A     -0.503548    56A     -0.494701    57A     -0.487615  
      58A     -0.469483    59A     -0.463908    60A     -0.458412  
      61A     -0.441617    62A     -0.434966    63A     -0.421436  
      64A     -0.418618    65A     -0.406740    66A     -0.386037  
      67A     -0.351297    68A     -0.339779    69A     -0.337611  
      70A     -0.328497    71A     -0.317255    72A     -0.285508  
      73A     -0.241576  

    Virtual:                                                              

      74A     -0.017102    75A      0.048493    76A      0.054265  
      77A      0.057821    78A      0.061516    79A      0.066724  
      80A      0.067784    81A      0.074961    82A      0.076592  
      83A      0.081423    84A      0.085937    85A      0.087703  
      86A      0.095937    87A      0.097623    88A      0.100796  
      89A      0.102645    90A      0.106179    91A      0.109349  
      92A      0.118679    93A      0.122559    94A      0.124679  
      95A      0.130561    96A      0.138062    97A      0.140101  
      98A      0.145179    99A      0.150231   100A      0.154335  
     101A      0.160606   102A      0.163427   103A      0.165765  
     104A      0.174426   105A      0.176863   106A      0.179288  
     107A      0.182313   108A      0.183501   109A      0.190880  
     110A      0.192574   111A      0.197001   112A      0.200129  
     113A      0.205757   114A      0.207199   115A      0.209618  
     116A      0.213205   117A      0.215095   118A      0.216397  
     119A      0.218977   120A      0.224397   121A      0.227613  
     122A      0.229167   123A      0.231689   124A      0.234438  
     125A      0.240317   126A      0.241892   127A      0.245575  
     128A      0.250458   129A      0.251421   130A      0.253793  
     131A      0.257483   132A      0.258778   133A      0.263480  
     134A      0.264051   135A      0.266921   136A      0.270250  
     137A      0.270856   138A      0.272953   139A      0.276125  
     140A      0.280363   141A      0.282779   142A      0.283483  
     143A      0.287242   144A      0.291031   145A      0.294596  
     146A      0.297465   147A      0.298355   148A      0.300347  
     149A      0.306301   150A      0.308035   151A      0.312566  
     152A      0.313048   153A      0.318148   154A      0.320289  
     155A      0.321675   156A      0.325807   157A      0.330706  
     158A      0.334963   159A      0.339514   160A      0.341154  
     161A      0.343467   162A      0.346806   163A      0.350826  
     164A      0.352599   165A      0.355977   166A      0.359890  
     167A      0.364921   168A      0.371277   169A      0.373796  
     170A      0.376077   171A      0.383560   172A      0.389853  
     173A      0.396825   174A      0.398016   175A      0.400796  
     176A      0.405575   177A      0.409163   178A      0.412332  
     179A      0.420409   180A      0.426118   181A      0.429621  
     182A      0.434338   183A      0.437444   184A      0.441401  
     185A      0.443120   186A      0.453292   187A      0.456145  
     188A      0.462532   189A      0.473534   190A      0.477849  
     191A      0.486582   192A      0.491439   193A      0.494663  
     194A      0.506852   195A      0.513805   196A      0.524559  
     197A      0.536997   198A      0.548013   199A      0.569834  
     200A      0.586594   201A      0.589588   202A      0.600360  
     203A      0.607215   204A      0.614029   205A      0.623226  
     206A      0.624891   207A      0.631549   208A      0.636118  
     209A      0.643565   210A      0.646979   211A      0.653403  
     212A      0.656392   213A      0.661402   214A      0.669141  
     215A      0.675381   216A      0.683318   217A      0.691692  
     218A      0.695464   219A      0.695813   220A      0.703342  
     221A      0.709693   222A      0.722010   223A      0.725302  
     224A      0.731075   225A      0.734281   226A      0.744904  
     227A      0.759854   228A      0.762733   229A      0.768178  
     230A      0.775354   231A      0.780867   232A      0.788781  
     233A      0.791046   234A      0.795472   235A      0.797930  
     236A      0.802178   237A      0.804197   238A      0.808664  
     239A      0.814803   240A      0.819153   241A      0.822793  
     242A      0.826560   243A      0.830256   244A      0.833623  
     245A      0.839878   246A      0.843694   247A      0.852577  
     248A      0.855471   249A      0.856583   250A      0.874114  
     251A      0.881252   252A      0.892936   253A      0.902288  
     254A      0.912085   255A      0.913594   256A      0.916236  
     257A      0.920016   258A      0.927430   259A      0.934109  
     260A      0.934700   261A      0.943644   262A      0.951408  
     263A      0.953952   264A      0.960588   265A      0.961993  
     266A      0.975226   267A      0.981092   268A      0.992447  
     269A      1.001482   270A      1.008572   271A      1.014010  
     272A      1.018559   273A      1.029154   274A      1.031672  
     275A      1.044262   276A      1.050636   277A      1.056633  
     278A      1.061531   279A      1.069845   280A      1.077247  
     281A      1.085161   282A      1.095909   283A      1.098897  
     284A      1.118060   285A      1.126075   286A      1.139224  
     287A      1.145904   288A      1.152484   289A      1.162777  
     290A      1.173073   291A      1.177943   292A      1.194253  
     293A      1.206721   294A      1.216028   295A      1.232433  
     296A      1.234422   297A      1.253775   298A      1.269954  
     299A      1.273606   300A      1.281212   301A      1.293585  
     302A      1.312117   303A      1.317485   304A      1.324375  
     305A      1.342444   306A      1.344940   307A      1.354146  
     308A      1.364028   309A      1.367697   310A      1.376414  
     311A      1.387634   312A      1.402350   313A      1.421694  
     314A      1.445429   315A      1.447971   316A      1.456239  
     317A      1.466742   318A      1.525474   319A      1.537210  
     320A      1.573433   321A      1.591314   322A      1.597842  
     323A      1.600382   324A      1.621353   325A      1.628314  
     326A      1.641258   327A      1.654831   328A      1.679394  
     329A      1.690081   330A      1.703114   331A      1.717921  
     332A      1.733330   333A      1.749566   334A      1.758592  
     335A      1.790846   336A      1.815622   337A      1.831835  
     338A      1.839728   339A      1.854769   340A      1.865148  
     341A      1.886972   342A      1.888833   343A      1.895181  
     344A      1.903848   345A      1.916832   346A      1.921421  
     347A      1.926073   348A      1.928952   349A      1.943971  
     350A      1.952565   351A      1.957542   352A      1.975776  
     353A      1.986153   354A      1.990486   355A      2.005460  
     356A      2.020094   357A      2.025383   358A      2.030325  
     359A      2.043844   360A      2.047868   361A      2.063366  
     362A      2.084367   363A      2.095323   364A      2.110458  
     365A      2.129060   366A      2.136426   367A      2.150076  
     368A      2.173781   369A      2.189729   370A      2.199310  
     371A      2.217140   372A      2.226497   373A      2.241149  
     374A      2.296534   375A      2.306510   376A      2.316246  
     377A      2.324995   378A      2.336964   379A      2.355821  
     380A      2.382887   381A      2.394319   382A      2.396308  
     383A      2.407145   384A      2.427029   385A      2.430778  
     386A      2.455906   387A      2.466775   388A      2.473172  
     389A      2.475603   390A      2.502421   391A      2.523613  
     392A      2.533331   393A      2.543860   394A      2.562149  
     395A      2.572477   396A      2.587504   397A      2.636350  
     398A      2.649599   399A      2.690000   400A      2.712341  
     401A      2.750571   402A      2.765555   403A      2.779112  
     404A      2.781479   405A      2.797504   406A      2.820119  
     407A      2.825317   408A      2.854833   409A      2.864166  
     410A      2.877260   411A      2.899204   412A      2.905660  
     413A      2.912197   414A      2.924299   415A      2.933897  
     416A      2.944693   417A      2.981794   418A      2.991725  
     419A      2.995352   420A      3.009272   421A      3.023666  
     422A      3.024787   423A      3.043291   424A      3.050942  
     425A      3.067071   426A      3.079323   427A      3.090599  
     428A      3.097210   429A      3.141740   430A      3.173929  
     431A      3.198996   432A      3.206447   433A      3.213339  
     434A      3.222731   435A      3.295015   436A      3.307151  
     437A      3.311103   438A      3.337577   439A      3.393098  
     440A      3.410041   441A      3.419096   442A      3.424649  
     443A      3.442103   444A      3.444489   445A      3.446696  
     446A      3.456548   447A      3.458394   448A      3.468664  
     449A      3.473387   450A      3.493567   451A      3.506220  
     452A      3.541142   453A      3.575496   454A      3.601137  
     455A      3.629840   456A      3.638325   457A      3.669643  
     458A      3.694908   459A      3.767497   460A      3.777999  
     461A      3.788042   462A      3.803983   463A      3.858977  
     464A      3.882313   465A      3.988481   466A      3.991425  
     467A      4.003260   468A      4.044514   469A      4.145389  
     470A      4.153760   471A      4.165517   472A      4.176018  
     473A      4.271000   474A      4.330491   475A      4.337050  
     476A      4.553667   477A      4.659393   478A      4.716097  
     479A      4.882009   480A      4.887636   481A      4.920293  
     482A      5.108624   483A      5.172861   484A      5.216171  
     485A      5.399168   486A      5.915879   487A     23.496888  
     488A     23.583888   489A     23.690719   490A     23.896351  
     491A     23.983573   492A     23.986924   493A     24.010715  
     494A     24.032616   495A     24.071555   496A     24.152793  
     497A     24.171983   498A     24.179636   499A     24.217214  
     500A     24.264926   501A     24.276555   502A     24.296346  
     503A     24.318774   504A     35.640058   505A     35.644342  
     506A     35.751317   507A     50.190460  

    Final Occupation by Irrep:
              A 
    DOCC [    73 ]

  @DF-RKS Final Energy:  -896.19602939161655

   => Energetics <=

    Nuclear Repulsion Energy =           1547.9881345500532461
    One-Electron Energy =               -4290.0827332251974440
    Two-Electron Energy =                1933.6711097613128914
    DFT Exchange-Correlation Energy =     -87.7461443390690476
    Empirical Dispersion Energy =          -0.0263961387164006
    VV10 Nonlocal Energy =                  0.0000000000000000
    Total Energy =                       -896.1960293916165483

Computation Completed


Properties will be evaluated at   0.000000,   0.000000,   0.000000 [a0]

Properties computed using the SCF density matrix

  Nuclear Dipole Moment: [e a0]
     X:     1.3491      Y:     2.4744      Z:    -6.0782

  Electronic Dipole Moment: [e a0]
     X:    -2.3646      Y:    -2.5252      Z:     5.5925

  Dipole Moment: [e a0]
     X:    -1.0155      Y:    -0.0508      Z:    -0.4857     Total:     1.1268

  Dipole Moment: [D]
     X:    -2.5812      Y:    -0.1291      Z:    -1.2345     Total:     2.8641


*** tstop() called on node74.bme.utexas.edu at Thu Jun  9 08:37:27 2022
Module time:
	user time   =     837.12 seconds =      13.95 minutes
	system time =      32.92 seconds =       0.55 minutes
	total time  =        448 seconds =       7.47 minutes
Total time:
	user time   =     837.12 seconds =      13.95 minutes
	system time =      32.92 seconds =       0.55 minutes
	total time  =        448 seconds =       7.47 minutes


Properties will be evaluated at   0.000000,   0.000000,   0.000000 [a0]
OEProp: No title given, name of density matrix used for the following properties is 'SCF density'


  Wiberg Bond Indices using Orthogonal Lowdin Orbitals:

  Irrep: 1 Size: 36 x 36

                 1                   2                   3                   4                   5

    1     0.00000000000000     1.21534329967959     0.09942246931646     0.03699297679339     0.04091611151310
    2     1.21534329967959     0.00000000000000     1.16647298305210     0.12694438860149     0.78426887165096
    3     0.09942246931646     1.16647298305210     0.00000000000000     1.61488069094660     0.03801591199818
    4     0.03699297679339     0.12694438860149     1.61488069094660     0.00000000000000     0.01587286160899
    5     0.04091611151310     0.78426887165096     0.03801591199818     0.01587286160899     0.00000000000000
    6     0.01645110815543     0.11659506785858     1.03580887763758     0.12260828170937     0.00637403180166
    7     0.00343586742929     0.01667369458049     0.11609186770143     1.12576851845740     0.00075340996717
    8     0.00193895221493     0.00282466730339     0.01666025217519     0.12984685482121     0.00023851184755
    9     0.01698168561212     0.03766063058913     0.13044436111721     0.98906919228652     0.00474784255575
   10     0.00353880246865     0.00567812995388     0.09148291210319     0.15528059519605     0.00243293445757
   11     0.00275926705085     0.01979377320263     0.11963434528635     0.05707157781268     0.00072490019647
   12     0.01653669025136     0.04731837897286     0.11609535956321     0.03516905750274     0.00156984009685
   13     0.00061726315544     0.00276379052837     0.01691511096834     0.00540826204960     0.00010323887355
   14     0.00145940067850     0.00571525241509     0.01718854373582     0.00372944794090     0.00012794893452
   15     0.00073379523138     0.00333208471213     0.01054964352014     0.01204447017740     0.00007298866932
   16     1.37924330760091     0.14523759340090     0.02120594467030     0.00738250249587     0.01378916734533
   17     1.39114004927382     0.13991934169218     0.04593254392188     0.02264797349290     0.00745726152657
   18     0.13639690080715     0.01777092825018     0.00332911868031     0.00155801303717     0.00113703110286
   19     0.13588497257504     0.01753239226642     0.00565305243587     0.00247909264457     0.00088976769995
   20     0.11632684521344     0.02131345032467     0.00346995937685     0.00143042841623     0.00038645537826
   21     0.00015024112812     0.00022063949732     0.00153177241170     0.01143528935481     0.00003556208528
   22     0.03248076845784     0.05199401120411     0.08696132393436     0.13124535846152     0.00904822704400
   23     0.00013725928944     0.00051914004947     0.01635579743751     0.00989538299803     0.00001887577450
   24     0.00672547037496     0.00937119189333     0.01561791120163     0.00145042778442     0.00008007284556
   25     0.00006379236087     0.00028282299575     0.00119777203948     0.00025442483801     0.00000922423422
   26     0.00006689400274     0.00013774599476     0.00114634668306     0.00037328398142     0.00001141692011
   27     0.00003050211114     0.00006163082893     0.00029478661708     0.00007200556000     0.00000463739992
   28     0.05695403779874     0.01858301744069     0.00171839510909     0.00038023415719     0.00163329109698
   29     0.05396952441503     0.01460871982285     0.01271084774045     0.00559437075367     0.00015847731290
   30     0.01066295328320     0.00087625390789     0.00034658532915     0.00013025910712     0.00004034861367
   31     0.01042372967334     0.00081183856926     0.00029236111693     0.00014673023184     0.00031455292274
   32     0.02436511956725     0.00448175791186     0.00093906700499     0.00038090026701     0.00008010133777
   33     0.00014392211852     0.00019285567155     0.01083393570831     0.04733769063912     0.00003512901804
   34     0.00010475199825     0.00055413954353     0.00167578336449     0.01382350973403     0.00001731204412
   35     0.00111598958497     0.00026321136686     0.00006468420520     0.00002397282031     0.00002089594421
   36     0.00044338047224     0.00009087262572     0.00004104348310     0.00001454233248     0.00002337844205

                 6                   7                   8                   9                  10

    1     0.01645110815543     0.00343586742929     0.00193895221493     0.01698168561212     0.00353880246865
    2     0.11659506785858     0.01667369458049     0.00282466730339     0.03766063058913     0.00567812995388
    3     1.03580887763758     0.11609186770143     0.01666025217519     0.13044436111721     0.09148291210319
    4     0.12260828170937     1.12576851845740     0.12984685482121     0.98906919228652     0.15528059519605
    5     0.00637403180166     0.00075340996717     0.00023851184755     0.00474784255575     0.00243293445757
    6     0.00000000000000     0.03478191218806     0.00263446174050     0.01580335924651     0.00708786083439
    7     0.03478191218806     0.00000000000000     0.20108177547700     0.12491718558583     1.82055000938295
    8     0.00263446174050     0.20108177547700     0.00000000000000     1.32035794399028     1.26739404046995
    9     0.01580335924651     0.12491718558583     1.32035794399028     0.00000000000000     0.12643621563886
   10     0.00708786083439     1.82055000938295     1.26739404046995     0.12643621563886     0.00000000000000
   11     1.40330480894611     0.03996656955333     0.00182707371707     0.00649730436266     0.00992811394326
   12     1.39202680295856     0.00569784869105     0.00056664665735     0.00493130706771     0.00460312138536
   13     0.13255840734420     0.00588241195961     0.00030750471713     0.00064991256345     0.00095034711676
   14     0.13327250821946     0.00169412987163     0.00012549874662     0.00068637586195     0.00060496302891
   15     0.13374294199457     0.00184556075554     0.00015115337415     0.00208384305799     0.00323573780957
   16     0.00348823666744     0.00079650608408     0.00089612645167     0.00816340301251     0.00090106091579
   17     0.01494128994718     0.00342429305041     0.00054858701272     0.00912734075315     0.00120137967311
   18     0.00064978726047     0.00029427563876     0.00025517869099     0.00136991302894     0.00025303978338
   19     0.00130583132238     0.00029191403555     0.00012647630258     0.00127246543897     0.00016187179591
   20     0.00084088481994     0.00038547023736     0.00012633060547     0.00067222481753     0.00029725732677
   21     0.00046715504176     0.01048840700126     0.80810544523577     0.04258427174784     0.04186035485459
   22     0.00442900817318     0.02228936005463     0.22275713321841     2.18071396909932     0.02711537149965
   23     0.05370493856275     0.01158120625945     0.00048863679876     0.00079171591538     0.00134847064956
   24     0.05329114649397     0.00013907978703     0.00005479211784     0.00014413303401     0.00003753134414
   25     0.01069240871959     0.00011798876471     0.00001316956630     0.00004112822241     0.00007961263222
   26     0.01075499434278     0.00007938472131     0.00001643171005     0.00008126363717     0.00004960295000
   27     0.00277692480899     0.00004025837988     0.00000836304940     0.00001671688543     0.00001648520098
   28     0.00016608282140     0.00002518891470     0.00007363208077     0.00104313706225     0.00002796369587
   29     0.00593472702196     0.00083650800674     0.00004869509817     0.00118798058789     0.00018927733151
   30     0.00007198918741     0.00001673036721     0.00000397585590     0.00003621492776     0.00002040142603
   31     0.00007102649833     0.00001267982787     0.00000317990919     0.00005986725303     0.00001558302929
   32     0.00022726310555     0.00011500434742     0.00002754234357     0.00017662043330     0.00011159823236
   33     0.00820311632286     0.81270105678559     0.01113606619054     0.00941040284771     0.05994284299466
   34     0.00028405280313     0.05874945656733     0.05450504746980     0.01198602223296     0.83427180234611
   35     0.00002225825971     0.00000540231914     0.00000108900468     0.00000908678095     0.00000190877548
   36     0.00000999942303     0.00000247594516     0.00000046402828     0.00000916572385     0.00000136660716

                11                  12                  13                  14                  15

    1     0.00275926705085     0.01653669025136     0.00061726315544     0.00145940067850     0.00073379523138
    2     0.01979377320263     0.04731837897286     0.00276379052837     0.00571525241509     0.00333208471213
    3     0.11963434528635     0.11609535956321     0.01691511096834     0.01718854373582     0.01054964352014
    4     0.05707157781268     0.03516905750274     0.00540826204960     0.00372944794090     0.01204447017740
    5     0.00072490019647     0.00156984009685     0.00010323887355     0.00012794893452     0.00007298866932
    6     1.40330480894611     1.39202680295856     0.13255840734420     0.13327250821946     0.13374294199457
    7     0.03996656955333     0.00569784869105     0.00588241195961     0.00169412987163     0.00184556075554
    8     0.00182707371707     0.00056664665735     0.00030750471713     0.00012549874662     0.00015115337415
    9     0.00649730436266     0.00493130706771     0.00064991256345     0.00068637586195     0.00208384305799
   10     0.00992811394326     0.00460312138536     0.00095034711676     0.00060496302891     0.00323573780957
   11     0.00000000000000     0.12657850395281     1.51879966794951     0.14126463472865     0.13817217961576
   12     0.12657850395281     0.00000000000000     0.14343155030042     1.53061545298156     0.13825699885936
   13     1.51879966794951     0.14343155030042     0.00000000000000     0.13648306152631     1.52142019669255
   14     0.14126463472865     1.53061545298156     0.13648306152631     0.00000000000000     1.50890698998345
   15     0.13817217961576     0.13825699885936     1.52142019669255     1.50890698998345     0.00000000000000
   16     0.00066774901840     0.00208689902389     0.00016195507420     0.00029521221520     0.00019995089193
   17     0.00160890730735     0.02673386710178     0.00081019207574     0.00262032188548     0.00062473729534
   18     0.00018287172635     0.00117124878869     0.00003951703186     0.00014332258153     0.00006775929719
   19     0.00020289013889     0.00338704034777     0.00008634665677     0.00031310695919     0.00011304846054
   20     0.00015748459937     0.00061769880225     0.00005453805958     0.00015027627475     0.00004116992566
   21     0.00011609357881     0.00009603411374     0.00002299082772     0.00003074092195     0.00002959753198
   22     0.00431221380344     0.00428428239152     0.00042618314162     0.00042440725967     0.00260600715371
   23     0.80653377721742     0.00941663288900     0.05466398728407     0.00209884207483     0.01026609486197
   24     0.00918490537747     0.80016135412267     0.00208350668068     0.05461262058312     0.01021939464725
   25     0.06021283873292     0.00256656753358     0.83345256930082     0.01126970951108     0.05885782789324
   26     0.00248936131763     0.06005140483029     0.01124318974494     0.83371743057575     0.05881844788151
   27     0.01121152299698     0.01110909475543     0.05906800567653     0.05882607028624     0.83597442863649
   28     0.00005056809785     0.00008745146310     0.00001350219928     0.00001569407451     0.00001339293636
   29     0.00037559524471     0.00950787068145     0.00024874881675     0.00076110911466     0.00015388514656
   30     0.00002152949816     0.00005264257455     0.00000359785696     0.00001051867496     0.00000571442671
   31     0.00001088991965     0.00006877711720     0.00000359861377     0.00000916877560     0.00000242787243
   32     0.00004227039230     0.00011279024937     0.00001371635429     0.00003618124613     0.00000817660722
   33     0.01176739170451     0.00088412167449     0.00166766349462     0.00050185420157     0.00028769083180
   34     0.00018734149969     0.00005980712181     0.00001850397871     0.00001255961847     0.00000851467870
   35     0.00000381108500     0.00002471770249     0.00000198066960     0.00000473593650     0.00000107381508
   36     0.00000225181456     0.00001169013603     0.00000080123897     0.00000186353835     0.00000068880105

                16                  17                  18                  19                  20

    1     1.37924330760091     1.39114004927382     0.13639690080715     0.13588497257504     0.11632684521344
    2     0.14523759340090     0.13991934169218     0.01777092825018     0.01753239226642     0.02131345032467
    3     0.02120594467030     0.04593254392188     0.00332911868031     0.00565305243587     0.00346995937685
    4     0.00738250249587     0.02264797349290     0.00155801303717     0.00247909264457     0.00143042841623
    5     0.01378916734533     0.00745726152657     0.00113703110286     0.00088976769995     0.00038645537826
    6     0.00348823666744     0.01494128994718     0.00064978726047     0.00130583132238     0.00084088481994
    7     0.00079650608408     0.00342429305041     0.00029427563876     0.00029191403555     0.00038547023736
    8     0.00089612645167     0.00054858701272     0.00025517869099     0.00012647630258     0.00012633060547
    9     0.00816340301251     0.00912734075315     0.00136991302894     0.00127246543897     0.00067222481753
   10     0.00090106091579     0.00120137967311     0.00025303978338     0.00016187179591     0.00029725732677
   11     0.00066774901840     0.00160890730735     0.00018287172635     0.00020289013889     0.00015748459937
   12     0.00208689902389     0.02673386710178     0.00117124878869     0.00338704034777     0.00061769880225
   13     0.00016195507420     0.00081019207574     0.00003951703186     0.00008634665677     0.00005453805958
   14     0.00029521221520     0.00262032188548     0.00014332258153     0.00031310695919     0.00015027627475
   15     0.00019995089193     0.00062473729534     0.00006775929719     0.00011304846054     0.00004116992566
   16     0.00000000000000     0.13067629975561     1.54194128534204     0.14023086350492     0.13605341793796
   17     0.13067629975561     0.00000000000000     0.13843381962851     1.50822585431080     0.13637372047528
   18     1.54194128534204     0.13843381962851     0.00000000000000     0.13382397936744     1.39119477903010
   19     0.14023086350492     1.50822585431080     0.13382397936744     0.00000000000000     1.41368062960918
   20     0.13605341793796     0.13637372047528     1.39119477903010     1.41368062960918     0.00000000000000
   21     0.00005816740471     0.00003803103192     0.00001109856491     0.00000651735697     0.00000378360010
   22     0.02592577873353     0.00646900970162     0.00414924301864     0.00194611051084     0.00118368668054
   23     0.00004452903544     0.00007617711308     0.00001714170703     0.00002432404877     0.00001062492823
   24     0.00046286526408     0.01120161333627     0.00058841766811     0.00123567094337     0.00026570315369
   25     0.00002176738026     0.00004657756536     0.00000383801712     0.00001280846217     0.00000441578151
   26     0.00000730455530     0.00006625477808     0.00000479284216     0.00001445106797     0.00000290343730
   27     0.00000605600982     0.00004335282203     0.00000464677055     0.00001150871605     0.00000216225660
   28     0.81404876641392     0.01017513177121     0.05805142135183     0.00243497549837     0.01019511359087
   29     0.00923165636787     0.79586702230542     0.00216154505820     0.05503415069305     0.00933971121368
   30     0.05905636756925     0.00274984473241     0.82135164306891     0.01038242524139     0.05709911746932
   31     0.00262613573068     0.05863890178158     0.01055409813579     0.82190224385367     0.05776088292192
   32     0.01971889884313     0.01917567899799     0.15337654037734     0.15569936632129     1.32432468672977
   33     0.00006218463697     0.00009904913851     0.00001879659147     0.00001646918200     0.00000744712244
   34     0.00007482058991     0.00005945996866     0.00001271454122     0.00000865726797     0.00001698184593
   35     0.00127040719866     0.00126214858869     0.01391807444070     0.01083629972235     0.04615835476900
   36     0.00126745544184     0.00132378186669     0.00975640070272     0.01448813539636     0.04649901080945

                21                  22                  23                  24                  25

    1     0.00015024112812     0.03248076845784     0.00013725928944     0.00672547037496     0.00006379236087
    2     0.00022063949732     0.05199401120411     0.00051914004947     0.00937119189333     0.00028282299575
    3     0.00153177241170     0.08696132393436     0.01635579743751     0.01561791120163     0.00119777203948
    4     0.01143528935481     0.13124535846152     0.00989538299803     0.00145042778442     0.00025442483801
    5     0.00003556208528     0.00904822704400     0.00001887577450     0.00008007284556     0.00000922423422
    6     0.00046715504176     0.00442900817318     0.05370493856275     0.05329114649397     0.01069240871959
    7     0.01048840700126     0.02228936005463     0.01158120625945     0.00013907978703     0.00011798876471
    8     0.80810544523577     0.22275713321841     0.00048863679876     0.00005479211784     0.00001316956630
    9     0.04258427174784     2.18071396909932     0.00079171591538     0.00014413303401     0.00004112822241
   10     0.04186035485459     0.02711537149965     0.00134847064956     0.00003753134414     0.00007961263222
   11     0.00011609357881     0.00431221380344     0.80653377721742     0.00918490537747     0.06021283873292
   12     0.00009603411374     0.00428428239152     0.00941663288900     0.80016135412267     0.00256656753358
   13     0.00002299082772     0.00042618314162     0.05466398728407     0.00208350668068     0.83345256930082
   14     0.00003074092195     0.00042440725967     0.00209884207483     0.05461262058312     0.01126970951108
   15     0.00002959753198     0.00260600715371     0.01026609486197     0.01021939464725     0.05885782789324
   16     0.00005816740471     0.02592577873353     0.00004452903544     0.00046286526408     0.00002176738026
   17     0.00003803103192     0.00646900970162     0.00007617711308     0.01120161333627     0.00004657756536
   18     0.00001109856491     0.00414924301864     0.00001714170703     0.00058841766811     0.00000383801712
   19     0.00000651735697     0.00194611051084     0.00002432404877     0.00123567094337     0.00001280846217
   20     0.00000378360010     0.00118368668054     0.00001062492823     0.00026570315369     0.00000441578151
   21     0.00000000000000     0.01042079669057     0.00000611922014     0.00000325071466     0.00000079954521
   22     0.01042079669057     0.00000000000000     0.00009927708151     0.00018013544712     0.00003968534472
   23     0.00000611922014     0.00009927708151     0.00000000000000     0.00032679485585     0.00518011162124
   24     0.00000325071466     0.00018013544712     0.00032679485585     0.00000000000000     0.00022964697046
   25     0.00000079954521     0.00003968534472     0.00518011162124     0.00022964697046     0.00000000000000
   26     0.00000113025067     0.00002827735871     0.00025693372425     0.00521126704987     0.00025244498496
   27     0.00000025906298     0.00000394627896     0.00024624955978     0.00024906171912     0.00520101919625
   28     0.00000533407357     0.00249653927197     0.00000632295430     0.00004299795646     0.00000137485329
   29     0.00000174252850     0.00031801800128     0.00005015464786     0.00152535675086     0.00000727366763
   30     0.00000022692527     0.00008338199837     0.00000102635894     0.00000524300246     0.00000087683135
   31     0.00000147780137     0.00003701455582     0.00000057098942     0.00001684219837     0.00000012108407
   32     0.00000115946740     0.00017334446532     0.00000130991472     0.00007518054662     0.00000150962932
   33     0.00044342237120     0.00195479036403     0.00139417447848     0.00000897701343     0.00001801148182
   34     0.00278198484081     0.00171715943988     0.00000627220225     0.00000802711368     0.00000391044705
   35     0.00000013843902     0.00000970813596     0.00000018587338     0.00000618218352     0.00000013085892
   36     0.00000009501632     0.00000638402839     0.00000016236656     0.00000448260538     0.00000014819902

                26                  27                  28                  29                  30

    1     0.00006689400274     0.00003050211114     0.05695403779874     0.05396952441503     0.01066295328320
    2     0.00013774599476     0.00006163082893     0.01858301744069     0.01460871982285     0.00087625390789
    3     0.00114634668306     0.00029478661708     0.00171839510909     0.01271084774045     0.00034658532915
    4     0.00037328398142     0.00007200556000     0.00038023415719     0.00559437075367     0.00013025910712
    5     0.00001141692011     0.00000463739992     0.00163329109698     0.00015847731290     0.00004034861367
    6     0.01075499434278     0.00277692480899     0.00016608282140     0.00593472702196     0.00007198918741
    7     0.00007938472131     0.00004025837988     0.00002518891470     0.00083650800674     0.00001673036721
    8     0.00001643171005     0.00000836304940     0.00007363208077     0.00004869509817     0.00000397585590
    9     0.00008126363717     0.00001671688543     0.00104313706225     0.00118798058789     0.00003621492776
   10     0.00004960295000     0.00001648520098     0.00002796369587     0.00018927733151     0.00002040142603
   11     0.00248936131763     0.01121152299698     0.00005056809785     0.00037559524471     0.00002152949816
   12     0.06005140483029     0.01110909475543     0.00008745146310     0.00950787068145     0.00005264257455
   13     0.01124318974494     0.05906800567653     0.00001350219928     0.00024874881675     0.00000359785696
   14     0.83371743057575     0.05882607028624     0.00001569407451     0.00076110911466     0.00001051867496
   15     0.05881844788151     0.83597442863649     0.00001339293636     0.00015388514656     0.00000571442671
   16     0.00000730455530     0.00000605600982     0.81404876641392     0.00923165636787     0.05905636756925
   17     0.00006625477808     0.00004335282203     0.01017513177121     0.79586702230542     0.00274984473241
   18     0.00000479284216     0.00000464677055     0.05805142135183     0.00216154505820     0.82135164306891
   19     0.00001445106797     0.00001150871605     0.00243497549837     0.05503415069305     0.01038242524139
   20     0.00000290343730     0.00000216225660     0.01019511359087     0.00933971121368     0.05709911746932
   21     0.00000113025067     0.00000025906298     0.00000533407357     0.00000174252850     0.00000022692527
   22     0.00002827735871     0.00000394627896     0.00249653927197     0.00031801800128     0.00008338199837
   23     0.00025693372425     0.00024624955978     0.00000632295430     0.00005015464786     0.00000102635894
   24     0.00521126704987     0.00024906171912     0.00004299795646     0.00152535675086     0.00000524300246
   25     0.00025244498496     0.00520101919625     0.00000137485329     0.00000727366763     0.00000087683135
   26     0.00000000000000     0.00517792137373     0.00000069867155     0.00001503138922     0.00000014833024
   27     0.00517792137373     0.00000000000000     0.00000019355805     0.00001598365033     0.00000014978053
   28     0.00000069867155     0.00000019355805     0.00000000000000     0.00044603825095     0.00543797344841
   29     0.00001503138922     0.00001598365033     0.00044603825095     0.00000000000000     0.00016101949709
   30     0.00000014833024     0.00000014978053     0.00543797344841     0.00016101949709     0.00000000000000
   31     0.00000200138918     0.00000032073204     0.00018155131393     0.00546776068158     0.00043115359301
   32     0.00000079144972     0.00000033005305     0.00082001052434     0.00081725406660     0.01719218841009
   33     0.00000284196537     0.00001323549079     0.00000108417668     0.00003353424122     0.00000019991239
   34     0.00000112459117     0.00000075159227     0.00000418804898     0.00000253147795     0.00000036088988
   35     0.00000002738845     0.00000014388261     0.00006079364628     0.00031601789994     0.00102983219630
   36     0.00000002711128     0.00000003812175     0.00040380887234     0.00005310449035     0.00045848054276

                31                  32                  33                  34                  35

    1     0.01042372967334     0.02436511956725     0.00014392211852     0.00010475199825     0.00111598958497
    2     0.00081183856926     0.00448175791186     0.00019285567155     0.00055413954353     0.00026321136686
    3     0.00029236111693     0.00093906700499     0.01083393570831     0.00167578336449     0.00006468420520
    4     0.00014673023184     0.00038090026701     0.04733769063912     0.01382350973403     0.00002397282031
    5     0.00031455292274     0.00008010133777     0.00003512901804     0.00001731204412     0.00002089594421
    6     0.00007102649833     0.00022726310555     0.00820311632286     0.00028405280313     0.00002225825971
    7     0.00001267982787     0.00011500434742     0.81270105678559     0.05874945656733     0.00000540231914
    8     0.00000317990919     0.00002754234357     0.01113606619054     0.05450504746980     0.00000108900468
    9     0.00005986725303     0.00017662043330     0.00941040284771     0.01198602223296     0.00000908678095
   10     0.00001558302929     0.00011159823236     0.05994284299466     0.83427180234611     0.00000190877548
   11     0.00001088991965     0.00004227039230     0.01176739170451     0.00018734149969     0.00000381108500
   12     0.00006877711720     0.00011279024937     0.00088412167449     0.00005980712181     0.00002471770249
   13     0.00000359861377     0.00001371635429     0.00166766349462     0.00001850397871     0.00000198066960
   14     0.00000916877560     0.00003618124613     0.00050185420157     0.00001255961847     0.00000473593650
   15     0.00000242787243     0.00000817660722     0.00028769083180     0.00000851467870     0.00000107381508
   16     0.00262613573068     0.01971889884313     0.00006218463697     0.00007482058991     0.00127040719866
   17     0.05863890178158     0.01917567899799     0.00009904913851     0.00005945996866     0.00126214858869
   18     0.01055409813579     0.15337654037734     0.00001879659147     0.00001271454122     0.01391807444070
   19     0.82190224385367     0.15569936632129     0.00001646918200     0.00000865726797     0.01083629972235
   20     0.05776088292192     1.32432468672977     0.00000744712244     0.00001698184593     0.04615835476900
   21     0.00000147780137     0.00000115946740     0.00044342237120     0.00278198484081     0.00000013843902
   22     0.00003701455582     0.00017334446532     0.00195479036403     0.00171715943988     0.00000970813596
   23     0.00000057098942     0.00000130991472     0.00139417447848     0.00000627220225     0.00000018587338
   24     0.00001684219837     0.00007518054662     0.00000897701343     0.00000802711368     0.00000618218352
   25     0.00000012108407     0.00000150962932     0.00001801148182     0.00000391044705     0.00000013085892
   26     0.00000200138918     0.00000079144972     0.00000284196537     0.00000112459117     0.00000002738845
   27     0.00000032073204     0.00000033005305     0.00001323549079     0.00000075159227     0.00000014388261
   28     0.00018155131393     0.00082001052434     0.00000108417668     0.00000418804898     0.00006079364628
   29     0.00546776068158     0.00081725406660     0.00003353424122     0.00000253147795     0.00031601789994
   30     0.00043115359301     0.01719218841009     0.00000019991239     0.00000036088988     0.00102983219630
   31     0.00000000000000     0.01704516543792     0.00000295913140     0.00000080270309     0.00036183913428
   32     0.01704516543792     0.00000000000000     0.00000120010708     0.00000502844749     0.86161615451003
   33     0.00000295913140     0.00000120010708     0.00000000000000     0.00262588853664     0.00000013788426
   34     0.00000080270309     0.00000502844749     0.00262588853664     0.00000000000000     0.00000047713816
   35     0.00036183913428     0.86161615451003     0.00000013788426     0.00000047713816     0.00000000000000
   36     0.00146774892326     0.86410767493462     0.00000007213196     0.00000008209224     0.01129622011904

                36

    1     0.00044338047224
    2     0.00009087262572
    3     0.00004104348310
    4     0.00001454233248
    5     0.00002337844205
    6     0.00000999942303
    7     0.00000247594516
    8     0.00000046402828
    9     0.00000916572385
   10     0.00000136660716
   11     0.00000225181456
   12     0.00001169013603
   13     0.00000080123897
   14     0.00000186353835
   15     0.00000068880105
   16     0.00126745544184
   17     0.00132378186669
   18     0.00975640070272
   19     0.01448813539636
   20     0.04649901080945
   21     0.00000009501632
   22     0.00000638402839
   23     0.00000016236656
   24     0.00000448260538
   25     0.00000014819902
   26     0.00000002711128
   27     0.00000003812175
   28     0.00040380887234
   29     0.00005310449035
   30     0.00045848054276
   31     0.00146774892326
   32     0.86410767493462
   33     0.00000007213196
   34     0.00000008209224
   35     0.01129622011904
   36     0.00000000000000



  Atomic Valences: 

 #  #
 Irrep: 1
      1:    4.813958101657504
      2:    3.996208568358923
      3:    4.820982361593559
      4:    4.688743569012042
      5:    0.931410590260682
      6:    4.725383552238800
      7:    4.421533408696379
      8:    4.045151699993168
      9:    5.050164202978331
     10:    4.467108566853891
     11:    4.495664985389599
     12:    4.495889552662296
     13:    4.450375820522708
     14:    4.447729954962907
     15:    4.452848614046038
     16:    4.467300642584331
     17:    4.489739815679374
     18:    4.443993181930622
     19:    4.439715710155328
     20:    4.776447607541017
     21:    0.930960130238935
     22:    2.838329912004743
     23:    0.985569220743385
     24:    0.984821254781476
     25:    0.990138329266930
     26:    0.990083573002694
     27:    0.990488763820731
     28:    0.985599907196075
     29:    0.987151243974871
     30:    0.987741374835064
     31:    0.988746003422837
     32:    3.465271582634253
     33:    0.981750216162048
     34:    0.983589828776350
     35:    0.949708092279740
     36:    0.951787298384354


    Psi4 stopped on: Thursday, 09 June 2022 08:37AM
    Psi4 wall time for execution: 0:07:29.27

*** Psi4 exiting successfully. Buy a developer a beer!
