
Host: node74.bme.utexas.edu

Timers On : Wed Jun  8 16:44:32 2022
Timers Off: Wed Jun  8 17:27:47 2022

Wall Time:     2594.73 seconds

                                                       Time (seconds)
Module                                       User      System        Wall        Calls
V: Grid                             :    268.717u      0.950s     83.844w     12 calls
DFH: sparsity prep                  :      5.133u      0.033s      3.090w     12 calls
Libint2ERI::Libint2ERI              :     29.083u      0.767s     11.853w    144 calls
DFH: initialize()                   :   1410.933u     38.050s    445.574w     12 calls
Libint2ErfERI::Libint2ErfERI        :     25.167u      0.267s     12.971w     60 calls
DFH: AO Construction                :    162.917u      3.283s     50.000w     24 calls
DFH: AO-Met. Contraction            :    685.667u      9.117s    209.478w     48 calls
DFH: wAO Construction               :    194.233u      0.800s     58.691w     24 calls
DFH: wAO Copy                       :     33.383u      2.050s     10.802w     24 calls
HF: Form core H                     :     12.500u      0.083s      3.813w     12 calls
HF: Form S/X                        :      1.233u      0.033s      0.382w     12 calls
HF: Guess                           :      0.317u      0.017s      0.101w     12 calls
SAD Guess                           :      0.267u      0.017s      0.082w      1 calls
HF: Form G                          :   3627.783u    168.150s   1159.314w    150 calls
RV: Form V                          :   1793.783u     22.233s    546.582w    150 calls
Properties                          :    589.003p                         856684 calls
Functional                          :    173.837p                         856684 calls
V_xc                                :    431.371p                         793257 calls
JK: D                               :      0.117u      0.017s      0.073w    150 calls
JK: USO2AO                          :      0.200u      0.017s      0.049w    150 calls
JK: JK                              :   1833.350u    145.867s    612.499w    150 calls
DFH: compute_JK()                   :    770.900u     52.867s    249.157w    150 calls
DFH: Grabbing AOs                   :      0.000u      0.000s      0.000w    150 calls
DFH: compute_J                      :     46.217u     12.150s     17.739w    150 calls
DFH: compute_K                      :    658.017u      1.850s    198.399w    150 calls
DFH: compute_wK()                   :   1062.283u     93.000s    363.305w    150 calls
JK: AO2USO                          :      0.000u      0.000s      0.000w    150 calls
HF: Form F                          :      0.050u      0.017s      0.047w    150 calls
HF: Form D                          :      0.100u      0.000s      0.066w    150 calls
HF: DIIS                            :      5.750u      0.833s      1.992w    149 calls
DIISManager::add_entry              :      0.433u      0.183s      0.176w    138 calls
DIISManager::extrapolate            :      1.400u      0.567s      0.597w    138 calls
bMatrix setup                       :      0.750u      0.283s      0.320w    138 calls
bMatrix pseudoinverse               :      0.033u      0.000s      0.012w    138 calls
New vector                          :      0.617u      0.283s      0.263w    138 calls
HF: Form C                          :     15.533u      0.317s      4.756w    149 calls
Grad: V T Perturb                   :     55.433u      0.100s     16.704w     12 calls
Grad: S                             :      0.383u      0.017s      0.120w     12 calls
Grad: JK                            :   2362.617u     54.300s    755.496w     12 calls
JKGrad: Amn                         :    283.017u      8.983s     94.087w     12 calls
JKGrad: Awmn                        :    301.500u     10.717s    101.093w     12 calls
JKGrad: AB                          :    235.033u      4.167s     71.985w     12 calls
JKGrad: UV                          :     84.417u      3.283s     26.352w     12 calls
JKGrad: ABx                         :     13.633u      0.633s      4.313w     12 calls
JKGrad: Amnx                        :   1444.100u     26.050s    457.105w     12 calls
Grad: XC                            :    289.283u      0.917s     87.312w     12 calls
V_xc gradient                       :     68.889p                          63427 calls

--------------------------------------------------------------------------------------
V: Grid                             :    268.717u      0.950s     83.844w     12 calls
DFH: sparsity prep                  :      5.133u      0.033s      3.090w     12 calls
| Libint2ERI::Libint2ERI            :      3.350u      0.033s      2.029w     12 calls
DFH: initialize()                   :   1410.933u     38.050s    445.574w     12 calls
| Libint2ERI::Libint2ERI            :      6.333u      0.217s      1.982w     36 calls
| Libint2ErfERI::Libint2ErfERI      :      4.650u      0.017s      2.600w     12 calls
| DFH: AO Construction              :    162.917u      3.283s     50.000w     24 calls
| DFH: AO-Met. Contraction          :    685.667u      9.117s    209.478w     48 calls
| DFH: wAO Construction             :    194.233u      0.800s     58.691w     24 calls
| DFH: wAO Copy                     :     33.383u      2.050s     10.802w     24 calls
HF: Form core H                     :     12.500u      0.083s      3.813w     12 calls
HF: Form S/X                        :      1.233u      0.033s      0.382w     12 calls
HF: Guess                           :      0.317u      0.017s      0.101w     12 calls
| SAD Guess                         :      0.267u      0.017s      0.082w      1 calls
HF: Form G                          :   3627.783u    168.150s   1159.314w    150 calls
| RV: Form V                        :   1793.783u     22.233s    546.582w    150 calls
| | Properties                      :    496.758p                         793257 calls
| | Functional                      :    160.906p                         793257 calls
| | V_xc                            :    431.371p                         793257 calls
| JK: D                             :      0.117u      0.017s      0.073w    150 calls
| JK: USO2AO                        :      0.200u      0.017s      0.049w    150 calls
| JK: JK                            :   1833.350u    145.867s    612.499w    150 calls
| | DFH: compute_JK()               :    770.900u     52.867s    249.157w    150 calls
| | | DFH: Grabbing AOs             :      0.000u      0.000s      0.000w    150 calls
| | | DFH: compute_J                :     46.217u     12.150s     17.739w    150 calls
| | | DFH: compute_K                :    658.017u      1.850s    198.399w    150 calls
| | DFH: compute_wK()               :   1062.283u     93.000s    363.305w    150 calls
| JK: AO2USO                        :      0.000u      0.000s      0.000w    150 calls
HF: Form F                          :      0.050u      0.017s      0.047w    150 calls
HF: Form D                          :      0.100u      0.000s      0.066w    150 calls
HF: DIIS                            :      5.750u      0.833s      1.992w    149 calls
| DIISManager::add_entry            :      0.433u      0.183s      0.176w    138 calls
| DIISManager::extrapolate          :      1.400u      0.567s      0.597w    138 calls
| | bMatrix setup                   :      0.750u      0.283s      0.320w    138 calls
| | bMatrix pseudoinverse           :      0.033u      0.000s      0.012w    138 calls
| | New vector                      :      0.617u      0.283s      0.263w    138 calls
HF: Form C                          :     15.533u      0.317s      4.756w    149 calls
Grad: V T Perturb                   :     55.433u      0.100s     16.704w     12 calls
Grad: S                             :      0.383u      0.017s      0.120w     12 calls
Grad: JK                            :   2362.617u     54.300s    755.496w     12 calls
| JKGrad: Amn                       :    283.017u      8.983s     94.087w     12 calls
| | Libint2ERI::Libint2ERI          :      9.817u      0.267s      3.897w     24 calls
| JKGrad: Awmn                      :    301.500u     10.717s    101.093w     12 calls
| | Libint2ErfERI::Libint2ErfERI    :     11.300u      0.183s      5.182w     24 calls
| JKGrad: AB                        :    235.033u      4.167s     71.985w     12 calls
| | Libint2ERI::Libint2ERI          :      0.050u      0.000s      0.011w     24 calls
| JKGrad: UV                        :     84.417u      3.283s     26.352w     12 calls
| JKGrad: ABx                       :     13.633u      0.633s      4.313w     12 calls
| | Libint2ERI::Libint2ERI          :      0.017u      0.000s      0.017w     24 calls
| JKGrad: Amnx                      :   1444.100u     26.050s    457.105w     12 calls
| | Libint2ERI::Libint2ERI          :      9.517u      0.250s      3.917w     24 calls
| | Libint2ErfERI::Libint2ErfERI    :      9.217u      0.067s      5.190w     24 calls
Grad: XC                            :    289.283u      0.917s     87.312w     12 calls
| Properties                        :     92.244p                          63427 calls
| Functional                        :     12.932p                          63427 calls
| V_xc gradient                     :     68.889p                          63427 calls

**************************************************************************************

Host: node74.bme.utexas.edu

Timers On : Wed Jun  8 17:27:48 2022
Timers Off: Wed Jun  8 21:11:59 2022

Wall Time:    13451.46 seconds

                                                       Time (seconds)
Module                                       User      System        Wall        Calls
V: Grid                             :   1525.050u      4.317s    477.356w     67 calls
DFH: sparsity prep                  :     28.050u      0.083s     16.924w     67 calls
Libint2ERI::Libint2ERI              :    162.000u      3.633s     65.454w    804 calls
DFH: initialize()                   :   7670.633u    152.700s   2399.502w     67 calls
Libint2ErfERI::Libint2ErfERI        :    139.033u      1.650s     71.999w    335 calls
DFH: AO Construction                :    905.133u     17.583s    277.621w    134 calls
DFH: AO-Met. Contraction            :   3743.633u     19.533s   1132.453w    268 calls
DFH: wAO Construction               :   1056.467u      2.400s    318.565w    134 calls
DFH: wAO Copy                       :    168.817u      3.450s     51.847w    134 calls
HF: Form core H                     :     68.867u      0.200s     20.977w     67 calls
HF: Form S/X                        :      6.600u      0.050s      2.002w     67 calls
HF: Guess                           :      0.417u      0.033s      0.173w     67 calls
SAD Guess                           :      0.300u      0.033s      0.122w      1 calls
HF: Form G                          :  17431.950u    725.717s   5561.719w    759 calls
RV: Form V                          :   8397.133u     58.967s   2545.232w    759 calls
Properties                          :   2702.812p                         4414146 calls
Functional                          :    891.634p                         4414146 calls
V_xc                                :   2029.577p                         4056755 calls
JK: D                               :      0.950u      0.050s      0.344w    759 calls
JK: USO2AO                          :      1.017u      0.033s      0.203w    759 calls
JK: JK                              :   9031.117u    666.550s   3015.452w    759 calls
DFH: compute_JK()                   :   3805.000u    245.600s   1227.525w    759 calls
DFH: Grabbing AOs                   :      0.000u      0.000s      0.002w    759 calls
DFH: compute_J                      :    211.083u     28.167s     72.076w    759 calls
DFH: compute_K                      :   3245.017u      7.683s    978.387w    759 calls
DFH: compute_wK()                   :   5225.650u    420.950s   1787.761w    759 calls
JK: AO2USO                          :      0.000u      0.000s      0.002w    759 calls
HF: Form F                          :      0.483u      0.000s      0.199w    759 calls
HF: Form D                          :      0.883u      0.000s      0.323w    759 calls
HF: DIIS                            :     27.217u      3.233s      9.292w    758 calls
DIISManager::add_entry              :      1.650u      0.633s      0.838w    692 calls
DIISManager::extrapolate            :      6.033u      2.333s      2.540w    692 calls
bMatrix setup                       :      3.250u      1.233s      1.361w    692 calls
bMatrix pseudoinverse               :      0.200u      0.000s      0.055w    692 calls
New vector                          :      2.517u      1.100s      1.116w    692 calls
HF: Form C                          :     71.683u      1.150s     21.936w    758 calls
Grad: V T Perturb                   :    335.217u      0.300s    100.867w     67 calls
Grad: S                             :      2.100u      0.000s      0.651w     67 calls
Grad: JK                            :  13031.750u    260.450s   4153.165w     67 calls
JKGrad: Amn                         :   1519.150u     44.667s    503.465w     67 calls
JKGrad: Awmn                        :   1622.083u     44.333s    538.848w     67 calls
JKGrad: AB                          :   1293.733u     19.333s    395.234w     67 calls
JKGrad: UV                          :    468.267u     16.250s    145.740w     67 calls
JKGrad: ABx                         :     76.983u      2.500s     23.895w     67 calls
JKGrad: Amnx                        :   8046.317u    130.783s   2541.485w     67 calls
Grad: XC                            :   1532.233u      4.100s    462.328w     67 calls
V_xc gradient                       :    369.063p                         357391 calls

--------------------------------------------------------------------------------------
V: Grid                             :   1525.050u      4.317s    477.356w     67 calls
DFH: sparsity prep                  :     28.050u      0.083s     16.924w     67 calls
| Libint2ERI::Libint2ERI            :     18.383u      0.067s     11.096w     67 calls
DFH: initialize()                   :   7670.633u    152.700s   2399.502w     67 calls
| Libint2ERI::Libint2ERI            :     35.633u      1.100s     11.079w    201 calls
| Libint2ErfERI::Libint2ErfERI      :     25.133u      0.133s     14.290w     67 calls
| DFH: AO Construction              :    905.133u     17.583s    277.621w    134 calls
| DFH: AO-Met. Contraction          :   3743.633u     19.533s   1132.453w    268 calls
| DFH: wAO Construction             :   1056.467u      2.400s    318.565w    134 calls
| DFH: wAO Copy                     :    168.817u      3.450s     51.847w    134 calls
HF: Form core H                     :     68.867u      0.200s     20.977w     67 calls
HF: Form S/X                        :      6.600u      0.050s      2.002w     67 calls
HF: Guess                           :      0.417u      0.033s      0.173w     67 calls
| SAD Guess                         :      0.300u      0.033s      0.122w      1 calls
HF: Form G                          :  17431.950u    725.717s   5561.719w    759 calls
| RV: Form V                        :   8397.133u     58.967s   2545.232w    759 calls
| | Properties                      :   2222.718p                         4056755 calls
| | Functional                      :    818.746p                         4056755 calls
| | V_xc                            :   2029.577p                         4056755 calls
| JK: D                             :      0.950u      0.050s      0.344w    759 calls
| JK: USO2AO                        :      1.017u      0.033s      0.203w    759 calls
| JK: JK                            :   9031.117u    666.550s   3015.452w    759 calls
| | DFH: compute_JK()               :   3805.000u    245.600s   1227.525w    759 calls
| | | DFH: Grabbing AOs             :      0.000u      0.000s      0.002w    759 calls
| | | DFH: compute_J                :    211.083u     28.167s     72.076w    759 calls
| | | DFH: compute_K                :   3245.017u      7.683s    978.387w    759 calls
| | DFH: compute_wK()               :   5225.650u    420.950s   1787.761w    759 calls
| JK: AO2USO                        :      0.000u      0.000s      0.002w    759 calls
HF: Form F                          :      0.483u      0.000s      0.199w    759 calls
HF: Form D                          :      0.883u      0.000s      0.323w    759 calls
HF: DIIS                            :     27.217u      3.233s      9.292w    758 calls
| DIISManager::add_entry            :      1.650u      0.633s      0.838w    692 calls
| DIISManager::extrapolate          :      6.033u      2.333s      2.540w    692 calls
| | bMatrix setup                   :      3.250u      1.233s      1.361w    692 calls
| | bMatrix pseudoinverse           :      0.200u      0.000s      0.055w    692 calls
| | New vector                      :      2.517u      1.100s      1.116w    692 calls
HF: Form C                          :     71.683u      1.150s     21.936w    758 calls
Grad: V T Perturb                   :    335.217u      0.300s    100.867w     67 calls
Grad: S                             :      2.100u      0.000s      0.651w     67 calls
Grad: JK                            :  13031.750u    260.450s   4153.165w     67 calls
| JKGrad: Amn                       :   1519.150u     44.667s    503.465w     67 calls
| | Libint2ERI::Libint2ERI          :     54.450u      1.283s     21.461w    134 calls
| JKGrad: Awmn                      :   1622.083u     44.333s    538.848w     67 calls
| | Libint2ErfERI::Libint2ErfERI    :     63.200u      1.083s     28.834w    134 calls
| JKGrad: AB                        :   1293.733u     19.333s    395.234w     67 calls
| | Libint2ERI::Libint2ERI          :      0.133u      0.000s      0.058w    134 calls
| JKGrad: UV                        :    468.267u     16.250s    145.740w     67 calls
| JKGrad: ABx                       :     76.983u      2.500s     23.895w     67 calls
| | Libint2ERI::Libint2ERI          :      0.317u      0.033s      0.090w    134 calls
| JKGrad: Amnx                      :   8046.317u    130.783s   2541.485w     67 calls
| | Libint2ERI::Libint2ERI          :     53.083u      1.150s     21.669w    134 calls
| | Libint2ErfERI::Libint2ErfERI    :     50.700u      0.433s     28.875w    134 calls
Grad: XC                            :   1532.233u      4.100s    462.328w     67 calls
| Properties                        :    480.094p                         357391 calls
| Functional                        :     72.888p                         357391 calls
| V_xc gradient                     :    369.063p                         357391 calls

**************************************************************************************

Host: node74.bme.utexas.edu

Timers On : Wed Jun  8 21:11:59 2022
Timers Off: Thu Jun  9 00:37:10 2022

Wall Time:    12310.64 seconds

                                                       Time (seconds)
Module                                       User      System        Wall        Calls
V: Grid                             :   1369.867u      2.833s    426.873w     59 calls
DFH: sparsity prep                  :     24.833u      0.033s     15.002w     59 calls
Libint2ERI::Libint2ERI              :    143.367u      3.067s     57.818w    708 calls
DFH: initialize()                   :   6873.967u    113.650s   2134.958w     59 calls
Libint2ErfERI::Libint2ErfERI        :    125.250u      1.267s     63.841w    295 calls
DFH: AO Construction                :    815.733u     14.583s    249.784w    118 calls
DFH: AO-Met. Contraction            :   3336.633u      9.700s   1006.238w    236 calls
DFH: wAO Construction               :    953.133u      1.400s    287.133w    118 calls
DFH: wAO Copy                       :    149.250u      3.083s     45.859w    118 calls
HF: Form core H                     :     61.500u      0.117s     18.717w     59 calls
HF: Form S/X                        :      5.800u      0.183s      1.783w     59 calls
HF: Guess                           :      0.400u      0.017s      0.124w     59 calls
SAD Guess                           :      0.267u      0.017s      0.082w      1 calls
HF: Form G                          :  16947.150u    553.883s   5333.662w    718 calls
RV: Form V                          :   8293.117u     29.100s   2504.185w    718 calls
Properties                          :   2647.462p                         4100783 calls
Functional                          :    837.678p                         4100783 calls
V_xc                                :   2002.602p                         3789418 calls
JK: D                               :      0.667u      0.050s      0.322w    718 calls
JK: USO2AO                          :      0.817u      0.017s      0.182w    718 calls
JK: JK                              :   8651.083u    524.683s   2828.556w    718 calls
DFH: compute_JK()                   :   3613.650u    172.133s   1139.734w    718 calls
DFH: Grabbing AOs                   :      0.017u      0.000s      0.002w    718 calls
DFH: compute_J                      :    179.583u      0.567s     54.354w    718 calls
DFH: compute_K                      :   3131.017u      2.550s    942.157w    718 calls
DFH: compute_wK()                   :   5036.917u    352.550s   1688.671w    718 calls
JK: AO2USO                          :      0.000u      0.000s      0.002w    718 calls
HF: Form F                          :      0.400u      0.017s      0.160w    718 calls
HF: Form D                          :      0.617u      0.000s      0.309w    718 calls
HF: DIIS                            :     26.217u      3.567s      8.967w    717 calls
DIISManager::add_entry              :      1.583u      0.733s      0.865w    659 calls
DIISManager::extrapolate            :      6.100u      2.550s      2.537w    659 calls
bMatrix setup                       :      2.983u      1.317s      1.373w    659 calls
bMatrix pseudoinverse               :      0.250u      0.000s      0.053w    659 calls
New vector                          :      2.850u      1.233s      1.103w    659 calls
HF: Form C                          :     68.717u      1.133s     21.072w    717 calls
Grad: V T Perturb                   :    294.583u      0.100s     88.623w     59 calls
Grad: S                             :      1.933u      0.000s      0.583w     59 calls
Grad: JK                            :  11715.067u    190.183s   3708.573w     59 calls
JKGrad: Amn                         :   1366.267u     39.267s    452.061w     59 calls
JKGrad: Awmn                        :   1461.450u     38.983s    484.805w     59 calls
JKGrad: AB                          :   1158.700u     19.600s    354.308w     59 calls
JKGrad: UV                          :    415.633u     16.617s    129.930w     59 calls
JKGrad: ABx                         :     68.700u      3.617s     21.733w     59 calls
JKGrad: Amnx                        :   7239.933u     69.767s   2262.759w     59 calls
Grad: XC                            :   1362.233u      2.217s    410.557w     59 calls
V_xc gradient                       :    321.653p                         311365 calls

--------------------------------------------------------------------------------------
V: Grid                             :   1369.867u      2.833s    426.873w     59 calls
DFH: sparsity prep                  :     24.833u      0.033s     15.002w     59 calls
| Libint2ERI::Libint2ERI            :     16.283u      0.033s      9.816w     59 calls
DFH: initialize()                   :   6873.967u    113.650s   2134.958w     59 calls
| Libint2ERI::Libint2ERI            :     31.300u      1.017s      9.733w    177 calls
| Libint2ErfERI::Libint2ErfERI      :     22.967u      0.083s     12.695w     59 calls
| DFH: AO Construction              :    815.733u     14.583s    249.784w    118 calls
| DFH: AO-Met. Contraction          :   3336.633u      9.700s   1006.238w    236 calls
| DFH: wAO Construction             :    953.133u      1.400s    287.133w    118 calls
| DFH: wAO Copy                     :    149.250u      3.083s     45.859w    118 calls
HF: Form core H                     :     61.500u      0.117s     18.717w     59 calls
HF: Form S/X                        :      5.800u      0.183s      1.783w     59 calls
HF: Guess                           :      0.400u      0.017s      0.124w     59 calls
| SAD Guess                         :      0.267u      0.017s      0.082w      1 calls
HF: Form G                          :  16947.150u    553.883s   5333.662w    718 calls
| RV: Form V                        :   8293.117u     29.100s   2504.185w    718 calls
| | Properties                      :   2214.434p                         3789418 calls
| | Functional                      :    773.345p                         3789418 calls
| | V_xc                            :   2002.602p                         3789418 calls
| JK: D                             :      0.667u      0.050s      0.322w    718 calls
| JK: USO2AO                        :      0.817u      0.017s      0.182w    718 calls
| JK: JK                            :   8651.083u    524.683s   2828.556w    718 calls
| | DFH: compute_JK()               :   3613.650u    172.133s   1139.734w    718 calls
| | | DFH: Grabbing AOs             :      0.017u      0.000s      0.002w    718 calls
| | | DFH: compute_J                :    179.583u      0.567s     54.354w    718 calls
| | | DFH: compute_K                :   3131.017u      2.550s    942.157w    718 calls
| | DFH: compute_wK()               :   5036.917u    352.550s   1688.671w    718 calls
| JK: AO2USO                        :      0.000u      0.000s      0.002w    718 calls
HF: Form F                          :      0.400u      0.017s      0.160w    718 calls
HF: Form D                          :      0.617u      0.000s      0.309w    718 calls
HF: DIIS                            :     26.217u      3.567s      8.967w    717 calls
| DIISManager::add_entry            :      1.583u      0.733s      0.865w    659 calls
| DIISManager::extrapolate          :      6.100u      2.550s      2.537w    659 calls
| | bMatrix setup                   :      2.983u      1.317s      1.373w    659 calls
| | bMatrix pseudoinverse           :      0.250u      0.000s      0.053w    659 calls
| | New vector                      :      2.850u      1.233s      1.103w    659 calls
HF: Form C                          :     68.717u      1.133s     21.072w    717 calls
Grad: V T Perturb                   :    294.583u      0.100s     88.623w     59 calls
Grad: S                             :      1.933u      0.000s      0.583w     59 calls
Grad: JK                            :  11715.067u    190.183s   3708.573w     59 calls
| JKGrad: Amn                       :   1366.267u     39.267s    452.061w     59 calls
| | Libint2ERI::Libint2ERI          :     48.600u      1.117s     19.123w    118 calls
| JKGrad: Awmn                      :   1461.450u     38.983s    484.805w     59 calls
| | Libint2ErfERI::Libint2ErfERI    :     57.117u      0.950s     25.793w    118 calls
| JKGrad: AB                        :   1158.700u     19.600s    354.308w     59 calls
| | Libint2ERI::Libint2ERI          :      0.133u      0.000s      0.050w    118 calls
| JKGrad: UV                        :    415.633u     16.617s    129.930w     59 calls
| JKGrad: ABx                       :     68.700u      3.617s     21.733w     59 calls
| | Libint2ERI::Libint2ERI          :      0.217u      0.000s      0.069w    118 calls
| JKGrad: Amnx                      :   7239.933u     69.767s   2262.759w     59 calls
| | Libint2ERI::Libint2ERI          :     46.833u      0.900s     19.027w    118 calls
| | Libint2ErfERI::Libint2ErfERI    :     45.167u      0.233s     25.353w    118 calls
Grad: XC                            :   1362.233u      2.217s    410.557w     59 calls
| Properties                        :    433.028p                         311365 calls
| Functional                        :     64.333p                         311365 calls
| V_xc gradient                     :    321.653p                         311365 calls

**************************************************************************************

Host: node74.bme.utexas.edu

Timers On : Thu Jun  9 00:37:10 2022
Timers Off: Thu Jun  9 01:47:47 2022

Wall Time:     4236.74 seconds

                                                       Time (seconds)
Module                                       User      System        Wall        Calls
V: Grid                             :    483.733u      1.350s    150.814w     21 calls
DFH: sparsity prep                  :      8.817u      0.050s      5.297w     21 calls
Libint2ERI::Libint2ERI              :     51.383u      1.267s     20.659w    252 calls
DFH: initialize()                   :   2318.933u     33.133s    718.789w     21 calls
Libint2ErfERI::Libint2ErfERI        :     43.400u      0.517s     22.240w    105 calls
DFH: AO Construction                :    266.517u      2.517s     80.888w     42 calls
DFH: AO-Met. Contraction            :   1139.433u      1.933s    343.177w     84 calls
DFH: wAO Construction               :    311.733u      0.100s     93.795w     42 calls
DFH: wAO Copy                       :     51.200u      0.900s     15.676w     42 calls
HF: Form core H                     :     21.500u      0.050s      6.550w     21 calls
HF: Form S/X                        :      1.983u      0.133s      0.625w     21 calls
HF: Guess                           :      0.300u      0.017s      0.101w     21 calls
SAD Guess                           :      0.233u      0.017s      0.082w      1 calls
HF: Form G                          :   6098.733u    126.417s   1874.165w    271 calls
RV: Form V                          :   3020.600u     31.817s    918.284w    271 calls
Properties                          :    984.985p                         1531794 calls
Functional                          :    303.960p                         1531794 calls
V_xc                                :    719.586p                         1421662 calls
JK: D                               :      0.200u      0.033s      0.128w    271 calls
JK: USO2AO                          :      0.250u      0.067s      0.088w    271 calls
JK: JK                              :   3077.167u     94.500s    955.466w    271 calls
DFH: compute_JK()                   :   1275.883u     31.783s    393.176w    271 calls
DFH: Grabbing AOs                   :      0.000u      0.000s      0.001w    271 calls
DFH: compute_J                      :     66.533u      0.400s     20.247w    271 calls
DFH: compute_K                      :   1141.983u      0.717s    343.514w    271 calls
DFH: compute_wK()                   :   1801.083u     62.717s    562.238w    271 calls
JK: AO2USO                          :      0.000u      0.000s      0.001w    271 calls
HF: Form F                          :      0.200u      0.033s      0.088w    271 calls
HF: Form D                          :      0.367u      0.000s      0.115w    271 calls
HF: DIIS                            :     10.117u      1.617s      3.502w    270 calls
DIISManager::add_entry              :      0.600u      0.417s      0.317w    250 calls
DIISManager::extrapolate            :      2.433u      1.050s      1.064w    250 calls
bMatrix setup                       :      1.133u      0.667s      0.572w    250 calls
bMatrix pseudoinverse               :      0.033u      0.000s      0.022w    250 calls
New vector                          :      1.267u      0.383s      0.466w    250 calls
HF: Form C                          :     25.633u      0.517s      7.890w    270 calls
Grad: V T Perturb                   :     94.500u      0.133s     28.433w     21 calls
Grad: S                             :      0.650u      0.000s      0.202w     21 calls
Grad: JK                            :   3919.267u     66.300s   1242.999w     21 calls
JKGrad: Amn                         :    461.783u     14.117s    153.259w     21 calls
JKGrad: Awmn                        :    487.550u     13.667s    162.299w     21 calls
JKGrad: AB                          :    400.667u      7.117s    122.737w     21 calls
JKGrad: UV                          :    144.467u      5.283s     45.094w     21 calls
JKGrad: ABx                         :     23.000u      0.917s      7.174w     21 calls
JKGrad: Amnx                        :   2400.400u     24.383s    751.542w     21 calls
Grad: XC                            :    490.750u      1.617s    148.118w     21 calls
V_xc gradient                       :    116.360p                         110132 calls

--------------------------------------------------------------------------------------
V: Grid                             :    483.733u      1.350s    150.814w     21 calls
DFH: sparsity prep                  :      8.817u      0.050s      5.297w     21 calls
| Libint2ERI::Libint2ERI            :      5.717u      0.050s      3.483w     21 calls
DFH: initialize()                   :   2318.933u     33.133s    718.789w     21 calls
| Libint2ERI::Libint2ERI            :     11.500u      0.383s      3.557w     63 calls
| Libint2ErfERI::Libint2ErfERI      :      7.950u      0.033s      4.498w     21 calls
| DFH: AO Construction              :    266.517u      2.517s     80.888w     42 calls
| DFH: AO-Met. Contraction          :   1139.433u      1.933s    343.177w     84 calls
| DFH: wAO Construction             :    311.733u      0.100s     93.795w     42 calls
| DFH: wAO Copy                     :     51.200u      0.900s     15.676w     42 calls
HF: Form core H                     :     21.500u      0.050s      6.550w     21 calls
HF: Form S/X                        :      1.983u      0.133s      0.625w     21 calls
HF: Guess                           :      0.300u      0.017s      0.101w     21 calls
| SAD Guess                         :      0.233u      0.017s      0.082w      1 calls
HF: Form G                          :   6098.733u    126.417s   1874.165w    271 calls
| RV: Form V                        :   3020.600u     31.817s    918.284w    271 calls
| | Properties                      :    828.241p                         1421662 calls
| | Functional                      :    281.787p                         1421662 calls
| | V_xc                            :    719.586p                         1421662 calls
| JK: D                             :      0.200u      0.033s      0.128w    271 calls
| JK: USO2AO                        :      0.250u      0.067s      0.088w    271 calls
| JK: JK                            :   3077.167u     94.500s    955.466w    271 calls
| | DFH: compute_JK()               :   1275.883u     31.783s    393.176w    271 calls
| | | DFH: Grabbing AOs             :      0.000u      0.000s      0.001w    271 calls
| | | DFH: compute_J                :     66.533u      0.400s     20.247w    271 calls
| | | DFH: compute_K                :   1141.983u      0.717s    343.514w    271 calls
| | DFH: compute_wK()               :   1801.083u     62.717s    562.238w    271 calls
| JK: AO2USO                        :      0.000u      0.000s      0.001w    271 calls
HF: Form F                          :      0.200u      0.033s      0.088w    271 calls
HF: Form D                          :      0.367u      0.000s      0.115w    271 calls
HF: DIIS                            :     10.117u      1.617s      3.502w    270 calls
| DIISManager::add_entry            :      0.600u      0.417s      0.317w    250 calls
| DIISManager::extrapolate          :      2.433u      1.050s      1.064w    250 calls
| | bMatrix setup                   :      1.133u      0.667s      0.572w    250 calls
| | bMatrix pseudoinverse           :      0.033u      0.000s      0.022w    250 calls
| | New vector                      :      1.267u      0.383s      0.466w    250 calls
HF: Form C                          :     25.633u      0.517s      7.890w    270 calls
Grad: V T Perturb                   :     94.500u      0.133s     28.433w     21 calls
Grad: S                             :      0.650u      0.000s      0.202w     21 calls
Grad: JK                            :   3919.267u     66.300s   1242.999w     21 calls
| JKGrad: Amn                       :    461.783u     14.117s    153.259w     21 calls
| | Libint2ERI::Libint2ERI          :     17.233u      0.400s      6.690w     42 calls
| JKGrad: Awmn                      :    487.550u     13.667s    162.299w     21 calls
| | Libint2ErfERI::Libint2ErfERI    :     19.633u      0.350s      8.823w     42 calls
| JKGrad: AB                        :    400.667u      7.117s    122.737w     21 calls
| | Libint2ERI::Libint2ERI          :      0.033u      0.000s      0.020w     42 calls
| JKGrad: UV                        :    144.467u      5.283s     45.094w     21 calls
| JKGrad: ABx                       :     23.000u      0.917s      7.174w     21 calls
| | Libint2ERI::Libint2ERI          :      0.117u      0.000s      0.031w     42 calls
| JKGrad: Amnx                      :   2400.400u     24.383s    751.542w     21 calls
| | Libint2ERI::Libint2ERI          :     16.783u      0.433s      6.878w     42 calls
| | Libint2ErfERI::Libint2ErfERI    :     15.817u      0.133s      8.918w     42 calls
Grad: XC                            :    490.750u      1.617s    148.118w     21 calls
| Properties                        :    156.744p                         110132 calls
| Functional                        :     22.173p                         110132 calls
| V_xc gradient                     :    116.360p                         110132 calls

**************************************************************************************

Host: node74.bme.utexas.edu

Timers On : Thu Jun  9 01:47:48 2022
Timers Off: Thu Jun  9 02:34:04 2022

Wall Time:     2776.17 seconds

                                                       Time (seconds)
Module                                       User      System        Wall        Calls
V: Grid                             :    306.433u      0.800s     95.507w     14 calls
DFH: sparsity prep                  :      5.767u      0.050s      3.483w     14 calls
Libint2ERI::Libint2ERI              :     32.917u      0.717s     13.254w    168 calls
DFH: initialize()                   :   1533.850u     21.717s    475.339w     14 calls
Libint2ErfERI::Libint2ErfERI        :     28.733u      0.367s     14.595w     70 calls
DFH: AO Construction                :    178.600u      1.850s     54.257w     28 calls
DFH: AO-Met. Contraction            :    746.733u      1.083s    224.919w     56 calls
DFH: wAO Construction               :    207.050u      0.067s     62.285w     28 calls
DFH: wAO Copy                       :     33.633u      0.567s     10.306w     28 calls
HF: Form core H                     :     13.917u      0.083s      4.225w     14 calls
HF: Form S/X                        :      1.250u      0.000s      0.395w     14 calls
HF: Guess                           :      0.300u      0.017s      0.090w     14 calls
SAD Guess                           :      0.250u      0.017s      0.078w      1 calls
HF: Form G                          :   3964.717u     80.150s   1221.075w    179 calls
RV: Form V                          :   1953.967u      7.950s    590.101w    179 calls
Properties                          :    629.289p                         1012068 calls
Functional                          :    197.488p                         1012068 calls
V_xc                                :    465.298p                         938655 calls
JK: D                               :      0.183u      0.000s      0.077w    179 calls
JK: USO2AO                          :      0.117u      0.000s      0.044w    179 calls
JK: JK                              :   2010.000u     72.167s    630.748w    179 calls
DFH: compute_JK()                   :    832.033u     22.183s    256.782w    179 calls
DFH: Grabbing AOs                   :      0.000u      0.000s      0.001w    179 calls
DFH: compute_J                      :     43.367u      0.050s     13.157w    179 calls
DFH: compute_K                      :    742.300u      0.167s    223.183w    179 calls
DFH: compute_wK()                   :   1177.833u     49.967s    373.931w    179 calls
JK: AO2USO                          :      0.000u      0.000s      0.000w    179 calls
HF: Form F                          :      0.133u      0.000s      0.041w    179 calls
HF: Form D                          :      0.200u      0.000s      0.074w    179 calls
HF: DIIS                            :      6.183u      1.000s      2.150w    178 calls
DIISManager::add_entry              :      0.450u      0.200s      0.193w    165 calls
DIISManager::extrapolate            :      1.517u      0.717s      0.632w    165 calls
bMatrix setup                       :      0.917u      0.417s      0.340w    165 calls
bMatrix pseudoinverse               :      0.050u      0.000s      0.014w    165 calls
New vector                          :      0.533u      0.300s      0.277w    165 calls
HF: Form C                          :     16.250u      0.200s      5.005w    178 calls
Grad: V T Perturb                   :     63.667u      0.050s     19.122w     14 calls
Grad: S                             :      0.400u      0.000s      0.129w     14 calls
Grad: JK                            :   2596.583u     43.000s    822.909w     14 calls
JKGrad: Amn                         :    304.450u      9.083s    100.999w     14 calls
JKGrad: Awmn                        :    324.067u      9.050s    107.816w     14 calls
JKGrad: AB                          :    264.417u      4.417s     80.817w     14 calls
JKGrad: UV                          :     95.083u      3.683s     29.677w     14 calls
JKGrad: ABx                         :     15.283u      0.567s      4.792w     14 calls
JKGrad: Amnx                        :   1592.283u     15.733s    498.186w     14 calls
Grad: XC                            :    317.567u      0.633s     95.717w     14 calls
V_xc gradient                       :     74.498p                          73413 calls

--------------------------------------------------------------------------------------
V: Grid                             :    306.433u      0.800s     95.507w     14 calls
DFH: sparsity prep                  :      5.767u      0.050s      3.483w     14 calls
| Libint2ERI::Libint2ERI            :      3.750u      0.050s      2.276w     14 calls
DFH: initialize()                   :   1533.850u     21.717s    475.339w     14 calls
| Libint2ERI::Libint2ERI            :      7.300u      0.200s      2.259w     42 calls
| Libint2ErfERI::Libint2ErfERI      :      5.383u      0.067s      3.008w     14 calls
| DFH: AO Construction              :    178.600u      1.850s     54.257w     28 calls
| DFH: AO-Met. Contraction          :    746.733u      1.083s    224.919w     56 calls
| DFH: wAO Construction             :    207.050u      0.067s     62.285w     28 calls
| DFH: wAO Copy                     :     33.633u      0.567s     10.306w     28 calls
HF: Form core H                     :     13.917u      0.083s      4.225w     14 calls
HF: Form S/X                        :      1.250u      0.000s      0.395w     14 calls
HF: Guess                           :      0.300u      0.017s      0.090w     14 calls
| SAD Guess                         :      0.250u      0.017s      0.078w      1 calls
HF: Form G                          :   3964.717u     80.150s   1221.075w    179 calls
| RV: Form V                        :   1953.967u      7.950s    590.101w    179 calls
| | Properties                      :    527.470p                         938655 calls
| | Functional                      :    182.943p                         938655 calls
| | V_xc                            :    465.298p                         938655 calls
| JK: D                             :      0.183u      0.000s      0.077w    179 calls
| JK: USO2AO                        :      0.117u      0.000s      0.044w    179 calls
| JK: JK                            :   2010.000u     72.167s    630.748w    179 calls
| | DFH: compute_JK()               :    832.033u     22.183s    256.782w    179 calls
| | | DFH: Grabbing AOs             :      0.000u      0.000s      0.001w    179 calls
| | | DFH: compute_J                :     43.367u      0.050s     13.157w    179 calls
| | | DFH: compute_K                :    742.300u      0.167s    223.183w    179 calls
| | DFH: compute_wK()               :   1177.833u     49.967s    373.931w    179 calls
| JK: AO2USO                        :      0.000u      0.000s      0.000w    179 calls
HF: Form F                          :      0.133u      0.000s      0.041w    179 calls
HF: Form D                          :      0.200u      0.000s      0.074w    179 calls
HF: DIIS                            :      6.183u      1.000s      2.150w    178 calls
| DIISManager::add_entry            :      0.450u      0.200s      0.193w    165 calls
| DIISManager::extrapolate          :      1.517u      0.717s      0.632w    165 calls
| | bMatrix setup                   :      0.917u      0.417s      0.340w    165 calls
| | bMatrix pseudoinverse           :      0.050u      0.000s      0.014w    165 calls
| | New vector                      :      0.533u      0.300s      0.277w    165 calls
HF: Form C                          :     16.250u      0.200s      5.005w    178 calls
Grad: V T Perturb                   :     63.667u      0.050s     19.122w     14 calls
Grad: S                             :      0.400u      0.000s      0.129w     14 calls
Grad: JK                            :   2596.583u     43.000s    822.909w     14 calls
| JKGrad: Amn                       :    304.450u      9.083s    100.999w     14 calls
| | Libint2ERI::Libint2ERI          :     11.167u      0.250s      4.325w     28 calls
| JKGrad: Awmn                      :    324.067u      9.050s    107.816w     14 calls
| | Libint2ErfERI::Libint2ErfERI    :     12.883u      0.217s      5.773w     28 calls
| JKGrad: AB                        :    264.417u      4.417s     80.817w     14 calls
| | Libint2ERI::Libint2ERI          :      0.033u      0.000s      0.012w     28 calls
| JKGrad: UV                        :     95.083u      3.683s     29.677w     14 calls
| JKGrad: ABx                       :     15.283u      0.567s      4.792w     14 calls
| | Libint2ERI::Libint2ERI          :      0.050u      0.000s      0.016w     28 calls
| JKGrad: Amnx                      :   1592.283u     15.733s    498.186w     14 calls
| | Libint2ERI::Libint2ERI          :     10.617u      0.217s      4.365w     28 calls
| | Libint2ErfERI::Libint2ErfERI    :     10.467u      0.083s      5.814w     28 calls
Grad: XC                            :    317.567u      0.633s     95.717w     14 calls
| Properties                        :    101.819p                          73413 calls
| Functional                        :     14.545p                          73413 calls
| V_xc gradient                     :     74.498p                          73413 calls

**************************************************************************************

Host: node74.bme.utexas.edu

Timers On : Thu Jun  9 02:34:05 2022
Timers Off: Thu Jun  9 03:17:42 2022

Wall Time:     2617.50 seconds

                                                       Time (seconds)
Module                                       User      System        Wall        Calls
V: Grid                             :    285.683u      0.817s     88.768w     13 calls
DFH: sparsity prep                  :      5.350u      0.033s      3.229w     13 calls
Libint2ERI::Libint2ERI              :     31.017u      0.617s     12.423w    156 calls
DFH: initialize()                   :   1426.917u     19.767s    441.898w     13 calls
Libint2ErfERI::Libint2ErfERI        :     26.917u      0.350s     13.584w     65 calls
DFH: AO Construction                :    166.183u      1.617s     50.459w     26 calls
DFH: AO-Met. Contraction            :    694.417u      1.000s    209.091w     52 calls
DFH: wAO Construction               :    193.067u      0.100s     58.059w     26 calls
DFH: wAO Copy                       :     31.150u      0.533s      9.533w     26 calls
HF: Form core H                     :     12.983u      0.017s      3.947w     13 calls
HF: Form S/X                        :      1.217u      0.033s      0.383w     13 calls
HF: Guess                           :      0.250u      0.033s      0.090w     13 calls
SAD Guess                           :      0.233u      0.033s      0.079w      1 calls
HF: Form G                          :   3789.367u     84.033s   1169.586w    170 calls
RV: Form V                          :   1871.450u     13.900s    567.113w    170 calls
Properties                          :    600.033p                         962026 calls
Functional                          :    189.288p                         962026 calls
V_xc                                :    445.923p                         893676 calls
JK: D                               :      0.183u      0.017s      0.080w    170 calls
JK: USO2AO                          :      0.283u      0.017s      0.051w    170 calls
JK: JK                              :   1917.217u     70.067s    602.230w    170 calls
DFH: compute_JK()                   :    791.367u     19.750s    243.912w    170 calls
DFH: Grabbing AOs                   :      0.000u      0.000s      0.001w    170 calls
DFH: compute_J                      :     41.367u      0.100s     12.521w    170 calls
DFH: compute_K                      :    707.950u      0.333s    212.952w    170 calls
DFH: compute_wK()                   :   1125.683u     50.317s    358.284w    170 calls
JK: AO2USO                          :      0.000u      0.000s      0.000w    170 calls
HF: Form F                          :      0.100u      0.000s      0.046w    170 calls
HF: Form D                          :      0.233u      0.000s      0.071w    170 calls
HF: DIIS                            :      6.200u      1.033s      2.149w    169 calls
DIISManager::add_entry              :      0.500u      0.217s      0.194w    157 calls
DIISManager::extrapolate            :      1.483u      0.700s      0.669w    157 calls
bMatrix setup                       :      0.800u      0.467s      0.359w    157 calls
bMatrix pseudoinverse               :      0.033u      0.000s      0.014w    157 calls
New vector                          :      0.633u      0.233s      0.294w    157 calls
HF: Form C                          :     15.683u      0.433s      4.802w    169 calls
Grad: V T Perturb                   :     60.067u      0.067s     18.065w     13 calls
Grad: S                             :      0.400u      0.000s      0.123w     13 calls
Grad: JK                            :   2423.033u     40.583s    768.049w     13 calls
JKGrad: Amn                         :    283.267u      8.450s     94.015w     13 calls
JKGrad: Awmn                        :    303.333u      8.517s    100.898w     13 calls
JKGrad: AB                          :    245.883u      4.283s     75.217w     13 calls
JKGrad: UV                          :     88.817u      3.450s     27.718w     13 calls
JKGrad: ABx                         :     14.283u      0.700s      4.497w     13 calls
JKGrad: Amnx                        :   1486.483u     14.733s    465.116w     13 calls
Grad: XC                            :    290.467u      0.550s     87.523w     13 calls
V_xc gradient                       :     69.274p                          68350 calls

--------------------------------------------------------------------------------------
V: Grid                             :    285.683u      0.817s     88.768w     13 calls
DFH: sparsity prep                  :      5.350u      0.033s      3.229w     13 calls
| Libint2ERI::Libint2ERI            :      3.533u      0.033s      2.111w     13 calls
DFH: initialize()                   :   1426.917u     19.767s    441.898w     13 calls
| Libint2ERI::Libint2ERI            :      6.850u      0.167s      2.117w     39 calls
| Libint2ErfERI::Libint2ErfERI      :      4.917u      0.050s      2.719w     13 calls
| DFH: AO Construction              :    166.183u      1.617s     50.459w     26 calls
| DFH: AO-Met. Contraction          :    694.417u      1.000s    209.091w     52 calls
| DFH: wAO Construction             :    193.067u      0.100s     58.059w     26 calls
| DFH: wAO Copy                     :     31.150u      0.533s      9.533w     26 calls
HF: Form core H                     :     12.983u      0.017s      3.947w     13 calls
HF: Form S/X                        :      1.217u      0.033s      0.383w     13 calls
HF: Guess                           :      0.250u      0.033s      0.090w     13 calls
| SAD Guess                         :      0.233u      0.033s      0.079w      1 calls
HF: Form G                          :   3789.367u     84.033s   1169.586w    170 calls
| RV: Form V                        :   1871.450u     13.900s    567.113w    170 calls
| | Properties                      :    508.343p                         893676 calls
| | Functional                      :    175.709p                         893676 calls
| | V_xc                            :    445.923p                         893676 calls
| JK: D                             :      0.183u      0.017s      0.080w    170 calls
| JK: USO2AO                        :      0.283u      0.017s      0.051w    170 calls
| JK: JK                            :   1917.217u     70.067s    602.230w    170 calls
| | DFH: compute_JK()               :    791.367u     19.750s    243.912w    170 calls
| | | DFH: Grabbing AOs             :      0.000u      0.000s      0.001w    170 calls
| | | DFH: compute_J                :     41.367u      0.100s     12.521w    170 calls
| | | DFH: compute_K                :    707.950u      0.333s    212.952w    170 calls
| | DFH: compute_wK()               :   1125.683u     50.317s    358.284w    170 calls
| JK: AO2USO                        :      0.000u      0.000s      0.000w    170 calls
HF: Form F                          :      0.100u      0.000s      0.046w    170 calls
HF: Form D                          :      0.233u      0.000s      0.071w    170 calls
HF: DIIS                            :      6.200u      1.033s      2.149w    169 calls
| DIISManager::add_entry            :      0.500u      0.217s      0.194w    157 calls
| DIISManager::extrapolate          :      1.483u      0.700s      0.669w    157 calls
| | bMatrix setup                   :      0.800u      0.467s      0.359w    157 calls
| | bMatrix pseudoinverse           :      0.033u      0.000s      0.014w    157 calls
| | New vector                      :      0.633u      0.233s      0.294w    157 calls
HF: Form C                          :     15.683u      0.433s      4.802w    169 calls
Grad: V T Perturb                   :     60.067u      0.067s     18.065w     13 calls
Grad: S                             :      0.400u      0.000s      0.123w     13 calls
Grad: JK                            :   2423.033u     40.583s    768.049w     13 calls
| JKGrad: Amn                       :    283.267u      8.450s     94.015w     13 calls
| | Libint2ERI::Libint2ERI          :     10.567u      0.267s      4.092w     26 calls
| JKGrad: Awmn                      :    303.333u      8.517s    100.898w     13 calls
| | Libint2ErfERI::Libint2ErfERI    :     12.133u      0.217s      5.428w     26 calls
| JKGrad: AB                        :    245.883u      4.283s     75.217w     13 calls
| | Libint2ERI::Libint2ERI          :      0.050u      0.017s      0.011w     26 calls
| JKGrad: UV                        :     88.817u      3.450s     27.718w     13 calls
| JKGrad: ABx                       :     14.283u      0.700s      4.497w     13 calls
| | Libint2ERI::Libint2ERI          :      0.017u      0.000s      0.015w     26 calls
| JKGrad: Amnx                      :   1486.483u     14.733s    465.116w     13 calls
| | Libint2ERI::Libint2ERI          :     10.000u      0.133s      4.076w     26 calls
| | Libint2ErfERI::Libint2ErfERI    :      9.867u      0.083s      5.437w     26 calls
Grad: XC                            :    290.467u      0.550s     87.523w     13 calls
| Properties                        :     91.690p                          68350 calls
| Functional                        :     13.579p                          68350 calls
| V_xc gradient                     :     69.274p                          68350 calls

**************************************************************************************

Host: node74.bme.utexas.edu

Timers On : Thu Jun  9 03:17:42 2022
Timers Off: Thu Jun  9 03:57:35 2022

Wall Time:     2392.99 seconds

                                                       Time (seconds)
Module                                       User      System        Wall        Calls
V: Grid                             :    261.700u      0.900s     81.450w     12 calls
DFH: sparsity prep                  :      4.967u      0.050s      3.002w     12 calls
Libint2ERI::Libint2ERI              :     28.533u      0.733s     11.459w    144 calls
DFH: initialize()                   :   1322.283u     24.500s    411.883w     12 calls
Libint2ErfERI::Libint2ErfERI        :     24.783u      0.250s     12.516w     60 calls
DFH: AO Construction                :    151.433u      1.433s     45.956w     24 calls
DFH: AO-Met. Contraction            :    645.950u      5.617s    196.034w     48 calls
DFH: wAO Construction               :    176.583u      0.117s     53.136w     24 calls
DFH: wAO Copy                       :     28.967u      0.867s      9.026w     24 calls
HF: Form core H                     :     12.050u      0.033s      3.669w     12 calls
HF: Form S/X                        :      1.100u      0.033s      0.349w     12 calls
HF: Guess                           :      0.317u      0.017s      0.090w     12 calls
SAD Guess                           :      0.233u      0.000s      0.078w      1 calls
HF: Form G                          :   3434.100u     66.200s   1053.447w    154 calls
RV: Form V                          :   1707.950u     11.550s    517.195w    154 calls
Properties                          :    551.352p                         878318 calls
Functional                          :    172.286p                         878318 calls
V_xc                                :    407.210p                         814817 calls
JK: D                               :      0.167u      0.000s      0.069w    154 calls
JK: USO2AO                          :      0.183u      0.000s      0.042w    154 calls
JK: JK                              :   1725.567u     54.650s    536.041w    154 calls
DFH: compute_JK()                   :    715.217u     18.517s    220.621w    154 calls
DFH: Grabbing AOs                   :      0.000u      0.000s      0.000w    154 calls
DFH: compute_J                      :     38.133u      0.867s     11.799w    154 calls
DFH: compute_K                      :    639.317u      0.100s    192.244w    154 calls
DFH: compute_wK()                   :   1010.300u     36.117s    315.391w    154 calls
JK: AO2USO                          :      0.000u      0.000s      0.000w    154 calls
HF: Form F                          :      0.133u      0.000s      0.043w    154 calls
HF: Form D                          :      0.167u      0.000s      0.064w    154 calls
HF: DIIS                            :      5.750u      0.683s      2.137w    153 calls
DIISManager::add_entry              :      0.567u      0.150s      0.394w    142 calls
DIISManager::extrapolate            :      1.283u      0.417s      0.586w    142 calls
bMatrix setup                       :      0.700u      0.217s      0.315w    142 calls
bMatrix pseudoinverse               :      0.017u      0.000s      0.012w    142 calls
New vector                          :      0.550u      0.200s      0.257w    142 calls
HF: Form C                          :     14.050u      0.183s      4.318w    153 calls
Grad: V T Perturb                   :     53.967u      0.100s     16.232w     12 calls
Grad: S                             :      0.367u      0.000s      0.113w     12 calls
Grad: JK                            :   2221.550u     37.350s    704.258w     12 calls
JKGrad: Amn                         :    259.800u      7.933s     86.276w     12 calls
JKGrad: Awmn                        :    275.517u      7.850s     91.758w     12 calls
JKGrad: AB                          :    229.150u      4.017s     70.096w     12 calls
JKGrad: UV                          :     81.717u      3.050s     25.486w     12 calls
JKGrad: ABx                         :     12.983u      0.450s      4.051w     12 calls
JKGrad: Amnx                        :   1361.567u     13.567s    426.081w     12 calls
Grad: XC                            :    277.200u      0.733s     83.603w     12 calls
V_xc gradient                       :     66.239p                          63501 calls

--------------------------------------------------------------------------------------
V: Grid                             :    261.700u      0.900s     81.450w     12 calls
DFH: sparsity prep                  :      4.967u      0.050s      3.002w     12 calls
| Libint2ERI::Libint2ERI            :      3.200u      0.017s      1.969w     12 calls
DFH: initialize()                   :   1322.283u     24.500s    411.883w     12 calls
| Libint2ERI::Libint2ERI            :      6.267u      0.233s      1.960w     36 calls
| Libint2ErfERI::Libint2ErfERI      :      4.583u      0.000s      2.524w     12 calls
| DFH: AO Construction              :    151.433u      1.433s     45.956w     24 calls
| DFH: AO-Met. Contraction          :    645.950u      5.617s    196.034w     48 calls
| DFH: wAO Construction             :    176.583u      0.117s     53.136w     24 calls
| DFH: wAO Copy                     :     28.967u      0.867s      9.026w     24 calls
HF: Form core H                     :     12.050u      0.033s      3.669w     12 calls
HF: Form S/X                        :      1.100u      0.033s      0.349w     12 calls
HF: Guess                           :      0.317u      0.017s      0.090w     12 calls
| SAD Guess                         :      0.233u      0.000s      0.078w      1 calls
HF: Form G                          :   3434.100u     66.200s   1053.447w    154 calls
| RV: Form V                        :   1707.950u     11.550s    517.195w    154 calls
| | Properties                      :    463.588p                         814817 calls
| | Functional                      :    159.610p                         814817 calls
| | V_xc                            :    407.210p                         814817 calls
| JK: D                             :      0.167u      0.000s      0.069w    154 calls
| JK: USO2AO                        :      0.183u      0.000s      0.042w    154 calls
| JK: JK                            :   1725.567u     54.650s    536.041w    154 calls
| | DFH: compute_JK()               :    715.217u     18.517s    220.621w    154 calls
| | | DFH: Grabbing AOs             :      0.000u      0.000s      0.000w    154 calls
| | | DFH: compute_J                :     38.133u      0.867s     11.799w    154 calls
| | | DFH: compute_K                :    639.317u      0.100s    192.244w    154 calls
| | DFH: compute_wK()               :   1010.300u     36.117s    315.391w    154 calls
| JK: AO2USO                        :      0.000u      0.000s      0.000w    154 calls
HF: Form F                          :      0.133u      0.000s      0.043w    154 calls
HF: Form D                          :      0.167u      0.000s      0.064w    154 calls
HF: DIIS                            :      5.750u      0.683s      2.137w    153 calls
| DIISManager::add_entry            :      0.567u      0.150s      0.394w    142 calls
| DIISManager::extrapolate          :      1.283u      0.417s      0.586w    142 calls
| | bMatrix setup                   :      0.700u      0.217s      0.315w    142 calls
| | bMatrix pseudoinverse           :      0.017u      0.000s      0.012w    142 calls
| | New vector                      :      0.550u      0.200s      0.257w    142 calls
HF: Form C                          :     14.050u      0.183s      4.318w    153 calls
Grad: V T Perturb                   :     53.967u      0.100s     16.232w     12 calls
Grad: S                             :      0.367u      0.000s      0.113w     12 calls
Grad: JK                            :   2221.550u     37.350s    704.258w     12 calls
| JKGrad: Amn                       :    259.800u      7.933s     86.276w     12 calls
| | Libint2ERI::Libint2ERI          :      9.700u      0.200s      3.728w     24 calls
| JKGrad: Awmn                      :    275.517u      7.850s     91.758w     12 calls
| | Libint2ErfERI::Libint2ErfERI    :     11.150u      0.200s      4.989w     24 calls
| JKGrad: AB                        :    229.150u      4.017s     70.096w     12 calls
| | Libint2ERI::Libint2ERI          :      0.050u      0.000s      0.011w     24 calls
| JKGrad: UV                        :     81.717u      3.050s     25.486w     12 calls
| JKGrad: ABx                       :     12.983u      0.450s      4.051w     12 calls
| | Libint2ERI::Libint2ERI          :      0.083u      0.000s      0.016w     24 calls
| JKGrad: Amnx                      :   1361.567u     13.567s    426.081w     12 calls
| | Libint2ERI::Libint2ERI          :      9.233u      0.283s      3.776w     24 calls
| | Libint2ErfERI::Libint2ErfERI    :      9.050u      0.050s      5.004w     24 calls
Grad: XC                            :    277.200u      0.733s     83.603w     12 calls
| Properties                        :     87.763p                          63501 calls
| Functional                        :     12.676p                          63501 calls
| V_xc gradient                     :     66.239p                          63501 calls

**************************************************************************************

Host: node74.bme.utexas.edu

Timers On : Thu Jun  9 03:57:36 2022
Timers Off: Thu Jun  9 04:27:07 2022

Wall Time:     1770.80 seconds

                                                       Time (seconds)
Module                                       User      System        Wall        Calls
V: Grid                             :    197.300u      0.567s     61.012w      9 calls
DFH: sparsity prep                  :      3.700u      0.017s      2.245w      9 calls
Libint2ERI::Libint2ERI              :     21.100u      0.467s      8.573w    108 calls
DFH: initialize()                   :   1006.883u     13.817s    311.978w      9 calls
Libint2ErfERI::Libint2ErfERI        :     18.700u      0.267s      9.439w     45 calls
DFH: AO Construction                :    116.483u      1.100s     35.362w     18 calls
DFH: AO-Met. Contraction            :    490.233u      0.700s    147.605w     36 calls
DFH: wAO Construction               :    135.017u      0.050s     40.608w     18 calls
DFH: wAO Copy                       :     22.517u      0.417s      6.910w     18 calls
HF: Form core H                     :      9.033u      0.083s      2.753w      9 calls
HF: Form S/X                        :      0.867u      0.000s      0.264w      9 calls
HF: Guess                           :      0.250u      0.017s      0.086w      9 calls
SAD Guess                           :      0.233u      0.017s      0.078w      1 calls
HF: Form G                          :   2451.333u     48.117s    753.727w    109 calls
RV: Form V                          :   1214.783u      6.167s    367.251w    109 calls
Properties                          :    391.126p                         622117 calls
Functional                          :    122.237p                         622117 calls
V_xc                                :    292.557p                         574673 calls
JK: D                               :      0.083u      0.000s      0.049w    109 calls
JK: USO2AO                          :      0.200u      0.000s      0.029w    109 calls
JK: JK                              :   1236.100u     41.950s    386.330w    109 calls
DFH: compute_JK()                   :    511.017u     12.450s    157.430w    109 calls
DFH: Grabbing AOs                   :      0.000u      0.000s      0.000w    109 calls
DFH: compute_J                      :     26.700u      0.033s      8.115w    109 calls
DFH: compute_K                      :    457.383u      0.083s    137.506w    109 calls
DFH: compute_wK()                   :    725.000u     29.500s    228.879w    109 calls
JK: AO2USO                          :      0.000u      0.000s      0.000w    109 calls
HF: Form F                          :      0.083u      0.000s      0.028w    109 calls
HF: Form D                          :      0.167u      0.000s      0.045w    109 calls
HF: DIIS                            :      3.800u      0.333s      1.322w    108 calls
DIISManager::add_entry              :      0.217u      0.033s      0.124w    100 calls
DIISManager::extrapolate            :      0.917u      0.283s      0.386w    100 calls
bMatrix setup                       :      0.500u      0.133s      0.207w    100 calls
bMatrix pseudoinverse               :      0.067u      0.000s      0.008w    100 calls
New vector                          :      0.350u      0.150s      0.170w    100 calls
HF: Form C                          :     10.033u      0.233s      3.060w    108 calls
Grad: V T Perturb                   :     40.783u      0.017s     12.266w      9 calls
Grad: S                             :      0.300u      0.000s      0.083w      9 calls
Grad: JK                            :   1705.233u     27.517s    539.808w      9 calls
JKGrad: Amn                         :    197.033u      5.800s     65.287w      9 calls
JKGrad: Awmn                        :    210.600u      5.817s     70.004w      9 calls
JKGrad: AB                          :    172.683u      2.700s     52.719w      9 calls
JKGrad: UV                          :     61.300u      2.317s     19.120w      9 calls
JKGrad: ABx                         :      9.817u      0.267s      3.042w      9 calls
JKGrad: Amnx                        :   1053.217u     10.250s    329.251w      9 calls
Grad: XC                            :    205.717u      0.467s     62.015w      9 calls
V_xc gradient                       :     49.538p                          47444 calls

--------------------------------------------------------------------------------------
V: Grid                             :    197.300u      0.567s     61.012w      9 calls
DFH: sparsity prep                  :      3.700u      0.017s      2.245w      9 calls
| Libint2ERI::Libint2ERI            :      2.400u      0.017s      1.468w      9 calls
DFH: initialize()                   :   1006.883u     13.817s    311.978w      9 calls
| Libint2ERI::Libint2ERI            :      4.567u      0.133s      1.473w     27 calls
| Libint2ErfERI::Libint2ErfERI      :      3.450u      0.033s      1.953w      9 calls
| DFH: AO Construction              :    116.483u      1.100s     35.362w     18 calls
| DFH: AO-Met. Contraction          :    490.233u      0.700s    147.605w     36 calls
| DFH: wAO Construction             :    135.017u      0.050s     40.608w     18 calls
| DFH: wAO Copy                     :     22.517u      0.417s      6.910w     18 calls
HF: Form core H                     :      9.033u      0.083s      2.753w      9 calls
HF: Form S/X                        :      0.867u      0.000s      0.264w      9 calls
HF: Guess                           :      0.250u      0.017s      0.086w      9 calls
| SAD Guess                         :      0.233u      0.017s      0.078w      1 calls
HF: Form G                          :   2451.333u     48.117s    753.727w    109 calls
| RV: Form V                        :   1214.783u      6.167s    367.251w    109 calls
| | Properties                      :    326.498p                         574673 calls
| | Functional                      :    112.728p                         574673 calls
| | V_xc                            :    292.557p                         574673 calls
| JK: D                             :      0.083u      0.000s      0.049w    109 calls
| JK: USO2AO                        :      0.200u      0.000s      0.029w    109 calls
| JK: JK                            :   1236.100u     41.950s    386.330w    109 calls
| | DFH: compute_JK()               :    511.017u     12.450s    157.430w    109 calls
| | | DFH: Grabbing AOs             :      0.000u      0.000s      0.000w    109 calls
| | | DFH: compute_J                :     26.700u      0.033s      8.115w    109 calls
| | | DFH: compute_K                :    457.383u      0.083s    137.506w    109 calls
| | DFH: compute_wK()               :    725.000u     29.500s    228.879w    109 calls
| JK: AO2USO                        :      0.000u      0.000s      0.000w    109 calls
HF: Form F                          :      0.083u      0.000s      0.028w    109 calls
HF: Form D                          :      0.167u      0.000s      0.045w    109 calls
HF: DIIS                            :      3.800u      0.333s      1.322w    108 calls
| DIISManager::add_entry            :      0.217u      0.033s      0.124w    100 calls
| DIISManager::extrapolate          :      0.917u      0.283s      0.386w    100 calls
| | bMatrix setup                   :      0.500u      0.133s      0.207w    100 calls
| | bMatrix pseudoinverse           :      0.067u      0.000s      0.008w    100 calls
| | New vector                      :      0.350u      0.150s      0.170w    100 calls
HF: Form C                          :     10.033u      0.233s      3.060w    108 calls
Grad: V T Perturb                   :     40.783u      0.017s     12.266w      9 calls
Grad: S                             :      0.300u      0.000s      0.083w      9 calls
Grad: JK                            :   1705.233u     27.517s    539.808w      9 calls
| JKGrad: Amn                       :    197.033u      5.800s     65.287w      9 calls
| | Libint2ERI::Libint2ERI          :      7.250u      0.150s      2.796w     18 calls
| JKGrad: Awmn                      :    210.600u      5.817s     70.004w      9 calls
| | Libint2ErfERI::Libint2ErfERI    :      8.400u      0.133s      3.728w     18 calls
| JKGrad: AB                        :    172.683u      2.700s     52.719w      9 calls
| | Libint2ERI::Libint2ERI          :      0.017u      0.017s      0.008w     18 calls
| JKGrad: UV                        :     61.300u      2.317s     19.120w      9 calls
| JKGrad: ABx                       :      9.817u      0.267s      3.042w      9 calls
| | Libint2ERI::Libint2ERI          :      0.050u      0.000s      0.010w     18 calls
| JKGrad: Amnx                      :   1053.217u     10.250s    329.251w      9 calls
| | Libint2ERI::Libint2ERI          :      6.817u      0.150s      2.817w     18 calls
| | Libint2ErfERI::Libint2ErfERI    :      6.850u      0.100s      3.757w     18 calls
Grad: XC                            :    205.717u      0.467s     62.015w      9 calls
| Properties                        :     64.628p                          47444 calls
| Functional                        :      9.509p                          47444 calls
| V_xc gradient                     :     49.538p                          47444 calls

**************************************************************************************

Host: node74.bme.utexas.edu

Timers On : Thu Jun  9 04:27:07 2022
Timers Off: Thu Jun  9 05:07:18 2022

Wall Time:     2411.04 seconds

                                                       Time (seconds)
Module                                       User      System        Wall        Calls
V: Grid                             :    266.683u      0.800s     82.768w     12 calls
DFH: sparsity prep                  :      4.883u      0.017s      2.944w     12 calls
Libint2ERI::Libint2ERI              :     28.400u      0.700s     11.399w    144 calls
DFH: initialize()                   :   1325.450u     18.583s    410.562w     12 calls
Libint2ErfERI::Libint2ErfERI        :     25.050u      0.317s     12.654w     60 calls
DFH: AO Construction                :    154.050u      1.350s     46.729w     24 calls
DFH: AO-Met. Contraction            :    648.883u      1.050s    195.442w     48 calls
DFH: wAO Construction               :    174.750u      0.050s     52.573w     24 calls
DFH: wAO Copy                       :     29.850u      0.600s      9.168w     24 calls
HF: Form core H                     :     12.083u      0.017s      3.698w     12 calls
HF: Form S/X                        :      1.150u      0.017s      0.352w     12 calls
HF: Guess                           :      0.300u      0.017s      0.091w     12 calls
SAD Guess                           :      0.250u      0.017s      0.079w      1 calls
HF: Form G                          :   3477.050u     66.417s   1068.383w    155 calls
RV: Form V                          :   1721.550u      7.883s    520.141w    155 calls
Properties                          :    550.010p                         887267 calls
Functional                          :    174.778p                         887267 calls
V_xc                                :    411.249p                         823516 calls
JK: D                               :      0.133u      0.017s      0.071w    155 calls
JK: USO2AO                          :      0.117u      0.017s      0.041w    155 calls
JK: JK                              :   1754.867u     58.483s    548.035w    155 calls
DFH: compute_JK()                   :    726.133u     17.733s    223.682w    155 calls
DFH: Grabbing AOs                   :      0.000u      0.000s      0.000w    155 calls
DFH: compute_J                      :     38.133u      0.050s     11.587w    155 calls
DFH: compute_K                      :    649.700u      0.117s    195.338w    155 calls
DFH: compute_wK()                   :   1028.583u     40.733s    324.323w    155 calls
JK: AO2USO                          :      0.000u      0.000s      0.000w    155 calls
HF: Form F                          :      0.067u      0.017s      0.038w    155 calls
HF: Form D                          :      0.083u      0.000s      0.065w    155 calls
HF: DIIS                            :      5.333u      0.817s      1.912w    154 calls
DIISManager::add_entry              :      0.383u      0.167s      0.168w    143 calls
DIISManager::extrapolate            :      1.317u      0.500s      0.578w    143 calls
bMatrix setup                       :      0.883u      0.267s      0.311w    143 calls
bMatrix pseudoinverse               :      0.033u      0.000s      0.012w    143 calls
New vector                          :      0.400u      0.233s      0.253w    143 calls
HF: Form C                          :     14.417u      0.317s      4.368w    154 calls
Grad: V T Perturb                   :     54.633u      0.000s     16.423w     12 calls
Grad: S                             :      0.383u      0.000s      0.112w     12 calls
Grad: JK                            :   2241.683u     36.600s    710.352w     12 calls
JKGrad: Amn                         :    262.617u      7.900s     87.099w     12 calls
JKGrad: Awmn                        :    274.300u      7.717s     91.425w     12 calls
JKGrad: AB                          :    228.817u      3.517s     70.016w     12 calls
JKGrad: UV                          :     81.633u      2.983s     25.483w     12 calls
JKGrad: ABx                         :     13.000u      0.483s      4.062w     12 calls
JKGrad: Amnx                        :   1380.517u     13.550s    431.745w     12 calls
Grad: XC                            :    272.033u      0.600s     81.981w     12 calls
V_xc gradient                       :     63.877p                          63751 calls

--------------------------------------------------------------------------------------
[...]
| | V_xc                            :     82.621p                          52340 calls
| JK: D                             :      0.067u      0.000s      0.014w     10 calls
| JK: USO2AO                        :      0.033u      0.000s      0.010w     10 calls
| JK: JK                            :    675.750u     36.617s    223.183w     10 calls
| | JK: (Q|mn) Read                 :      2.083u      8.167s      4.967w     20 calls
| | JK: J                           :      5.567u      0.033s      1.686w     20 calls
| | | JK: J1                        :      2.717u      0.000s      0.829w     20 calls
| | | JK: J2                        :      2.767u      0.000s      0.826w     20 calls
| | JK: K                           :    246.217u      0.167s     74.072w     20 calls
| | | JK: K1                        :    170.283u      0.100s     51.247w     20 calls
| | | JK: K2                        :     75.900u      0.067s     22.816w     20 calls
| | JK: (Q|mn)^L Read               :      4.783u      8.033s      4.762w     31 calls
| | JK: (Q|mn)^R Read               :      1.617u      7.683s      4.690w     31 calls
| | JK: wK                          :    400.200u      0.183s    120.344w     31 calls
| | | JK: wK1                       :    323.300u      0.167s     97.240w     62 calls
| | | JK: wK2                       :     76.867u      0.017s     23.097w     31 calls
| JK: AO2USO                        :      0.000u      0.000s      0.000w     10 calls
HF: Form F                          :      0.050u      0.000s      0.014w     10 calls
HF: Form D                          :      0.067u      0.000s      0.011w     10 calls
HF: DIIS                            :      1.017u      0.100s      0.351w      9 calls
| DIISManager::add_entry            :      0.083u      0.033s      0.023w      9 calls
| DIISManager::extrapolate          :      0.150u      0.050s      0.079w      9 calls
| | bMatrix setup                   :      0.083u      0.050s      0.042w      9 calls
| | bMatrix pseudoinverse           :      0.000u      0.000s      0.001w      9 calls
| | New vector                      :      0.067u      0.000s      0.037w      9 calls
HF: Form C                          :      2.650u      0.067s      0.810w      9 calls

**************************************************************************************

Host: node74.bme.utexas.edu

Timers On : Thu Jun  9 08:29:58 2022
Timers Off: Thu Jun  9 08:37:28 2022

Wall Time:      450.38 seconds

                                                       Time (seconds)
Module                                       User      System        Wall        Calls
V: Grid                             :     22.717u      0.133s      7.078w      1 calls
DFH: sparsity prep                  :      0.617u      0.017s      0.391w      1 calls
Libint2ERI::Libint2ERI              :      1.233u      0.017s      0.746w      7 calls
Libint2ErfERI::Libint2ErfERI        :      0.500u      0.000s      0.304w      1 calls
JK: (A|Q)^-1                        :     25.150u      1.467s      7.629w      1 calls
JK: (A|mn)                          :     32.350u      0.033s      9.742w      1 calls
JK: (Q|mn)                          :    100.167u      0.083s     30.137w      1 calls
JK: (Q|mn) Write                    :      0.333u      1.217s      0.730w      1 calls
JK: (A|mn)^L                        :     32.300u      0.017s      9.727w      1 calls
JK: (Q|mn)^L                        :    100.517u      0.117s     30.246w      1 calls
JK: (Q|mn)^L Write                  :      0.333u      1.400s      0.849w      1 calls
JK: (Q|mn)^R                        :     37.767u      0.017s     11.367w      1 calls
JK: (Q|mn)^R Write                  :      0.350u      1.367s      0.825w      1 calls
HF: Form core H                     :      1.883u      0.017s      0.572w      1 calls
HF: Form S/X                        :      0.317u      0.000s      0.101w      1 calls
HF: Guess                           :      0.333u      0.017s      0.104w      1 calls
SAD Guess                           :      0.317u      0.017s      0.100w      1 calls
HF: Form G                          :   1001.733u     43.583s    324.299w     10 calls
RV: Form V                          :    323.400u      4.833s     98.753w     10 calls
Properties                          :    100.395p                          53060 calls
Functional                          :     10.676p                          53060 calls
V_xc                                :     86.139p                          53060 calls
JK: D                               :      0.033u      0.017s      0.014w     10 calls
JK: USO2AO                          :      0.050u      0.000s      0.007w     10 calls
JK: JK                              :    678.183u     38.733s    225.502w     10 calls
JK: (Q|mn) Read                     :      2.167u      9.000s      5.461w     20 calls
JK: J                               :      5.633u      0.067s      1.699w     20 calls
JK: J1                              :      2.783u      0.000s      0.831w     20 calls
JK: J2                              :      2.750u      0.017s      0.837w     20 calls
JK: K                               :    246.550u      0.217s     74.247w     20 calls
JK: K1                              :    170.933u      0.150s     51.481w     20 calls
JK: K2                              :     75.617u      0.050s     22.759w     20 calls
JK: (Q|mn)^L Read                   :      5.083u      8.833s      5.189w     31 calls
JK: (Q|mn)^R Read                   :      1.450u      7.800s      4.742w     31 calls
JK: wK                              :    401.250u      0.333s    120.798w     31 calls
JK: wK1                             :    324.683u      0.233s     97.776w     62 calls
JK: wK2                             :     76.533u      0.083s     23.015w     31 calls
JK: AO2USO                          :      0.000u      0.000s      0.000w     10 calls
HF: Form F                          :      0.033u      0.000s      0.014w     10 calls
HF: Form D                          :      0.017u      0.000s      0.011w     10 calls
HF: DIIS                            :      1.100u      0.117s      0.370w      9 calls
DIISManager::add_entry              :      0.067u      0.017s      0.024w      9 calls
DIISManager::extrapolate            :      0.233u      0.067s      0.091w      9 calls
bMatrix setup                       :      0.133u      0.050s      0.048w      9 calls
bMatrix pseudoinverse               :      0.000u      0.000s      0.001w      9 calls
New vector                          :      0.100u      0.017s      0.043w      9 calls
HF: Form C                          :      2.650u      0.067s      0.815w      9 calls

--------------------------------------------------------------------------------------
V: Grid                             :     22.717u      0.133s      7.078w      1 calls
DFH: sparsity prep                  :      0.617u      0.017s      0.391w      1 calls
| Libint2ERI::Libint2ERI            :      0.417u      0.017s      0.262w      1 calls
Libint2ERI::Libint2ERI              :      0.817u      0.000s      0.483w      4 calls
Libint2ErfERI::Libint2ErfERI        :      0.500u      0.000s      0.304w      1 calls
JK: (A|Q)^-1                        :     25.150u      1.467s      7.629w      1 calls
| Libint2ERI::Libint2ERI            :      0.000u      0.000s      0.001w      2 calls
JK: (A|mn)                          :     32.350u      0.033s      9.742w      1 calls
JK: (Q|mn)                          :    100.167u      0.083s     30.137w      1 calls
JK: (Q|mn) Write                    :      0.333u      1.217s      0.730w      1 calls
JK: (A|mn)^L                        :     32.300u      0.017s      9.727w      1 calls
JK: (Q|mn)^L                        :    100.517u      0.117s     30.246w      1 calls
JK: (Q|mn)^L Write                  :      0.333u      1.400s      0.849w      1 calls
JK: (Q|mn)^R                        :     37.767u      0.017s     11.367w      1 calls
JK: (Q|mn)^R Write                  :      0.350u      1.367s      0.825w      1 calls
HF: Form core H                     :      1.883u      0.017s      0.572w      1 calls
HF: Form S/X                        :      0.317u      0.000s      0.101w      1 calls
HF: Guess                           :      0.333u      0.017s      0.104w      1 calls
| SAD Guess                         :      0.317u      0.017s      0.100w      1 calls
HF: Form G                          :   1001.733u     43.583s    324.299w     10 calls
| RV: Form V                        :    323.400u      4.833s     98.753w     10 calls
| | Properties                      :    100.395p                          53060 calls
| | Functional                      :     10.676p                          53060 calls
| | V_xc                            :     86.139p                          53060 calls
| JK: D                             :      0.033u      0.017s      0.014w     10 calls
| JK: USO2AO                        :      0.050u      0.000s      0.007w     10 calls
| JK: JK                            :    678.183u     38.733s    225.502w     10 calls
| | JK: (Q|mn) Read                 :      2.167u      9.000s      5.461w     20 calls
| | JK: J                           :      5.633u      0.067s      1.699w     20 calls
| | | JK: J1                        :      2.783u      0.000s      0.831w     20 calls
| | | JK: J2                        :      2.750u      0.017s      0.837w     20 calls
| | JK: K                           :    246.550u      0.217s     74.247w     20 calls
| | | JK: K1                        :    170.933u      0.150s     51.481w     20 calls
| | | JK: K2                        :     75.617u      0.050s     22.759w     20 calls
| | JK: (Q|mn)^L Read               :      5.083u      8.833s      5.189w     31 calls
| | JK: (Q|mn)^R Read               :      1.450u      7.800s      4.742w     31 calls
| | JK: wK                          :    401.250u      0.333s    120.798w     31 calls
| | | JK: wK1                       :    324.683u      0.233s     97.776w     62 calls
| | | JK: wK2                       :     76.533u      0.083s     23.015w     31 calls
| JK: AO2USO                        :      0.000u      0.000s      0.000w     10 calls
HF: Form F                          :      0.033u      0.000s      0.014w     10 calls
HF: Form D                          :      0.017u      0.000s      0.011w     10 calls
HF: DIIS                            :      1.100u      0.117s      0.370w      9 calls
| DIISManager::add_entry            :      0.067u      0.017s      0.024w      9 calls
| DIISManager::extrapolate          :      0.233u      0.067s      0.091w      9 calls
| | bMatrix setup                   :      0.133u      0.050s      0.048w      9 calls
| | bMatrix pseudoinverse           :      0.000u      0.000s      0.001w      9 calls
| | New vector                      :      0.100u      0.017s      0.043w      9 calls
HF: Form C                          :      2.650u      0.067s      0.815w      9 calls

**************************************************************************************

Host: node74.bme.utexas.edu

Timers On : Thu Jun  9 08:37:28 2022
Timers Off: Thu Jun  9 08:45:00 2022

Wall Time:      451.22 seconds

                                                       Time (seconds)
Module                                       User      System        Wall        Calls
V: Grid                             :     21.833u      0.133s      6.811w      1 calls
DFH: sparsity prep                  :      0.617u      0.017s      0.381w      1 calls
Libint2ERI::Libint2ERI              :      1.200u      0.017s      0.732w      7 calls
Libint2ErfERI::Libint2ErfERI        :      0.483u      0.000s      0.298w      1 calls
JK: (A|Q)^-1                        :     24.817u      1.483s      7.522w      1 calls
JK: (A|mn)                          :     32.033u      0.033s      9.650w      1 calls
JK: (Q|mn)                          :     98.783u      0.100s     29.730w      1 calls
JK: (Q|mn) Write                    :      0.333u      1.100s      0.655w      1 calls
JK: (A|mn)^L                        :     32.200u      0.033s      9.695w      1 calls
JK: (Q|mn)^L                        :    100.200u      0.133s     30.163w      1 calls
JK: (Q|mn)^L Write                  :      0.333u      1.000s      0.616w      1 calls
JK: (Q|mn)^R                        :     38.150u      0.033s     11.487w      1 calls
JK: (Q|mn)^R Write                  :      0.333u      1.300s      0.794w      1 calls
HF: Form core H                     :      1.900u      0.000s      0.576w      1 calls
HF: Form S/X                        :      0.300u      0.017s      0.096w      1 calls
HF: Guess                           :      0.333u      0.017s      0.101w      1 calls
SAD Guess                           :      0.300u      0.017s      0.097w      1 calls
HF: Form G                          :   1014.700u     42.150s    326.786w     10 calls
RV: Form V                          :    306.317u      5.033s     93.653w     10 calls
Properties                          :     93.194p                          53040 calls
Functional                          :     10.578p                          53040 calls
V_xc                                :     83.228p                          53040 calls
JK: D                               :      0.050u      0.000s      0.013w     10 calls
JK: USO2AO                          :      0.017u      0.017s      0.011w     10 calls
JK: JK                              :    708.267u     37.083s    233.092w     10 calls
JK: (Q|mn) Read                     :      2.150u      8.467s      5.102w     20 calls
JK: J                               :      5.400u      0.000s      1.630w     20 calls
JK: J1                              :      2.500u      0.000s      0.759w     20 calls
JK: J2                              :      2.733u      0.000s      0.838w     20 calls
JK: K                               :    246.683u      0.183s     74.247w     20 calls
JK: K1                              :    170.883u      0.150s     51.452w     20 calls
JK: K2                              :     75.767u      0.017s     22.786w     20 calls
JK: (Q|mn)^L Read                   :      4.883u      8.167s      4.797w     31 calls
JK: (Q|mn)^R Read                   :      1.767u      7.617s      4.617w     31 calls
JK: wK                              :    431.833u      0.233s    129.968w     31 calls
JK: wK1                             :    355.850u      0.200s    107.118w     62 calls
JK: wK2                             :     75.967u      0.033s     22.844w     31 calls
JK: AO2USO                          :      0.000u      0.000s      0.000w     10 calls
HF: Form F                          :      0.033u      0.000s      0.006w     10 calls
HF: Form D                          :      0.017u      0.000s      0.011w     10 calls
HF: DIIS                            :      1.083u      0.083s      0.354w      9 calls
DIISManager::add_entry              :      0.050u      0.000s      0.024w      9 calls
DIISManager::extrapolate            :      0.233u      0.067s      0.082w      9 calls
bMatrix setup                       :      0.117u      0.033s      0.045w      9 calls
bMatrix pseudoinverse               :      0.000u      0.000s      0.001w      9 calls
New vector                          :      0.100u      0.033s      0.036w      9 calls
HF: Form C                          :      2.600u      0.033s      0.798w      9 calls

--------------------------------------------------------------------------------------
V: Grid                             :     21.833u      0.133s      6.811w      1 calls
DFH: sparsity prep                  :      0.617u      0.017s      0.381w      1 calls
| Libint2ERI::Libint2ERI            :      0.400u      0.017s      0.254w      1 calls
Libint2ERI::Libint2ERI              :      0.800u      0.000s      0.477w      4 calls
Libint2ErfERI::Libint2ErfERI        :      0.483u      0.000s      0.298w      1 calls
JK: (A|Q)^-1                        :     24.817u      1.483s      7.522w      1 calls
| Libint2ERI::Libint2ERI            :      0.000u      0.000s      0.001w      2 calls
JK: (A|mn)                          :     32.033u      0.033s      9.650w      1 calls
JK: (Q|mn)                          :     98.783u      0.100s     29.730w      1 calls
JK: (Q|mn) Write                    :      0.333u      1.100s      0.655w      1 calls
JK: (A|mn)^L                        :     32.200u      0.033s      9.695w      1 calls
JK: (Q|mn)^L                        :    100.200u      0.133s     30.163w      1 calls
JK: (Q|mn)^L Write                  :      0.333u      1.000s      0.616w      1 calls
JK: (Q|mn)^R                        :     38.150u      0.033s     11.487w      1 calls
JK: (Q|mn)^R Write                  :      0.333u      1.300s      0.794w      1 calls
HF: Form core H                     :      1.900u      0.000s      0.576w      1 calls
HF: Form S/X                        :      0.300u      0.017s      0.096w      1 calls
HF: Guess                           :      0.333u      0.017s      0.101w      1 calls
| SAD Guess                         :      0.300u      0.017s      0.097w      1 calls
HF: Form G                          :   1014.700u     42.150s    326.786w     10 calls
| RV: Form V                        :    306.317u      5.033s     93.653w     10 calls
| | Properties                      :     93.194p                          53040 calls
| | Functional                      :     10.578p                          53040 calls
| | V_xc                            :     83.228p                          53040 calls
| JK: D                             :      0.050u      0.000s      0.013w     10 calls
| JK: USO2AO                        :      0.017u      0.017s      0.011w     10 calls
| JK: JK                            :    708.267u     37.083s    233.092w     10 calls
| | JK: (Q|mn) Read                 :      2.150u      8.467s      5.102w     20 calls
| | JK: J                           :      5.400u      0.000s      1.630w     20 calls
| | | JK: J1                        :      2.500u      0.000s      0.759w     20 calls
| | | JK: J2                        :      2.733u      0.000s      0.838w     20 calls
| | JK: K                           :    246.683u      0.183s     74.247w     20 calls
| | | JK: K1                        :    170.883u      0.150s     51.452w     20 calls
| | | JK: K2                        :     75.767u      0.017s     22.786w     20 calls
| | JK: (Q|mn)^L Read               :      4.883u      8.167s      4.797w     31 calls
| | JK: (Q|mn)^R Read               :      1.767u      7.617s      4.617w     31 calls
| | JK: wK                          :    431.833u      0.233s    129.968w     31 calls
| | | JK: wK1                       :    355.850u      0.200s    107.118w     62 calls
| | | JK: wK2                       :     75.967u      0.033s     22.844w     31 calls
| JK: AO2USO                        :      0.000u      0.000s      0.000w     10 calls
HF: Form F                          :      0.033u      0.000s      0.006w     10 calls
HF: Form D                          :      0.017u      0.000s      0.011w     10 calls
HF: DIIS                            :      1.083u      0.083s      0.354w      9 calls
| DIISManager::add_entry            :      0.050u      0.000s      0.024w      9 calls
| DIISManager::extrapolate          :      0.233u      0.067s      0.082w      9 calls
| | bMatrix setup                   :      0.117u      0.033s      0.045w      9 calls
| | bMatrix pseudoinverse           :      0.000u      0.000s      0.001w      9 calls
| | New vector                      :      0.100u      0.033s      0.036w      9 calls
HF: Form C                          :      2.600u      0.033s      0.798w      9 calls

**************************************************************************************
