      -----------------------------------------------------------      
     |                   =====================                   |     
     |                           x T B                           |     
     |                   =====================                   |     
     |                         S. Grimme                         |     
     |          Mulliken Center for Theoretical Chemistry        |     
     |                    University of Bonn                     |     
      -----------------------------------------------------------      

   * xtb version 6.5.0 (97a52f5) compiled by 'conda@d2599ee0d4f4' on 2022-05-15

   xtb is free software: you can redistribute it and/or modify it under
   the terms of the GNU Lesser General Public License as published by
   the Free Software Foundation, either version 3 of the License, or
   (at your option) any later version.
   
   xtb is distributed in the hope that it will be useful,
   but WITHOUT ANY WARRANTY; without even the implied warranty of
   MERCHANTABILITY or FITNESS FOR A PARTICULAR PURPOSE.  See the
   GNU Lesser General Public License for more details.
   
   Cite this work as:
   * C. Bannwarth, E. Caldeweyher, S. Ehlert, A. Hansen, P. Pracht,
     J. Seibert, S. Spicher, S. Grimme, WIREs Comput. Mol. Sci., 2020, 11,
     e01493. DOI: 10.1002/wcms.1493
   
   for GFN2-xTB:
   * C. Bannwarth, S. Ehlert and S. Grimme., J. Chem. Theory Comput., 2019,
     15, 1652-1671. DOI: 10.1021/acs.jctc.8b01176
   for GFN1-xTB:
   * S. Grimme, C. Bannwarth, P. Shushkov, J. Chem. Theory Comput., 2017,
     13, 1989-2009. DOI: 10.1021/acs.jctc.7b00118
   for GFN0-xTB:
   * P. Pracht, E. Caldeweyher, S. Ehlert, S. Grimme, ChemRxiv, 2019, preprint.
     DOI: 10.26434/chemrxiv.8326202.v1
   for GFN-FF:
   * S. Spicher and S. Grimme, Angew. Chem. Int. Ed., 2020, 59, 15665-15673.
     DOI: 10.1002/anie.202004239
   
   for ALPB and GBSA implicit solvation:
   * S. Ehlert, M. Stahn, S. Spicher, S. Grimme, J. Chem. Theory Comput.,
     2021, 17, 4250-4261. DOI: 10.1021/acs.jctc.1c00471
   
   for DFT-D4:
   * E. Caldeweyher, C. Bannwarth and S. Grimme, J. Chem. Phys., 2017,
     147, 034112. DOI: 10.1063/1.4993215
   * E. Caldeweyher, S. Ehlert, A. Hansen, H. Neugebauer, S. Spicher,
     C. Bannwarth and S. Grimme, J. Chem. Phys., 2019, 150, 154122.
     DOI: 10.1063/1.5090222
   * E. Caldeweyher, J.-M. Mewes, S. Ehlert and S. Grimme, Phys. Chem. Chem. Phys.
     2020, 22, 8499-8512. DOI: 10.1039/D0CP00502A
   
   for sTDA-xTB:
   * S. Grimme and C. Bannwarth, J. Chem. Phys., 2016, 145, 054103.
     DOI: 10.1063/1.4959605
   
   in the mass-spec context:
   * V. Asgeirsson, C. Bauer and S. Grimme, Chem. Sci., 2017, 8, 4879.
     DOI: 10.1039/c7sc00601b
   * J. Koopman and S. Grimme, ACS Omega 2019, 4, 12, 15120-15133.
     DOI: 10.1021/acsomega.9b02011
   
   for metadynamics refer to:
   * S. Grimme, J. Chem. Theory Comput., 2019, 155, 2847-2862
     DOI: 10.1021/acs.jctc.9b00143
   
   for SPH calculations refer to:
   * S. Spicher and S. Grimme, J. Chem. Theory Comput., 2021, 17, 1701-1714
     DOI: 10.1021/acs.jctc.0c01306
   
   with help from (in alphabetical order)
   P. Atkinson, C. Bannwarth, F. Bohle, G. Brandenburg, E. Caldeweyher
   M. Checinski, S. Dohm, S. Ehlert, S. Ehrlich, I. Gerasimov, C. Hölzer
   A. Katbashev, J. Koopman, C. Lavigne, S. Lehtola, F. März, M. Müller,
   F. Musil, H. Neugebauer, J. Pisarek, C. Plett, P. Pracht, F. Pultar,
   J. Seibert, P. Shushkov, S. Spicher, M. Stahn, M. Steiner, T. Strunk,
   J. Stückrath, T. Rose, and J. Unsleber
   
 * started run on 2023/11/18 at 08:42:58.576     

           -------------------------------------------------
          |                Calculation Setup                |
           -------------------------------------------------

          program call               : /home/liuchw/anaconda3/envs/xtbenv/bin/xtb --gfn 2 --chrg 0 --uhf 0 7_11_Index_0-opt-2-3-193_preQMOPTprefit_xyzformat.xyz --opt --input xtb-opt-2-3-193_constr.txt
          hostname                   : node165.bme.utexas.edu
          coordinate file            : 7_11_Index_0-opt-2-3-193_preQMOPTprefit_xyzformat.xyz
          omp threads                :                    64

   ID    Z sym.   atoms
    1    7 N      1, 9
    2    6 C      2-6, 8, 10-14
    3    1 H      7, 15-17, 19-24
    4    8 O      18
constraining angle 1 2 3 4 to  193.2790971°, actual value: -166.7209029°
constraining angle 24 1 2 3 to   28.0635785°, actual value:   28.0635785°
constraining angle 24 1 2 5 to  203.9782404°, actual value: -156.0217596°
constraining angle 7 1 2 3 to  173.0412083°, actual value:  173.0412083°
constraining angle 7 1 2 5 to  348.9558701°, actual value:  -11.0441299°
constraining angle 1 2 5 8 to  188.1094394°, actual value: -171.8905606°

           -------------------------------------------------
          |                 G F N 2 - x T B                 |
           -------------------------------------------------

        Reference                      10.1021/acs.jctc.8b01176
      * Hamiltonian:
        H0-scaling (s, p, d)           1.850000    2.230000    2.230000
        zeta-weighting                 0.500000
      * Dispersion:
        s8                             2.700000
        a1                             0.520000
        a2                             5.000000
        s9                             5.000000
      * Repulsion:
        kExp                           1.500000    1.000000
        rExp                           1.000000
      * Coulomb:
        alpha                          2.000000
        third order                    shell-resolved
        anisotropic                    true
        a3                             3.000000
        a5                             4.000000
        cn-shift                       1.200000
        cn-exp                         4.000000
        max-rad                        5.000000

q/qsh data taken from xtbrestart
CAMM data taken from xtbrestart

          ...................................................
          :                      SETUP                      :
          :.................................................:
          :  # basis functions                  66          :
          :  # atomic orbitals                  66          :
          :  # shells                           38          :
          :  # electrons                        70          :
          :  max. iterations                   250          :
          :  Hamiltonian                  GFN2-xTB          :
          :  restarted?                       true          :
          :  GBSA solvation                  false          :
          :  PC potential                    false          :
          :  electronic temp.          300.0000000     K    :
          :  accuracy                    1.0000000          :
          :  -> integral cutoff          0.2500000E+02      :
          :  -> integral neglect         0.1000000E-07      :
          :  -> SCF convergence          0.1000000E-05 Eh   :
          :  -> wf. convergence          0.1000000E-03 e    :
          :  Broyden damping             0.4000000          :
          ...................................................

 iter      E             dE          RMSdq      gap      omega  full diag
   1    -39.0807578 -0.390808E+02  0.459E+00    1.70       0.0  T
   2    -39.0819508 -0.119298E-02  0.276E+00    1.96       1.0  T
   3    -39.0166700  0.652808E-01  0.165E+00    1.69       1.0  T
   4    -39.0867325 -0.700625E-01  0.163E-01    1.91       1.0  T
   5    -39.0870528 -0.320297E-03  0.706E-02    1.89       1.0  T
   6    -39.0870756 -0.227888E-04  0.353E-02    1.88       1.0  T
   7    -39.0870826 -0.709228E-05  0.122E-02    1.88       1.7  T
   8    -39.0870839 -0.126558E-05  0.452E-03    1.88       4.5  T
   9    -39.0870840 -0.132883E-06  0.226E-03    1.88       9.0  T
  10    -39.0870841 -0.262320E-07  0.943E-04    1.88      21.6  T
  11    -39.0870841 -0.706634E-08  0.407E-04    1.88      50.2  T

   *** convergence criteria satisfied after 11 iterations ***

         #    Occupation            Energy/Eh            Energy/eV
      -------------------------------------------------------------
         1        2.0000           -0.6721479             -18.2901
       ...           ...                  ...                  ...
        29        2.0000           -0.4377302             -11.9112
        30        2.0000           -0.4297033             -11.6928
        31        2.0000           -0.4109413             -11.1823
        32        2.0000           -0.4075524             -11.0901
        33        2.0000           -0.3951945             -10.7538
        34        2.0000           -0.3774777             -10.2717
        35        2.0000           -0.3477952              -9.4640 (HOMO)
        36                         -0.2787167              -7.5843 (LUMO)
        37                         -0.2362190              -6.4278
        38                         -0.2206177              -6.0033
        39                         -0.1740472              -4.7361
        40                         -0.1311735              -3.5694
       ...                                ...                  ...
        66                          0.6649793              18.0950
      -------------------------------------------------------------
                  HL-Gap            0.0690786 Eh            1.8797 eV
             Fermi-level           -0.3132559 Eh           -8.5241 eV

 SCC (total)                   0 d,  0 h,  0 min,  1.557 sec
 SCC setup                      ...        0 min,  0.010 sec (  0.669%)
 Dispersion                     ...        0 min,  0.026 sec (  1.684%)
 classical contributions        ...        0 min,  0.010 sec (  0.655%)
 integral evaluation            ...        0 min,  0.026 sec (  1.676%)
 iterations                     ...        0 min,  1.323 sec ( 84.988%)
 molecular gradient             ...        0 min,  0.148 sec (  9.536%)
 printout                       ...        0 min,  0.012 sec (  0.780%)

         :::::::::::::::::::::::::::::::::::::::::::::::::::::
         ::                     SUMMARY                     ::
         :::::::::::::::::::::::::::::::::::::::::::::::::::::
         :: total energy             -38.537506393046 Eh    ::
         :: gradient norm              0.074352815132 Eh/a0 ::
         :: HOMO-LUMO gap              1.879723285947 eV    ::
         ::.................................................::
         :: SCC energy               -39.087084079747 Eh    ::
         :: -> isotropic ES            0.049940745961 Eh    ::
         :: -> anisotropic ES          0.001602574445 Eh    ::
         :: -> anisotropic XC          0.020239026899 Eh    ::
         :: -> dispersion             -0.023225210850 Eh    ::
         :: repulsion energy           0.549572194505 Eh    ::
         :: add. restraining           0.000000000000 Eh    ::
         :: total charge              -0.000000000000 e     ::
         :::::::::::::::::::::::::::::::::::::::::::::::::::::

      ----------------------------------------------------------- 
     |                   =====================                   |
     |                        A N C O P T                        |
     |                   =====================                   |
     |               Approximate Normal Coordinate               |
     |                Rational Function Optimizer                |
      ----------------------------------------------------------- 

          ...................................................
          :                      SETUP                      :
          :.................................................:
          :   optimization level            normal          :
          :   max. optcycles                   200          :
          :   ANC micro-cycles                  20          :
          :   degrees of freedom                66          :
          :.................................................:
          :   RF solver                   davidson          :
          :   write xtbopt.log                true          :
          :   linear?                        false          :
          :   energy convergence         0.5000000E-05 Eh   :
          :   grad. convergence          0.1000000E-02 Eh/α :
          :   maximium RF displ.         1.0000000          :
          :   Hlow (freq-cutoff)         0.1000000E-01      :
          :   Hmax (freq-cutoff)         5.0000000          :
          :   S6 in model hess.         20.0000000          :
          ...................................................

generating ANC from model Hessian ...
Using Lindh-Hessian (1995)
 Shifting diagonal of input Hessian by    8.5161088531058547E-003
 Lowest  eigenvalues of input Hessian
    0.000000    0.000000    0.000000    0.000000    0.000000    0.000000
    0.010000    0.010835    0.012562    0.014844    0.017226    0.021708
    0.025904    0.028235    0.029919    0.030791    0.032593    0.039917
 Highest eigenvalues
    2.202472    2.259622    3.605563    6.131593    7.803500   20.098778


........................................................................
.............................. CYCLE    1 ..............................
........................................................................
   1    -39.0870841 -0.390871E+02  0.143E-04    1.88       0.0  T
   2    -39.0870841 -0.511022E-10  0.938E-05    1.88     217.5  T
   3    -39.0870841 -0.793463E-10  0.622E-05    1.88     328.1  T
     SCC iter.                  ...        0 min,  0.328 sec
     gradient                   ...        0 min,  0.170 sec
 * total energy  :   -38.5375064 Eh     change       -0.1377316E-08 Eh
   gradient norm :     0.0743516 Eh/α   predicted     0.0000000E+00 (-100.00%)
   displ. norm   :     0.3449238 α      lambda       -0.1541462E-01
   maximum displ.:     0.1478528 α      in ANC's #7, #29, #15, ...

........................................................................
.............................. CYCLE    2 ..............................
........................................................................
   1    -39.1519046 -0.391519E+02  0.256E-01    1.94       0.0  T
   2    -39.1520323 -0.127736E-03  0.160E-01    1.92       1.0  T
   3    -39.1519760  0.563400E-04  0.947E-02    1.95       1.0  T
   4    -39.1520798 -0.103815E-03  0.304E-02    1.93       1.0  T
   5    -39.1520997 -0.198644E-04  0.786E-03    1.93       2.6  T
   6    -39.1521004 -0.778687E-06  0.396E-03    1.93       5.2  T
   7    -39.1521006 -0.127408E-06  0.149E-03    1.93      13.7  T
   8    -39.1521006 -0.170412E-07  0.535E-04    1.93      38.1  T
   9    -39.1521006 -0.686072E-09  0.199E-04    1.93     102.3  T
     SCC iter.                  ...        0 min,  1.157 sec
     gradient                   ...        0 min,  0.159 sec
 * total energy  :   -38.5476204 Eh     change       -0.1011403E-01 Eh
   gradient norm :     0.0258172 Eh/α   predicted    -0.8630044E-02 ( -14.67%)
   displ. norm   :     0.2502014 α      lambda       -0.2842248E-02
   maximum displ.:     0.1588795 α      in ANC's #7, #12, #13, ...

........................................................................
.............................. CYCLE    3 ..............................
........................................................................
   1    -39.1779825 -0.391780E+02  0.136E-01    1.95       0.0  T
   2    -39.1779972 -0.146459E-04  0.906E-02    1.93       1.0  T
   3    -39.1779626  0.346316E-04  0.583E-02    1.95       1.0  T
   4    -39.1780235 -0.609773E-04  0.126E-02    1.94       1.6  T
   5    -39.1780263 -0.273932E-05  0.310E-03    1.94       6.6  T
   6    -39.1780264 -0.859650E-07  0.162E-03    1.94      12.6  T
   7    -39.1780264 -0.134597E-07  0.565E-04    1.94      36.1  T
   8    -39.1780264 -0.348347E-08  0.185E-04    1.94     110.3  T
     SCC iter.                  ...        0 min,  0.924 sec
     gradient                   ...        0 min,  0.167 sec
 * total energy  :   -38.5489368 Eh     change       -0.1316387E-02 Eh
   gradient norm :     0.0770153 Eh/α   predicted    -0.1510722E-02 (  14.76%)
   displ. norm   :     0.1314104 α      lambda       -0.1125321E-02
   maximum displ.:     0.0744263 α      in ANC's #7, #2, #3, ...

........................................................................
.............................. CYCLE    4 ..............................
........................................................................
   1    -39.1848267 -0.391848E+02  0.714E-02    1.94       0.0  T
   2    -39.1848270 -0.267554E-06  0.461E-02    1.93       1.0  T
   3    -39.1848120  0.149401E-04  0.336E-02    1.94       1.0  T
   4    -39.1848346 -0.226024E-04  0.331E-03    1.94       6.2  T
   5    -39.1848348 -0.162493E-06  0.117E-03    1.94      17.4  T
   6    -39.1848348 -0.658330E-08  0.524E-04    1.94      39.0  T
   7    -39.1848348 -0.149272E-08  0.165E-04    1.94     123.8  T
     SCC iter.                  ...        0 min,  0.808 sec
     gradient                   ...        0 min,  0.161 sec
 * total energy  :   -38.5482827 Eh     change        0.6541265E-03 Eh
   gradient norm :     0.1826953 Eh/α   predicted    -0.5724363E-03 (-187.51%)
   displ. norm   :     0.0654517 α      lambda       -0.1812611E-02
   maximum displ.:     0.0385957 α      in ANC's #7, #15, #12, ...

........................................................................
.............................. CYCLE    5 ..............................
........................................................................
   1    -39.1770479 -0.391770E+02  0.425E-02    1.93       0.0  T
   2    -39.1770495 -0.162626E-05  0.290E-02    1.94       1.0  T
   3    -39.1770488  0.707685E-06  0.186E-02    1.93       1.1  T
   4    -39.1770535 -0.469370E-05  0.444E-03    1.93       4.6  T
   5    -39.1770538 -0.352554E-06  0.101E-03    1.93      20.1  T
   6    -39.1770539 -0.968416E-08  0.518E-04    1.93      39.4  T
   7    -39.1770539 -0.143501E-08  0.171E-04    1.93     119.5  T
     SCC iter.                  ...        0 min,  0.884 sec
     gradient                   ...        0 min,  0.154 sec
 * total energy  :   -38.5492079 Eh     change       -0.9251997E-03 Eh
   gradient norm :     0.0041322 Eh/α   predicted    -0.9105975E-03 (  -1.58%)
   displ. norm   :     0.0491798 α      lambda       -0.3886852E-04
   maximum displ.:     0.0382394 α      in ANC's #2, #1, #4, ...

........................................................................
.............................. CYCLE    6 ..............................
........................................................................
   1    -39.1766209 -0.391766E+02  0.237E-02    1.93       0.0  T
   2    -39.1766210 -0.488059E-07  0.141E-02    1.93       1.4  T
   3    -39.1766197  0.128188E-05  0.825E-03    1.93       2.5  T
   4    -39.1766211 -0.143594E-05  0.668E-04    1.93      30.6  T
   5    -39.1766211 -0.885809E-08  0.242E-04    1.93      84.5  T
   6    -39.1766211 -0.349957E-09  0.126E-04    1.93     162.6  T
     SCC iter.                  ...        0 min,  0.696 sec
     gradient                   ...        0 min,  0.165 sec
 * total energy  :   -38.5492409 Eh     change       -0.3304447E-04 Eh
   gradient norm :     0.0019869 Eh/α   predicted    -0.1972893E-04 ( -40.30%)
   displ. norm   :     0.1534509 α      lambda       -0.5761992E-04
   maximum displ.:     0.1125675 α      in ANC's #2, #1, #4, ...

........................................................................
.............................. CYCLE    7 ..............................
........................................................................
   1    -39.1757139 -0.391757E+02  0.707E-02    1.93       0.0  T
   2    -39.1757142 -0.260316E-06  0.420E-02    1.93       1.0  T
   3    -39.1757020  0.121361E-04  0.252E-02    1.93       1.0  T
   4    -39.1757156 -0.135827E-04  0.159E-03    1.93      12.9  T
   5    -39.1757157 -0.471947E-07  0.644E-04    1.93      31.7  T
   6    -39.1757157 -0.138191E-08  0.324E-04    1.93      63.0  T
     SCC iter.                  ...        0 min,  0.727 sec
     gradient                   ...        0 min,  0.156 sec
 * total energy  :   -38.5492881 Eh     change       -0.4716716E-04 Eh
   gradient norm :     0.0036862 Eh/α   predicted    -0.2913531E-04 ( -38.23%)
   displ. norm   :     0.0349244 α      lambda       -0.1228080E-04
   maximum displ.:     0.0262492 α      in ANC's #2, #1, #3, ...

........................................................................
.............................. CYCLE    8 ..............................
........................................................................
   1    -39.1761415 -0.391761E+02  0.142E-02    1.93       0.0  T
   2    -39.1761415 -0.135410E-07  0.840E-03    1.93       2.4  T
   3    -39.1761413  0.230603E-06  0.327E-03    1.93       6.2  T
   4    -39.1761416 -0.251869E-06  0.350E-04    1.93      58.4  T
   5    -39.1761416 -0.203205E-08  0.145E-04    1.93     141.1  T
     SCC iter.                  ...        0 min,  0.592 sec
     gradient                   ...        0 min,  0.161 sec
 * total energy  :   -38.5492981 Eh     change       -0.1001472E-04 Eh
   gradient norm :     0.0019194 Eh/α   predicted    -0.6148581E-05 ( -38.60%)
   displ. norm   :     0.0860449 α      lambda       -0.1627317E-04
   maximum displ.:     0.0586985 α      in ANC's #2, #1, #3, ...

........................................................................
.............................. CYCLE    9 ..............................
........................................................................
   1    -39.1768615 -0.391769E+02  0.355E-02    1.93       0.0  T
   2    -39.1768616 -0.142729E-06  0.208E-02    1.93       1.0  T
   3    -39.1768614  0.199845E-06  0.314E-03    1.93       6.5  T
   4    -39.1768617 -0.241052E-06  0.734E-04    1.93      27.8  T
   5    -39.1768617 -0.862727E-08  0.354E-04    1.93      57.7  T
     SCC iter.                  ...        0 min,  0.585 sec
     gradient                   ...        0 min,  0.162 sec
 * total energy  :   -38.5493119 Eh     change       -0.1381434E-04 Eh
   gradient norm :     0.0019788 Eh/α   predicted    -0.8164641E-05 ( -40.90%)
   displ. norm   :     0.0386765 α      lambda       -0.3506777E-05
   maximum displ.:     0.0277880 α      in ANC's #1, #2, #3, ...

........................................................................
.............................. CYCLE   10 ..............................
........................................................................
   1    -39.1765842 -0.391766E+02  0.162E-02    1.93       0.0  T
   2    -39.1765843 -0.237854E-07  0.945E-03    1.93       2.2  T
   3    -39.1765842  0.105636E-06  0.227E-03    1.93       9.0  T
   4    -39.1765843 -0.116555E-06  0.412E-04    1.93      49.6  T
   5    -39.1765843 -0.340277E-08  0.152E-04    1.93     133.9  T
     SCC iter.                  ...        0 min,  0.621 sec
     gradient                   ...        0 min,  0.164 sec
 * total energy  :   -38.5493153 Eh     change       -0.3381257E-05 Eh
   gradient norm :     0.0018383 Eh/α   predicted    -0.1755793E-05 ( -48.07%)
   displ. norm   :     0.0313408 α      lambda       -0.2434598E-05
   maximum displ.:     0.0233994 α      in ANC's #1, #2, #3, ...

........................................................................
.............................. CYCLE   11 ..............................
........................................................................
   1    -39.1765263 -0.391765E+02  0.134E-02    1.93       0.0  T
   2    -39.1765263 -0.192096E-07  0.778E-03    1.93       2.6  T
   3    -39.1765262  0.108294E-06  0.232E-03    1.93       8.8  T
   4    -39.1765263 -0.119373E-06  0.359E-04    1.93      56.9  T
   5    -39.1765263 -0.242436E-08  0.128E-04    1.93     159.8  T
     SCC iter.                  ...        0 min,  0.591 sec
     gradient                   ...        0 min,  0.153 sec
 * total energy  :   -38.5493173 Eh     change       -0.1973651E-05 Eh
   gradient norm :     0.0012813 Eh/α   predicted    -0.1218083E-05 ( -38.28%)
   displ. norm   :     0.0118247 α      lambda       -0.7191067E-06
   maximum displ.:     0.0104288 α      in ANC's #1, #2, #3, ...

........................................................................
.............................. CYCLE   12 ..............................
........................................................................
   1    -39.1766413 -0.391766E+02  0.559E-03    1.93       0.0  T
   2    -39.1766413 -0.373866E-08  0.325E-03    1.93       6.3  T
   3    -39.1766412  0.397814E-07  0.152E-03    1.93      13.4  T
   4    -39.1766413 -0.450216E-07  0.180E-04    1.93     113.5  T
   5    -39.1766413 -0.587825E-09  0.729E-05    1.93     280.0  T
     SCC iter.                  ...        0 min,  0.544 sec
     gradient                   ...        0 min,  0.173 sec
 * total energy  :   -38.5493179 Eh     change       -0.6358170E-06 Eh
   gradient norm :     0.0003779 Eh/α   predicted    -0.3618577E-06 ( -43.09%)
   displ. norm   :     0.0072146 α      lambda       -0.3138211E-06
   maximum displ.:     0.0066318 α      in ANC's #1, #9, #12, ...

   *** GEOMETRY OPTIMIZATION CONVERGED AFTER 12 ITERATIONS ***

------------------------------------------------------------------------
 total energy gain   :        -0.0118115 Eh       -7.4118 kcal/mol
 total RMSD          :         0.1667669 a0        0.0882 Å
 total power (kW/mol):        -2.5842618 (step)   -2.5213 (real)
------------------------------------------------------------------------

 ANCopt (total)                0 d,  0 h,  0 min, 12.300 sec
 optimizer setup                ...        0 min,  0.000 sec (  0.002%)
 model hessian                  ...        0 min,  0.009 sec (  0.077%)
 ANC generation                 ...        0 min,  0.008 sec (  0.067%)
 coordinate transformation      ...        0 min,  0.000 sec (  0.004%)
 single point calculation       ...        0 min, 11.812 sec ( 96.035%)
 optimization log               ...        0 min,  0.004 sec (  0.033%)
 hessian update                 ...        0 min,  0.440 sec (  3.580%)
 rational function              ...        0 min,  0.023 sec (  0.188%)

================
 final structure:
================
24
 xtb: 6.5.0 (97a52f5)
N            1.99305602397351       -0.45266708597214        0.28139654473770
C            0.68236116050953       -0.17383507331708        0.08707256706078
C           -0.18523719307152       -1.29202849146799       -0.30924190343794
C           -1.47719204507045       -1.10386816284568       -0.80310660449365
C            0.25991801887353        1.11498031797245        0.36293688346487
C            0.23259354612553       -2.60567858429521       -0.06688524301266
H            2.57499658071161        0.37259632947583        0.44553456118310
C           -1.03507705510678        1.73983675251402        0.42697056387171
N            0.49847649270024        3.34553236228708        0.66136585478048
C            1.22920870715500        2.19575342057141        0.55958069363566
C           -0.85282847814730        3.06193716914148        0.61790765589318
C           -0.59087986799727       -3.67983280460101       -0.34246613006864
C           -2.29845598647382       -2.18029242955439       -1.07999979950479
C           -1.86355632452770       -3.47393449116726       -0.84752625811406
H            1.20019505558437       -2.79461899402849        0.37341861216368
H           -1.81196486810099       -0.11219906923032       -1.05383976415856
H            0.90133131468827        4.25286820364697        0.82426334433888
O            2.46106086632757        2.14937382131415        0.59364617933264
H           -0.24184820067705       -4.68355551387384       -0.14837324026266
H           -3.28824489947830       -2.00666624319853       -1.47624390927671
H           -2.50959714094130       -4.31336578908231       -1.05671524633015
H           -1.98559741207595        1.24742195463056        0.41983149775243
H           -1.57831186539439        3.84487989397331        0.72683984673435
H            2.40997957041360       -1.21522750289323       -0.22552570628952

 Bond Distances (Angstroems)
 ---------------------------
N1-C2=1.3540         N1-H7=1.0231         N1-H24=1.0061        C2-N1=1.3540         C2-C3=1.4697         C2-C5=1.3841         
C3-C2=1.4697         C3-C4=1.3959         C3-C6=1.3996         C4-C3=1.3959         C4-C13=1.3820        C4-H16=1.0763        
C5-C2=1.3841         C5-C8=1.4393         C5-C10=1.4650        C6-C3=1.3996         C6-C12=1.3813        C6-H15=1.0797        
H7-N1=1.0231         C8-C5=1.4393         C8-C11=1.3482        C8-H22=1.0705        N9-C10=1.3661        N9-C11=1.3814        
N9-H17=1.0060        C10-C5=1.4650        C10-N9=1.3661        C10-O18=1.2332       C11-C8=1.3482        C11-N9=1.3814        
C11-H23=1.0729       C12-C6=1.3813        C12-C14=1.3846       C12-H19=1.0803       C13-C4=1.3820        C13-C14=1.3844       
C13-H20=1.0802       C14-C12=1.3846       C14-C13=1.3844       C14-H21=1.0797       H15-C6=1.0797        H16-C4=1.0763        
H17-N9=1.0060        O18-C10=1.2332       H19-C12=1.0803       H20-C13=1.0802       H21-C14=1.0797       H22-C8=1.0705        
H23-C11=1.0729       H24-N1=1.0061        
 C  H  Rav=1.0771 sigma=0.0037  Rmin=1.0705  Rmax=1.0803     7
 C  C  Rav=1.4031 sigma=0.0365  Rmin=1.3482  Rmax=1.4697    11
 N  H  Rav=1.0117 sigma=0.0080  Rmin=1.0060  Rmax=1.0231     3
 N  C  Rav=1.3672 sigma=0.0112  Rmin=1.3540  Rmax=1.3814     3
 O  C  Rav=1.2332 sigma=0.0000  Rmin=1.2332  Rmax=1.2332     1

 selected bond angles (degree)
 --------------------
H7-N1-C2=114.05                H24-N1-C2=119.00               H24-N1-H7=117.16               C3-C2-N1=116.96                
C5-C2-N1=117.30                C5-C2-C3=125.59                C4-C3-C2=122.63                C6-C3-C2=119.42                
C6-C3-C4=117.65                C13-C4-C3=121.06               H16-C4-C3=119.64               H16-C4-C13=119.09              
C8-C5-C2=133.45                C10-C5-C2=120.78               C10-C5-C8=105.61               C12-C6-C3=121.16               
H15-C6-C3=120.16               H15-C6-C12=118.66              C11-C8-C5=108.08               H22-C8-C5=126.79               
H22-C8-C11=124.89              C11-N9-C10=110.37              H17-N9-C10=123.84              H17-N9-C11=125.59              
N9-C10-C5=106.08               O18-C10-C5=129.56              O18-C10-N9=124.33              

 selected dihedral angles (degree)
 ---------------------------------
C3-C2-N1-H7=173.07            C3-C2-N1-H24= 28.08           C5-C2-N1-H7=348.93            C5-C2-N1-H24=203.95           
C4-C3-C2-N1=193.47            C4-C3-C2-C5= 17.99            C6-C3-C2-N1= 19.95            C6-C3-C2-C5=204.47            
C13-C4-C3-C2=184.47           C13-C4-C3-C6=358.11           H16-C4-C3-C2=  9.84           H16-C4-C3-C6=183.47           
C8-C5-C2-N1=188.17            C8-C5-C2-C3=  3.64            C10-C5-C2-N1= 13.46           C10-C5-C2-C3=188.92           
C12-C6-C3-C2=175.64           C12-C6-C3-C4=  1.79           H15-C6-C3-C2=357.71           H15-C6-C3-C4=183.86           
C11-C8-C5-C2=185.72           C11-C8-C5-C10=  1.00          H22-C8-C5-C2= 11.07           H22-C8-C5-C10=186.35          
N9-C10-C5-C2=173.42           N9-C10-C5-C8=357.40           O18-C10-C5-C2=355.52          O18-C10-C5-C8=179.50          
C5-C10-N9-C11=  3.29          C5-C10-N9-H17=178.45          O18-C10-N9-C11=181.33         O18-C10-N9-H17=356.49         
           -------------------------------------------------
          |                Final Singlepoint                |
           -------------------------------------------------

          ...................................................
          :                      SETUP                      :
          :.................................................:
          :  # basis functions                  66          :
          :  # atomic orbitals                  66          :
          :  # shells                           38          :
          :  # electrons                        70          :
          :  max. iterations                   250          :
          :  Hamiltonian                  GFN2-xTB          :
          :  restarted?                      false          :
          :  GBSA solvation                  false          :
          :  PC potential                    false          :
          :  electronic temp.          300.0000000     K    :
          :  accuracy                    1.0000000          :
          :  -> integral cutoff          0.2500000E+02      :
          :  -> integral neglect         0.1000000E-07      :
          :  -> SCF convergence          0.1000000E-05 Eh   :
          :  -> wf. convergence          0.1000000E-03 e    :
          :  Broyden damping             0.4000000          :
          ...................................................

 iter      E             dE          RMSdq      gap      omega  full diag
   1    -39.1766413 -0.391766E+02  0.264E-05    1.93       0.0  T
   2    -39.1766413 -0.545697E-11  0.174E-05    1.93    1170.7  T
   3    -39.1766413 -0.596145E-11  0.744E-06    1.93    2742.0  T

   *** convergence criteria satisfied after 3 iterations ***

         #    Occupation            Energy/Eh            Energy/eV
      -------------------------------------------------------------
         1        2.0000           -0.6798366             -18.4993
       ...           ...                  ...                  ...
        29        2.0000           -0.4370130             -11.8917
        30        2.0000           -0.4278876             -11.6434
        31        2.0000           -0.4137891             -11.2598
        32        2.0000           -0.4111338             -11.1875
        33        2.0000           -0.3962533             -10.7826
        34        2.0000           -0.3785837             -10.3018
        35        2.0000           -0.3458613              -9.4114 (HOMO)
        36                         -0.2748947              -7.4803 (LUMO)
        37                         -0.2315693              -6.3013
        38                         -0.2097506              -5.7076
        39                         -0.1663103              -4.5255
        40                         -0.1202083              -3.2710
       ...                                ...                  ...
        66                          0.7348889              19.9973
      -------------------------------------------------------------
                  HL-Gap            0.0709666 Eh            1.9311 eV
             Fermi-level           -0.3103780 Eh           -8.4458 eV

 SCC (total)                   0 d,  0 h,  0 min,  0.613 sec
 SCC setup                      ...        0 min,  0.023 sec (  3.754%)
 Dispersion                     ...        0 min,  0.026 sec (  4.295%)
 classical contributions        ...        0 min,  0.026 sec (  4.295%)
 integral evaluation            ...        0 min,  0.031 sec (  5.089%)
 iterations                     ...        0 min,  0.346 sec ( 56.402%)
 molecular gradient             ...        0 min,  0.146 sec ( 23.825%)
 printout                       ...        0 min,  0.014 sec (  2.310%)

         :::::::::::::::::::::::::::::::::::::::::::::::::::::
         ::                     SUMMARY                     ::
         :::::::::::::::::::::::::::::::::::::::::::::::::::::
         :: total energy             -38.549317913039 Eh    ::
         :: gradient norm              0.000378160206 Eh/a0 ::
         :: HOMO-LUMO gap              1.931098405090 eV    ::
         ::.................................................::
         :: SCC energy               -39.176641295441 Eh    ::
         :: -> isotropic ES            0.048887926310 Eh    ::
         :: -> anisotropic ES          0.001113525484 Eh    ::
         :: -> anisotropic XC          0.017803508541 Eh    ::
         :: -> dispersion             -0.023771577485 Eh    ::
         :: repulsion energy           0.627283463557 Eh    ::
         :: add. restraining           0.000033541574 Eh    ::
         :: total charge              -0.000000000000 e     ::
         :::::::::::::::::::::::::::::::::::::::::::::::::::::

           -------------------------------------------------
          |                Property Printout                |
           -------------------------------------------------

    * Orbital Energies and Occupations

         #    Occupation            Energy/Eh            Energy/eV
      -------------------------------------------------------------
         1        2.0000           -0.6798366             -18.4993
       ...           ...                  ...                  ...
        23        2.0000           -0.4824524             -13.1282
        24        2.0000           -0.4758477             -12.9485
        25        2.0000           -0.4716431             -12.8341
        26        2.0000           -0.4657854             -12.6747
        27        2.0000           -0.4539452             -12.3525
        28        2.0000           -0.4519239             -12.2975
        29        2.0000           -0.4370130             -11.8917
        30        2.0000           -0.4278876             -11.6434
        31        2.0000           -0.4137891             -11.2598
        32        2.0000           -0.4111338             -11.1875
        33        2.0000           -0.3962533             -10.7826
        34        2.0000           -0.3785837             -10.3018
        35        2.0000           -0.3458613              -9.4114 (HOMO)
        36                         -0.2748947              -7.4803 (LUMO)
        37                         -0.2315693              -6.3013
        38                         -0.2097506              -5.7076
        39                         -0.1663103              -4.5255
        40                         -0.1202083              -3.2710
        41                         -0.0811612              -2.2085
        42                          0.0315538               0.8586
        43                          0.0410328               1.1166
        44                          0.0923831               2.5139
        45                          0.1133797               3.0852
        46                          0.1336674               3.6373
       ...                                ...                  ...
        66                          0.7348889              19.9973
      -------------------------------------------------------------
                  HL-Gap            0.0709666 Eh            1.9311 eV
             Fermi-level           -0.3103780 Eh           -8.4458 eV

     #   Z          covCN         q      C6AA      α(0)
     1   7 N        2.650    -0.251    26.543     7.652
     2   6 C        2.884     0.092    25.952     8.352
     3   6 C        2.972     0.004    27.934     8.669
     4   6 C        2.924    -0.032    28.797     8.800
     5   6 C        3.079    -0.073    29.720     8.938
     6   6 C        2.927    -0.033    28.830     8.805
     7   1 H        0.859     0.231     0.960     1.535
     8   6 C        2.989    -0.072    29.798     8.954
     9   7 N        2.774    -0.145    24.141     7.297
    10   6 C        2.882     0.255    22.728     7.816
    11   6 C        2.987    -0.000    28.025     8.684
    12   6 C        2.918    -0.029    28.719     8.788
    13   6 C        2.918    -0.028    28.703     8.786
    14   6 C        2.919    -0.027    28.677     8.782
    15   1 H        0.926     0.038     2.470     2.457
    16   1 H        0.926     0.049     2.335     2.389
    17   1 H        0.860     0.169     1.278     1.771
    18   8 O        0.857    -0.488    23.524     6.503
    19   1 H        0.926     0.034     2.532     2.489
    20   1 H        0.926     0.035     2.519     2.482
    21   1 H        0.926     0.035     2.522     2.483
    22   1 H        0.926     0.034     2.534     2.489
    23   1 H        0.926     0.033     2.545     2.495
    24   1 H        0.860     0.171     1.265     1.762

 Mol. C6AA /au·bohr⁶  :       7611.234588
 Mol. C8AA /au·bohr⁸  :     185742.384680
 Mol. α(0) /au        :        139.177726


Wiberg/Mayer (AO) data.
largest (>0.10) Wiberg bond orders for each atom

 ---------------------------------------------------------------------------
     #   Z sym  total        # sym  WBO       # sym  WBO       # sym  WBO
 ---------------------------------------------------------------------------
     1   7 N    3.391 --     2 C    1.286    24 H    0.943     7 H    0.877
     2   6 C    3.968 --     5 C    1.419     1 N    1.286     3 C    1.067
     3   6 C    3.988 --     4 C    1.377     6 C    1.371     2 C    1.067
                            14 C    0.101
     4   6 C    3.984 --    13 C    1.457     3 C    1.377    16 H    0.961
                            12 C    0.105
     5   6 C    3.968 --     2 C    1.419     8 C    1.172    10 C    1.079
     6   6 C    3.977 --    12 C    1.459     3 C    1.371    15 H    0.965
                            13 C    0.106
     7   1 H    0.946 --     1 N    0.877
     8   6 C    3.978 --    11 C    1.680     5 C    1.172    22 H    0.965
     9   7 N    3.514 --    10 C    1.180    11 C    1.132    17 H    0.942
                            18 O    0.137
    10   6 C    3.947 --    18 O    1.555     9 N    1.180     5 C    1.079
    11   6 C    3.938 --     8 C    1.680     9 N    1.132    23 H    0.970
    12   6 C    3.992 --     6 C    1.459    14 C    1.429    19 H    0.971
                             4 C    0.105
    13   6 C    3.992 --     4 C    1.457    14 C    1.432    20 H    0.971
                             6 C    0.106
    14   6 C    3.978 --    13 C    1.432    12 C    1.429    21 H    0.971
                             3 C    0.101
    15   1 H    0.999 --     6 C    0.965
    16   1 H    0.998 --     4 C    0.961
    17   1 H    0.971 --     9 N    0.942
    18   8 O    1.965 --    10 C    1.555     9 N    0.137
    19   1 H    0.998 --    12 C    0.971
    20   1 H    0.998 --    13 C    0.971
    21   1 H    0.998 --    14 C    0.971
    22   1 H    0.999 --     8 C    0.965
    23   1 H    0.998 --    11 C    0.970
    24   1 H    0.969 --     1 N    0.943
 ---------------------------------------------------------------------------

Topologies differ in total number of bonds
Writing topology from bond orders to xtbtopo.mol

molecular dipole:
                 x           y           z       tot (Debye)
 q only:       -0.722      -0.816      -0.306
   full:       -0.797      -0.605      -0.405       2.743
molecular quadrupole (traceless):
                xx          xy          yy          xz          yz          zz
 q only:       -3.998      -8.628       6.003      -1.323       0.745      -2.005
  q+dip:       -5.537      -8.901      13.308      -0.570       2.313      -7.771
   full:       -6.540      -8.972      10.633      -2.004       2.021      -4.093

           -------------------------------------------------
          |                Geometry Summary                 |
           -------------------------------------------------

      molecular mass/u    :      186.2103137
   center of mass at/Å    :       -0.0050634      -0.0396048       0.0256205
  moments of inertia/u·Å² :        0.2995166E+03   0.1181056E+04   0.1460216E+04
rotational constants/cm⁻¹ :        0.5628280E-01   0.1427336E-01   0.1154462E-01

 * 23 selected distances

     #   Z          #   Z                                           value/Å
     1   7 N        2   6 C                                       1.3540423
     3   6 C        4   6 C                                       1.3958705
     2   6 C        5   6 C                                       1.3840538
     3   6 C        6   6 C                                       1.3996415
     1   7 N        7   1 H                                       1.0230621
     5   6 C        8   6 C                                       1.4392910 (max)
     9   7 N       10   6 C                                       1.3661339
     8   6 C       11   6 C                                       1.3481919
     9   7 N       11   6 C                                       1.3814269
     6   6 C       12   6 C                                       1.3812534
     4   6 C       13   6 C                                       1.3819674
    12   6 C       14   6 C                                       1.3846247
    13   6 C       14   6 C                                       1.3844464
     6   6 C       15   1 H                                       1.0797309
     4   6 C       16   1 H                                       1.0762657
     9   7 N       17   1 H                                       1.0060249 (min)
    10   6 C       18   8 O                                       1.2331957
    12   6 C       19   1 H                                       1.0802568
    13   6 C       20   1 H                                       1.0802026
    14   6 C       21   1 H                                       1.0797101
     8   6 C       22   1 H                                       1.0705197
    11   6 C       23   1 H                                       1.0729361
     1   7 N       24   1 H                                       1.0061282

 * 5 distinct bonds (by element types)

   Z      Z             #   av. dist./Å        max./Å        min./Å
   1 H    6 C           7     1.0770888     1.0802568     1.0705197
   6 C    6 C           9     1.3888156     1.4392910     1.3481919
   1 H    7 N           3     1.0117384     1.0230621     1.0060249
   6 C    7 N           3     1.3672010     1.3814269     1.3540423
   6 C    8 O           1     1.2331957     1.2331957     1.2331957


optimized geometry written to: xtbopt.xyz


           -------------------------------------------------
          | TOTAL ENERGY              -38.549317913039 Eh   |
          | GRADIENT NORM               0.000378160206 Eh/α |
          | HOMO-LUMO GAP               1.931098405090 eV   |
           -------------------------------------------------
########################################################################
[WARNING] Runtime exception occurred
-1- restart_readRestart: Number of electron missmatch in restart file.
########################################################################

------------------------------------------------------------------------
 * finished run on 2023/11/18 at 08:43:13.226     
------------------------------------------------------------------------
 total:
 * wall-time:     0 d,  0 h,  0 min, 14.650 sec
 *  cpu-time:     0 d,  0 h, 11 min, 34.074 sec
 * ratio c/w:    47.376 speedup
 SCF:
 * wall-time:     0 d,  0 h,  0 min,  1.557 sec
 *  cpu-time:     0 d,  0 h,  1 min, 14.745 sec
 * ratio c/w:    48.002 speedup
 ANC optimizer:
 * wall-time:     0 d,  0 h,  0 min, 12.930 sec
 *  cpu-time:     0 d,  0 h, 10 min, 11.886 sec
 * ratio c/w:    47.323 speedup

