      -----------------------------------------------------------      
     |                   =====================                   |     
     |                           x T B                           |     
     |                   =====================                   |     
     |                         S. Grimme                         |     
     |          Mulliken Center for Theoretical Chemistry        |     
     |                    University of Bonn                     |     
      -----------------------------------------------------------      

   * xtb version 6.5.0 (97a52f5) compiled by 'conda@d2599ee0d4f4' on 2022-05-15

   xtb is free software: you can redistribute it and/or modify it under
   the terms of the GNU Lesser General Public License as published by
   the Free Software Foundation, either version 3 of the License, or
   (at your option) any later version.
   
   xtb is distributed in the hope that it will be useful,
   but WITHOUT ANY WARRANTY; without even the implied warranty of
   MERCHANTABILITY or FITNESS FOR A PARTICULAR PURPOSE.  See the
   GNU Lesser General Public License for more details.
   
   Cite this work as:
   * C. Bannwarth, E. Caldeweyher, S. Ehlert, A. Hansen, P. Pracht,
     J. Seibert, S. Spicher, S. Grimme, WIREs Comput. Mol. Sci., 2020, 11,
     e01493. DOI: 10.1002/wcms.1493
   
   for GFN2-xTB:
   * C. Bannwarth, S. Ehlert and S. Grimme., J. Chem. Theory Comput., 2019,
     15, 1652-1671. DOI: 10.1021/acs.jctc.8b01176
   for GFN1-xTB:
   * S. Grimme, C. Bannwarth, P. Shushkov, J. Chem. Theory Comput., 2017,
     13, 1989-2009. DOI: 10.1021/acs.jctc.7b00118
   for GFN0-xTB:
   * P. Pracht, E. Caldeweyher, S. Ehlert, S. Grimme, ChemRxiv, 2019, preprint.
     DOI: 10.26434/chemrxiv.8326202.v1
   for GFN-FF:
   * S. Spicher and S. Grimme, Angew. Chem. Int. Ed., 2020, 59, 15665-15673.
     DOI: 10.1002/anie.202004239
   
   for ALPB and GBSA implicit solvation:
   * S. Ehlert, M. Stahn, S. Spicher, S. Grimme, J. Chem. Theory Comput.,
     2021, 17, 4250-4261. DOI: 10.1021/acs.jctc.1c00471
   
   for DFT-D4:
   * E. Caldeweyher, C. Bannwarth and S. Grimme, J. Chem. Phys., 2017,
     147, 034112. DOI: 10.1063/1.4993215
   * E. Caldeweyher, S. Ehlert, A. Hansen, H. Neugebauer, S. Spicher,
     C. Bannwarth and S. Grimme, J. Chem. Phys., 2019, 150, 154122.
     DOI: 10.1063/1.5090222
   * E. Caldeweyher, J.-M. Mewes, S. Ehlert and S. Grimme, Phys. Chem. Chem. Phys.
     2020, 22, 8499-8512. DOI: 10.1039/D0CP00502A
   
   for sTDA-xTB:
   * S. Grimme and C. Bannwarth, J. Chem. Phys., 2016, 145, 054103.
     DOI: 10.1063/1.4959605
   
   in the mass-spec context:
   * V. Asgeirsson, C. Bauer and S. Grimme, Chem. Sci., 2017, 8, 4879.
     DOI: 10.1039/c7sc00601b
   * J. Koopman and S. Grimme, ACS Omega 2019, 4, 12, 15120-15133.
     DOI: 10.1021/acsomega.9b02011
   
   for metadynamics refer to:
   * S. Grimme, J. Chem. Theory Comput., 2019, 155, 2847-2862
     DOI: 10.1021/acs.jctc.9b00143
   
   for SPH calculations refer to:
   * S. Spicher and S. Grimme, J. Chem. Theory Comput., 2021, 17, 1701-1714
     DOI: 10.1021/acs.jctc.0c01306
   
   with help from (in alphabetical order)
   P. Atkinson, C. Bannwarth, F. Bohle, G. Brandenburg, E. Caldeweyher
   M. Checinski, S. Dohm, S. Ehlert, S. Ehrlich, I. Gerasimov, C. Hölzer
   A. Katbashev, J. Koopman, C. Lavigne, S. Lehtola, F. März, M. Müller,
   F. Musil, H. Neugebauer, J. Pisarek, C. Plett, P. Pracht, F. Pultar,
   J. Seibert, P. Shushkov, S. Spicher, M. Stahn, M. Steiner, T. Strunk,
   J. Stückrath, T. Rose, and J. Unsleber
   
 * started run on 2023/11/18 at 08:43:57.955     

           -------------------------------------------------
          |                Calculation Setup                |
           -------------------------------------------------

          program call               : /home/liuchw/anaconda3/envs/xtbenv/bin/xtb --gfn 2 --chrg 0 --uhf 0 7_11_Index_0-opt-2-3-103_preQMOPTprefit_xyzformat.xyz --opt --input xtb-opt-2-3-103_constr.txt
          hostname                   : node165.bme.utexas.edu
          coordinate file            : 7_11_Index_0-opt-2-3-103_preQMOPTprefit_xyzformat.xyz
          omp threads                :                    64

   ID    Z sym.   atoms
    1    7 N      1, 9
    2    6 C      2-6, 8, 10-14
    3    1 H      7, 15-17, 19-24
    4    8 O      18
constraining angle 1 2 3 4 to  102.9589834°, actual value:  102.9589834°
constraining angle 24 1 2 3 to   27.9906077°, actual value:   27.9906077°
constraining angle 24 1 2 5 to  204.0046101°, actual value: -155.9953899°
constraining angle 7 1 2 3 to  172.9999053°, actual value:  172.9999053°
constraining angle 7 1 2 5 to  349.0139077°, actual value:  -10.9860923°
constraining angle 1 2 5 8 to  187.9968620°, actual value: -172.0031380°

           -------------------------------------------------
          |                 G F N 2 - x T B                 |
           -------------------------------------------------

        Reference                      10.1021/acs.jctc.8b01176
      * Hamiltonian:
        H0-scaling (s, p, d)           1.850000    2.230000    2.230000
        zeta-weighting                 0.500000
      * Dispersion:
        s8                             2.700000
        a1                             0.520000
        a2                             5.000000
        s9                             5.000000
      * Repulsion:
        kExp                           1.500000    1.000000
        rExp                           1.000000
      * Coulomb:
        alpha                          2.000000
        third order                    shell-resolved
        anisotropic                    true
        a3                             3.000000
        a5                             4.000000
        cn-shift                       1.200000
        cn-exp                         4.000000
        max-rad                        5.000000

q/qsh data taken from xtbrestart
CAMM data taken from xtbrestart

          ...................................................
          :                      SETUP                      :
          :.................................................:
          :  # basis functions                  66          :
          :  # atomic orbitals                  66          :
          :  # shells                           38          :
          :  # electrons                        70          :
          :  max. iterations                   250          :
          :  Hamiltonian                  GFN2-xTB          :
          :  restarted?                       true          :
          :  GBSA solvation                  false          :
          :  PC potential                    false          :
          :  electronic temp.          300.0000000     K    :
          :  accuracy                    1.0000000          :
          :  -> integral cutoff          0.2500000E+02      :
          :  -> integral neglect         0.1000000E-07      :
          :  -> SCF convergence          0.1000000E-05 Eh   :
          :  -> wf. convergence          0.1000000E-03 e    :
          :  Broyden damping             0.4000000          :
          ...................................................

 iter      E             dE          RMSdq      gap      omega  full diag
   1    -39.1015901 -0.391016E+02  0.180E+00    2.26       0.0  T
   2    -39.1019348 -0.344728E-03  0.106E+00    2.29       1.0  T
   3    -39.1013493  0.585467E-03  0.168E-01    2.28       1.0  T
   4    -39.1020280 -0.678693E-03  0.398E-02    2.29       1.0  T
   5    -39.1020564 -0.283314E-04  0.179E-02    2.29       1.1  T
   6    -39.1020581 -0.172154E-05  0.942E-03    2.29       2.2  T
   7    -39.1020589 -0.799723E-06  0.307E-03    2.29       6.6  T
   8    -39.1020591 -0.211067E-06  0.971E-04    2.29      21.0  T
   9    -39.1020591 -0.689818E-08  0.386E-04    2.29      52.8  T

   *** convergence criteria satisfied after 9 iterations ***

         #    Occupation            Energy/Eh            Energy/eV
      -------------------------------------------------------------
         1        2.0000           -0.6709944             -18.2587
       ...           ...                  ...                  ...
        29        2.0000           -0.4369480             -11.8900
        30        2.0000           -0.4319420             -11.7537
        31        2.0000           -0.4123760             -11.2213
        32        2.0000           -0.4082528             -11.1091
        33        2.0000           -0.3967731             -10.7967
        34        2.0000           -0.3757475             -10.2246
        35        2.0000           -0.3479665              -9.4687 (HOMO)
        36                         -0.2637964              -7.1783 (LUMO)
        37                         -0.2384942              -6.4898
        38                         -0.2370323              -6.4500
        39                         -0.1736561              -4.7254
        40                         -0.1216332              -3.3098
       ...                                ...                  ...
        66                          0.6770515              18.4235
      -------------------------------------------------------------
                  HL-Gap            0.0841701 Eh            2.2904 eV
             Fermi-level           -0.3058815 Eh           -8.3235 eV

 SCC (total)                   0 d,  0 h,  0 min,  1.120 sec
 SCC setup                      ...        0 min,  0.005 sec (  0.455%)
 Dispersion                     ...        0 min,  0.021 sec (  1.831%)
 classical contributions        ...        0 min,  0.011 sec (  0.961%)
 integral evaluation            ...        0 min,  0.030 sec (  2.706%)
 iterations                     ...        0 min,  0.876 sec ( 78.176%)
 molecular gradient             ...        0 min,  0.141 sec ( 12.566%)
 printout                       ...        0 min,  0.037 sec (  3.290%)

         :::::::::::::::::::::::::::::::::::::::::::::::::::::
         ::                     SUMMARY                     ::
         :::::::::::::::::::::::::::::::::::::::::::::::::::::
         :: total energy             -38.541974805331 Eh    ::
         :: gradient norm              0.074974066706 Eh/a0 ::
         :: HOMO-LUMO gap              2.290386292996 eV    ::
         ::.................................................::
         :: SCC energy               -39.102059111254 Eh    ::
         :: -> isotropic ES            0.050553067687 Eh    ::
         :: -> anisotropic ES          0.001733428922 Eh    ::
         :: -> anisotropic XC          0.020425329495 Eh    ::
         :: -> dispersion             -0.023362328830 Eh    ::
         :: repulsion energy           0.559983520665 Eh    ::
         :: add. restraining           0.000000000000 Eh    ::
         :: total charge               0.000000000000 e     ::
         :::::::::::::::::::::::::::::::::::::::::::::::::::::

      ----------------------------------------------------------- 
     |                   =====================                   |
     |                        A N C O P T                        |
     |                   =====================                   |
     |               Approximate Normal Coordinate               |
     |                Rational Function Optimizer                |
      ----------------------------------------------------------- 

          ...................................................
          :                      SETUP                      :
          :.................................................:
          :   optimization level            normal          :
          :   max. optcycles                   200          :
          :   ANC micro-cycles                  20          :
          :   degrees of freedom                66          :
          :.................................................:
          :   RF solver                   davidson          :
          :   write xtbopt.log                true          :
          :   linear?                        false          :
          :   energy convergence         0.5000000E-05 Eh   :
          :   grad. convergence          0.1000000E-02 Eh/α :
          :   maximium RF displ.         1.0000000          :
          :   Hlow (freq-cutoff)         0.1000000E-01      :
          :   Hmax (freq-cutoff)         5.0000000          :
          :   S6 in model hess.         20.0000000          :
          ...................................................

generating ANC from model Hessian ...
Using Lindh-Hessian (1995)
 Shifting diagonal of input Hessian by    8.5759280016692550E-003
 Lowest  eigenvalues of input Hessian
    0.000000    0.000000    0.000000    0.000000    0.000000    0.000000
    0.010000    0.011014    0.012831    0.017223    0.017422    0.022393
    0.024328    0.028222    0.029752    0.030419    0.034342    0.039544
 Highest eigenvalues
    2.258580    2.689999    3.710780    6.489917    8.176236   21.809215


........................................................................
.............................. CYCLE    1 ..............................
........................................................................
   1    -39.1020591 -0.391021E+02  0.188E-04    2.29       0.0  T
   2    -39.1020591 -0.947793E-10  0.121E-04    2.29     169.4  T
   3    -39.1020591 -0.549676E-10  0.838E-05    2.29     243.7  T
     SCC iter.                  ...        0 min,  0.297 sec
     gradient                   ...        0 min,  0.150 sec
 * total energy  :   -38.5419748 Eh     change       -0.2189502E-08 Eh
   gradient norm :     0.0749739 Eh/α   predicted     0.0000000E+00 (-100.00%)
   displ. norm   :     0.2602526 α      lambda       -0.1225748E-01
   maximum displ.:     0.1199352 α      in ANC's #14, #29, #32, ...

........................................................................
.............................. CYCLE    2 ..............................
........................................................................
   1    -39.1637646 -0.391638E+02  0.210E-01    2.40       0.0  T
   2    -39.1639101 -0.145522E-03  0.126E-01    2.38       1.0  T
   3    -39.1639124 -0.223551E-05  0.700E-02    2.39       1.0  T
   4    -39.1639449 -0.325050E-04  0.158E-02    2.38       1.3  T
   5    -39.1639501 -0.522385E-05  0.486E-03    2.38       4.2  T
   6    -39.1639503 -0.168153E-06  0.215E-03    2.38       9.5  T
   7    -39.1639503 -0.145440E-07  0.846E-04    2.38      24.1  T
   8    -39.1639503 -0.597893E-09  0.549E-04    2.38      37.2  T
     SCC iter.                  ...        0 min,  0.939 sec
     gradient                   ...        0 min,  0.165 sec
 * total energy  :   -38.5496814 Eh     change       -0.7706570E-02 Eh
   gradient norm :     0.0336883 Eh/α   predicted    -0.6545515E-02 ( -15.07%)
   displ. norm   :     0.1643008 α      lambda       -0.1649613E-02
   maximum displ.:     0.0803703 α      in ANC's #4, #7, #14, ...

........................................................................
.............................. CYCLE    3 ..............................
........................................................................
   1    -39.1848984 -0.391849E+02  0.914E-02    2.43       0.0  T
   2    -39.1849188 -0.203398E-04  0.548E-02    2.42       1.0  T
   3    -39.1849139  0.485303E-05  0.316E-02    2.43       1.0  T
   4    -39.1849242 -0.103098E-04  0.997E-03    2.42       2.0  T
   5    -39.1849266 -0.240124E-05  0.265E-03    2.42       7.7  T
   6    -39.1849267 -0.998060E-07  0.134E-03    2.42      15.2  T
   7    -39.1849267 -0.164277E-07  0.482E-04    2.42      42.3  T
   8    -39.1849267 -0.210238E-08  0.167E-04    2.42     122.5  T
     SCC iter.                  ...        0 min,  0.955 sec
     gradient                   ...        0 min,  0.149 sec
 * total energy  :   -38.5500802 Eh     change       -0.3987944E-03 Eh
   gradient norm :     0.1343061 Eh/α   predicted    -0.8573859E-03 ( 114.99%)
   displ. norm   :     0.1518755 α      lambda       -0.1685102E-02
   maximum displ.:     0.0829160 α      in ANC's #4, #7, #3, ...

........................................................................
.............................. CYCLE    4 ..............................
........................................................................
   1    -39.1971837 -0.391972E+02  0.755E-02    2.45       0.0  T
   2    -39.1971915 -0.778930E-05  0.461E-02    2.44       1.0  T
   3    -39.1971823  0.926883E-05  0.292E-02    2.45       1.0  T
   4    -39.1971967 -0.144193E-04  0.707E-03    2.44       2.9  T
   5    -39.1971978 -0.112827E-05  0.172E-03    2.44      11.8  T
   6    -39.1971979 -0.372152E-07  0.869E-04    2.44      23.5  T
   7    -39.1971979 -0.395274E-08  0.293E-04    2.44      69.7  T
     SCC iter.                  ...        0 min,  0.775 sec
     gradient                   ...        0 min,  0.164 sec
 * total energy  :   -38.5500315 Eh     change        0.4865145E-04 Eh
   gradient norm :     0.1228158 Eh/α   predicted    -0.8621154E-03 (*******%)
   displ. norm   :     0.0738703 α      lambda       -0.1195148E-02
   maximum displ.:     0.0295987 α      in ANC's #14, #12, #29, ...

........................................................................
.............................. CYCLE    5 ..............................
........................................................................
   1    -39.1832383 -0.391832E+02  0.538E-02    2.41       0.0  T
   2    -39.1832479 -0.955179E-05  0.328E-02    2.42       1.0  T
   3    -39.1832482 -0.294077E-06  0.202E-02    2.41       1.0  T
   4    -39.1832512 -0.296227E-05  0.650E-03    2.42       3.1  T
   5    -39.1832522 -0.104666E-05  0.176E-03    2.42      11.6  T
   6    -39.1832523 -0.489370E-07  0.816E-04    2.42      25.0  T
   7    -39.1832523 -0.578781E-08  0.305E-04    2.42      66.8  T
     SCC iter.                  ...        0 min,  0.833 sec
     gradient                   ...        0 min,  0.146 sec
 * total energy  :   -38.5506444 Eh     change       -0.6128948E-03 Eh
   gradient norm :     0.0085952 Eh/α   predicted    -0.6008359E-03 (  -1.97%)
   displ. norm   :     0.0535871 α      lambda       -0.4791528E-04
   maximum displ.:     0.0325952 α      in ANC's #3, #4, #2, ...

........................................................................
.............................. CYCLE    6 ..............................
........................................................................
   1    -39.1833617 -0.391834E+02  0.235E-02    2.42       0.0  T
   2    -39.1833619 -0.168363E-06  0.139E-02    2.41       1.5  T
   3    -39.1833615  0.407848E-06  0.433E-03    2.42       4.7  T
   4    -39.1833619 -0.434430E-06  0.119E-03    2.41      17.2  T
   5    -39.1833619 -0.327634E-07  0.280E-04    2.41      72.9  T
   6    -39.1833619 -0.295159E-09  0.151E-04    2.41     135.0  T
     SCC iter.                  ...        0 min,  0.683 sec
     gradient                   ...        0 min,  0.169 sec
 * total energy  :   -38.5506816 Eh     change       -0.3718551E-04 Eh
   gradient norm :     0.0026106 Eh/α   predicted    -0.2402685E-04 ( -35.39%)
   displ. norm   :     0.0976620 α      lambda       -0.5233903E-04
   maximum displ.:     0.0585903 α      in ANC's #3, #2, #4, ...

........................................................................
.............................. CYCLE    7 ..............................
........................................................................
   1    -39.1829931 -0.391830E+02  0.421E-02    2.41       0.0  T
   2    -39.1829935 -0.400510E-06  0.248E-02    2.41       1.0  T
   3    -39.1829924  0.104397E-05  0.690E-03    2.41       3.0  T
   4    -39.1829935 -0.112386E-05  0.178E-03    2.41      11.4  T
   5    -39.1829936 -0.685456E-07  0.476E-04    2.41      42.9  T
   6    -39.1829936 -0.921993E-09  0.275E-04    2.41      74.1  T
     SCC iter.                  ...        0 min,  0.648 sec
     gradient                   ...        0 min,  0.165 sec
 * total energy  :   -38.5507104 Eh     change       -0.2878949E-04 Eh
   gradient norm :     0.0032561 Eh/α   predicted    -0.2641909E-04 (  -8.23%)
   displ. norm   :     0.0212657 α      lambda       -0.4461201E-05
   maximum displ.:     0.0179547 α      in ANC's #2, #3, #12, ...

........................................................................
.............................. CYCLE    8 ..............................
........................................................................
   1    -39.1831951 -0.391832E+02  0.909E-03    2.41       0.0  T
   2    -39.1831951 -0.126472E-07  0.531E-03    2.41       3.8  T
   3    -39.1831951  0.237862E-07  0.104E-03    2.41      19.7  T
   4    -39.1831951 -0.268711E-07  0.289E-04    2.41      70.6  T
   5    -39.1831951 -0.190369E-08  0.111E-04    2.41     183.7  T
     SCC iter.                  ...        0 min,  0.600 sec
     gradient                   ...        0 min,  0.154 sec
 * total energy  :   -38.5507138 Eh     change       -0.3406996E-05 Eh
   gradient norm :     0.0011861 Eh/α   predicted    -0.2234011E-05 ( -34.43%)
   displ. norm   :     0.0294273 α      lambda       -0.3589511E-05
   maximum displ.:     0.0262526 α      in ANC's #2, #1, #12, ...

........................................................................
.............................. CYCLE    9 ..............................
........................................................................
   1    -39.1835748 -0.391836E+02  0.136E-02    2.41       0.0  T
   2    -39.1835748 -0.207502E-07  0.794E-03    2.41       2.6  T
   3    -39.1835745  0.333785E-06  0.369E-03    2.41       5.5  T
   4    -39.1835749 -0.370789E-06  0.405E-04    2.41      50.5  T
   5    -39.1835749 -0.313009E-08  0.153E-04    2.41     133.5  T
     SCC iter.                  ...        0 min,  0.615 sec
     gradient                   ...        0 min,  0.142 sec
 * total energy  :   -38.5507170 Eh     change       -0.3190411E-05 Eh
   gradient norm :     0.0017453 Eh/α   predicted    -0.1799394E-05 ( -43.60%)
   displ. norm   :     0.0159062 α      lambda       -0.1228501E-05
   maximum displ.:     0.0141913 α      in ANC's #2, #1, #3, ...

........................................................................
.............................. CYCLE   10 ..............................
........................................................................
   1    -39.1834584 -0.391835E+02  0.662E-03    2.41       0.0  T
   2    -39.1834584 -0.677099E-08  0.390E-03    2.41       5.2  T
   3    -39.1834583  0.105328E-06  0.220E-03    2.41       9.3  T
   4    -39.1834584 -0.119773E-06  0.251E-04    2.41      81.2  T
   5    -39.1834584 -0.150032E-08  0.815E-05    2.41     250.3  T
     SCC iter.                  ...        0 min,  0.551 sec
     gradient                   ...        0 min,  0.137 sec
 * total energy  :   -38.5507183 Eh     change       -0.1290030E-05 Eh
   gradient norm :     0.0013029 Eh/α   predicted    -0.6155443E-06 ( -52.28%)
   displ. norm   :     0.0145425 α      lambda       -0.9690663E-06
   maximum displ.:     0.0122244 α      in ANC's #2, #1, #3, ...

........................................................................
.............................. CYCLE   11 ..............................
........................................................................
   1    -39.1833517 -0.391834E+02  0.612E-03    2.41       0.0  T
   2    -39.1833517 -0.567287E-08  0.360E-03    2.41       5.7  T
   3    -39.1833517  0.351557E-07  0.123E-03    2.41      16.6  T
   4    -39.1833517 -0.381758E-07  0.223E-04    2.41      91.4  T
   5    -39.1833517 -0.123288E-08  0.672E-05    2.41     304.0  T
     SCC iter.                  ...        0 min,  0.456 sec
     gradient                   ...        0 min,  0.143 sec
 * total energy  :   -38.5507193 Eh     change       -0.1047095E-05 Eh
   gradient norm :     0.0005772 Eh/α   predicted    -0.4977976E-06 ( -52.46%)
   displ. norm   :     0.0126587 α      lambda       -0.5012130E-06
   maximum displ.:     0.0105283 α      in ANC's #2, #1, #3, ...

   *** GEOMETRY OPTIMIZATION CONVERGED AFTER 11 ITERATIONS ***

------------------------------------------------------------------------
 total energy gain   :        -0.0087445 Eh       -5.4873 kcal/mol
 total RMSD          :         0.1210454 a0        0.0641 Å
 total power (kW/mol):        -2.0871575 (step)   -2.1310 (real)
------------------------------------------------------------------------

 ANCopt (total)                0 d,  0 h,  0 min, 10.774 sec
 optimizer setup                ...        0 min,  0.000 sec (  0.002%)
 model hessian                  ...        0 min,  0.013 sec (  0.124%)
 ANC generation                 ...        0 min,  0.020 sec (  0.186%)
 coordinate transformation      ...        0 min,  0.000 sec (  0.003%)
 single point calculation       ...        0 min, 10.374 sec ( 96.286%)
 optimization log               ...        0 min,  0.002 sec (  0.021%)
 hessian update                 ...        0 min,  0.350 sec (  3.253%)
 rational function              ...        0 min,  0.012 sec (  0.113%)

================
 final structure:
================
24
 xtb: 6.5.0 (97a52f5)
N            1.55302679340985       -0.57488250434811        1.40909904266040
C            0.56806787697699       -0.21945319123732        0.55552431908738
C           -0.27563330720656       -1.29711406467832       -0.00748376874879
C           -1.55679997633561       -1.51540243939564        0.48570933873197
C            0.31866086405801        1.10082183292664        0.29687118160299
C            0.22509442625312       -2.12816990520060       -1.00320848278964
H            2.16753379891968        0.19611964722768        1.67311024533748
C           -0.74971288531495        1.72609443135800       -0.43817771369036
N            0.63674199511291        3.32894627699572        0.27941685755305
C            1.19088621887089        2.17585081159715        0.76354306932237
C           -0.52509801067260        3.05350248753121       -0.42508875365157
C           -0.55516209488728       -3.14938228618622       -1.51570252231445
C           -2.33158510035272       -2.54131737546889       -0.02490368319192
C           -1.83356996069510       -3.35806322938014       -1.02662806530542
H            1.22172871385992       -1.96137164785933       -1.38730211997140
H           -1.93912497728923       -0.87457215605571        1.26605159525568
H            1.01225145887166        4.24819435776992        0.44131442299853
O            2.22240394879673        2.10198799388115        1.42921544879811
H           -0.16304617371831       -3.78502563991642       -2.29598835704968
H           -3.32656618395800       -2.70586591766555        0.36167776431469
H           -2.44072029420725       -4.15727830348079       -1.42513258872570
H           -1.56456978129799        1.21051600451174       -0.90630798083216
H           -1.09648847916786        3.85257689832516       -0.85705393433457
H            1.96606410997382       -1.48930308125145        1.32228969494300

 Bond Distances (Angstroems)
 ---------------------------
N1-C2=1.3509         N1-H7=1.0207         N1-H24=1.0071        C2-N1=1.3509         C2-C3=1.4799         C2-C5=1.3683         
C3-C2=1.4799         C3-C4=1.3901         C3-C6=1.3903         C4-C3=1.3901         C4-C13=1.3833        C4-H16=1.0797        
C5-C2=1.3683         C5-C8=1.4397         C5-C10=1.4609        C6-C3=1.3903         C6-C12=1.3836        C6-H15=1.0810        
H7-N1=1.0207         C8-C5=1.4397         C8-C11=1.3463        C8-H22=1.0719        N9-C10=1.3679        N9-C11=1.3864        
N9-H17=1.0061        C10-C5=1.4609        C10-N9=1.3679        C10-O18=1.2299       C11-C8=1.3463        C11-N9=1.3864        
C11-H23=1.0731       C12-C6=1.3836        C12-C14=1.3846       C12-H19=1.0801       C13-C4=1.3833        C13-C14=1.3851       
C13-H20=1.0801       C14-C12=1.3846       C14-C13=1.3851       C14-H21=1.0799       H15-C6=1.0810        H16-C4=1.0797        
H17-N9=1.0061        O18-C10=1.2299       H19-C12=1.0801       H20-C13=1.0801       H21-C14=1.0799       H22-C8=1.0719        
H23-C11=1.0731       H24-N1=1.0071        
 C  H  Rav=1.0780 sigma=0.0035  Rmin=1.0719  Rmax=1.0810     7
 C  C  Rav=1.4011 sigma=0.0390  Rmin=1.3463  Rmax=1.4799    11
 N  H  Rav=1.0113 sigma=0.0066  Rmin=1.0061  Rmax=1.0207     3
 N  C  Rav=1.3684 sigma=0.0145  Rmin=1.3509  Rmax=1.3864     3
 O  C  Rav=1.2299 sigma=0.0000  Rmin=1.2299  Rmax=1.2299     1

 selected bond angles (degree)
 --------------------
H7-N1-C2=113.81                H24-N1-C2=118.91               H24-N1-H7=117.47               C3-C2-N1=117.67                
C5-C2-N1=120.41                C5-C2-C3=121.79                C4-C3-C2=120.32                C6-C3-C2=120.16                
C6-C3-C4=119.48                C13-C4-C3=120.11               H16-C4-C3=119.31               H16-C4-C13=120.57              
C8-C5-C2=130.61                C10-C5-C2=122.74               C10-C5-C8=106.65               C12-C6-C3=120.22               
H15-C6-C3=119.62               H15-C6-C12=120.14              C11-C8-C5=107.42               H22-C8-C5=125.33               
H22-C8-C11=127.25              C11-N9-C10=110.60              H17-N9-C10=124.20              H17-N9-C11=125.18              
N9-C10-C5=105.39               O18-C10-C5=129.01              O18-C10-N9=125.59              

 selected dihedral angles (degree)
 ---------------------------------
C3-C2-N1-H7=173.01            C3-C2-N1-H24= 27.97           C5-C2-N1-H7=349.01            C5-C2-N1-H24=203.97           
C4-C3-C2-N1=103.00            C4-C3-C2-C5=287.07            C6-C3-C2-N1=285.19            C6-C3-C2-C5=109.26            
C13-C4-C3-C2=181.32           C13-C4-C3-C6=359.14           H16-C4-C3-C2=  1.56           H16-C4-C3-C6=179.38           
C8-C5-C2-N1=187.96            C8-C5-C2-C3=  3.79            C10-C5-C2-N1=  8.58           C10-C5-C2-C3=184.41           
C12-C6-C3-C2=178.98           C12-C6-C3-C4=  1.15           H15-C6-C3-C2=357.92           H15-C6-C3-C4=180.09           
C11-C8-C5-C2=181.25           C11-C8-C5-C10=  0.70          H22-C8-C5-C2=  1.04           H22-C8-C5-C10=180.49          
N9-C10-C5-C2=178.30           N9-C10-C5-C8=358.79           O18-C10-C5-C2=359.48          O18-C10-C5-C8=179.97          
C5-C10-N9-C11=  1.30          C5-C10-N9-H17=179.56          O18-C10-N9-C11=180.17         O18-C10-N9-H17=358.43         
           -------------------------------------------------
          |                Final Singlepoint                |
           -------------------------------------------------

          ...................................................
          :                      SETUP                      :
          :.................................................:
          :  # basis functions                  66          :
          :  # atomic orbitals                  66          :
          :  # shells                           38          :
          :  # electrons                        70          :
          :  max. iterations                   250          :
          :  Hamiltonian                  GFN2-xTB          :
          :  restarted?                      false          :
          :  GBSA solvation                  false          :
          :  PC potential                    false          :
          :  electronic temp.          300.0000000     K    :
          :  accuracy                    1.0000000          :
          :  -> integral cutoff          0.2500000E+02      :
          :  -> integral neglect         0.1000000E-07      :
          :  -> SCF convergence          0.1000000E-05 Eh   :
          :  -> wf. convergence          0.1000000E-03 e    :
          :  Broyden damping             0.4000000          :
          ...................................................

 iter      E             dE          RMSdq      gap      omega  full diag
   1    -39.1833517 -0.391834E+02  0.385E-05    2.41       0.0  T
   2    -39.1833517 -0.357403E-11  0.250E-05    2.41     814.9  T
   3    -39.1833517 -0.206057E-11  0.167E-05    2.41    1223.4  T

   *** convergence criteria satisfied after 3 iterations ***

         #    Occupation            Energy/Eh            Energy/eV
      -------------------------------------------------------------
         1        2.0000           -0.6777999             -18.4439
       ...           ...                  ...                  ...
        29        2.0000           -0.4354977             -11.8505
        30        2.0000           -0.4316220             -11.7450
        31        2.0000           -0.4150773             -11.2948
        32        2.0000           -0.4123186             -11.2198
        33        2.0000           -0.3970883             -10.8053
        34        2.0000           -0.3760319             -10.2324
        35        2.0000           -0.3462608              -9.4222 (HOMO)
        36                         -0.2575945              -7.0095 (LUMO)
        37                         -0.2331445              -6.3442
        38                         -0.2304615              -6.2712
        39                         -0.1644497              -4.4749
        40                         -0.1097631              -2.9868
       ...                                ...                  ...
        66                          0.7447518              20.2657
      -------------------------------------------------------------
                  HL-Gap            0.0886664 Eh            2.4127 eV
             Fermi-level           -0.3019277 Eh           -8.2159 eV

 SCC (total)                   0 d,  0 h,  0 min,  0.562 sec
 SCC setup                      ...        0 min,  0.027 sec (  4.733%)
 Dispersion                     ...        0 min,  0.020 sec (  3.635%)
 classical contributions        ...        0 min,  0.023 sec (  4.147%)
 integral evaluation            ...        0 min,  0.030 sec (  5.354%)
 iterations                     ...        0 min,  0.287 sec ( 51.033%)
 molecular gradient             ...        0 min,  0.166 sec ( 29.530%)
 printout                       ...        0 min,  0.009 sec (  1.541%)

         :::::::::::::::::::::::::::::::::::::::::::::::::::::
         ::                     SUMMARY                     ::
         :::::::::::::::::::::::::::::::::::::::::::::::::::::
         :: total energy             -38.550719324743 Eh    ::
         :: gradient norm              0.000577055843 Eh/a0 ::
         :: HOMO-LUMO gap              2.412734824855 eV    ::
         ::.................................................::
         :: SCC energy               -39.183351742382 Eh    ::
         :: -> isotropic ES            0.049537964218 Eh    ::
         :: -> anisotropic ES          0.001414407472 Eh    ::
         :: -> anisotropic XC          0.018221498605 Eh    ::
         :: -> dispersion             -0.023776177740 Eh    ::
         :: repulsion energy           0.632532447690 Eh    ::
         :: add. restraining           0.000003929710 Eh    ::
         :: total charge              -0.000000000000 e     ::
         :::::::::::::::::::::::::::::::::::::::::::::::::::::

           -------------------------------------------------
          |                Property Printout                |
           -------------------------------------------------

    * Orbital Energies and Occupations

         #    Occupation            Energy/Eh            Energy/eV
      -------------------------------------------------------------
         1        2.0000           -0.6777999             -18.4439
       ...           ...                  ...                  ...
        23        2.0000           -0.4842156             -13.1762
        24        2.0000           -0.4758489             -12.9485
        25        2.0000           -0.4736125             -12.8877
        26        2.0000           -0.4652728             -12.6607
        27        2.0000           -0.4524981             -12.3131
        28        2.0000           -0.4504858             -12.2583
        29        2.0000           -0.4354977             -11.8505
        30        2.0000           -0.4316220             -11.7450
        31        2.0000           -0.4150773             -11.2948
        32        2.0000           -0.4123186             -11.2198
        33        2.0000           -0.3970883             -10.8053
        34        2.0000           -0.3760319             -10.2324
        35        2.0000           -0.3462608              -9.4222 (HOMO)
        36                         -0.2575945              -7.0095 (LUMO)
        37                         -0.2331445              -6.3442
        38                         -0.2304615              -6.2712
        39                         -0.1644497              -4.4749
        40                         -0.1097631              -2.9868
        41                         -0.1014180              -2.7597
        42                          0.0317046               0.8627
        43                          0.0435404               1.1848
        44                          0.0865924               2.3563
        45                          0.1173068               3.1921
        46                          0.1342037               3.6519
       ...                                ...                  ...
        66                          0.7447518              20.2657
      -------------------------------------------------------------
                  HL-Gap            0.0886664 Eh            2.4127 eV
             Fermi-level           -0.3019277 Eh           -8.2159 eV

     #   Z          covCN         q      C6AA      α(0)
     1   7 N        2.645    -0.241    26.299     7.616
     2   6 C        2.885     0.094    25.914     8.346
     3   6 C        2.979     0.007    27.852     8.657
     4   6 C        2.924    -0.028    28.700     8.785
     5   6 C        3.093    -0.075    29.747     8.939
     6   6 C        2.924    -0.032    28.803     8.801
     7   1 H        0.860     0.226     0.981     1.552
     8   6 C        2.980    -0.070    29.736     8.945
     9   7 N        2.776    -0.148    24.202     7.307
    10   6 C        2.869     0.257    22.678     7.806
    11   6 C        2.989     0.001    27.988     8.678
    12   6 C        2.919    -0.028    28.705     8.786
    13   6 C        2.919    -0.027    28.680     8.782
    14   6 C        2.920    -0.029    28.720     8.788
    15   1 H        0.926     0.031     2.566     2.505
    16   1 H        0.926     0.040     2.445     2.445
    17   1 H        0.860     0.168     1.287     1.777
    18   8 O        0.857    -0.488    23.527     6.503
    19   1 H        0.926     0.035     2.515     2.480
    20   1 H        0.926     0.037     2.494     2.470
    21   1 H        0.926     0.035     2.517     2.481
    22   1 H        0.926     0.029     2.598     2.521
    23   1 H        0.926     0.033     2.549     2.497
    24   1 H        0.860     0.172     1.258     1.757

 Mol. C6AA /au·bohr⁶  :       7616.864343
 Mol. C8AA /au·bohr⁸  :     185764.498563
 Mol. α(0) /au        :        139.223746


Wiberg/Mayer (AO) data.
largest (>0.10) Wiberg bond orders for each atom

 ---------------------------------------------------------------------------
     #   Z sym  total        # sym  WBO       # sym  WBO       # sym  WBO
 ---------------------------------------------------------------------------
     1   7 N    3.391 --     2 C    1.285    24 H    0.947     7 H    0.896
     2   6 C    3.969 --     5 C    1.470     1 N    1.285     3 C    1.007
     3   6 C    3.989 --     6 C    1.404     4 C    1.399     2 C    1.007
                            14 C    0.110
     4   6 C    3.989 --    13 C    1.446     3 C    1.399    16 H    0.970
                            12 C    0.112
     5   6 C    3.968 --     2 C    1.470     8 C    1.154    10 C    1.071
     6   6 C    3.992 --    12 C    1.443     3 C    1.404    15 H    0.970
                            13 C    0.111
     7   1 H    0.948 --     1 N    0.896
     8   6 C    3.980 --    11 C    1.700     5 C    1.154    22 H    0.972
     9   7 N    3.510 --    10 C    1.177    11 C    1.125    17 H    0.943
                            18 O    0.144
    10   6 C    3.950 --    18 O    1.573     9 N    1.177     5 C    1.071
    11   6 C    3.950 --     8 C    1.700     9 N    1.125    23 H    0.970
    12   6 C    3.992 --     6 C    1.443    14 C    1.439    19 H    0.970
                             4 C    0.112
    13   6 C    3.991 --     4 C    1.446    14 C    1.437    20 H    0.970
                             6 C    0.111
    14   6 C    3.990 --    12 C    1.439    13 C    1.437    21 H    0.971
                             3 C    0.110
    15   1 H    0.999 --     6 C    0.970
    16   1 H    0.998 --     4 C    0.970
    17   1 H    0.971 --     9 N    0.943
    18   8 O    1.969 --    10 C    1.573     9 N    0.144
    19   1 H    0.998 --    12 C    0.970
    20   1 H    0.998 --    13 C    0.970
    21   1 H    0.998 --    14 C    0.971
    22   1 H    0.999 --     8 C    0.972
    23   1 H    0.998 --    11 C    0.970
    24   1 H    0.969 --     1 N    0.947
 ---------------------------------------------------------------------------

Topologies differ in total number of bonds
Writing topology from bond orders to xtbtopo.mol

molecular dipole:
                 x           y           z       tot (Debye)
 q only:       -0.632      -0.941      -0.405
   full:       -0.604      -0.752      -0.602       2.889
molecular quadrupole (traceless):
                xx          xy          yy          xz          yz          zz
 q only:       -3.379      -6.854       6.006      -3.038      -4.410      -2.627
  q+dip:       -4.080      -6.002      11.372      -4.908      -2.185      -7.292
   full:       -4.509      -7.078      10.128      -4.751      -3.727      -5.619

           -------------------------------------------------
          |                Geometry Summary                 |
           -------------------------------------------------

      molecular mass/u    :      186.2103137
   center of mass at/Å    :       -0.0232262      -0.0386721       0.0891239
  moments of inertia/u·Å² :        0.3108160E+03   0.1204606E+04   0.1365539E+04
rotational constants/cm⁻¹ :        0.5423669E-01   0.1399432E-01   0.1234504E-01

 * 23 selected distances

     #   Z          #   Z                                           value/Å
     1   7 N        2   6 C                                       1.3509494
     3   6 C        4   6 C                                       1.3900639
     2   6 C        5   6 C                                       1.3682952
     3   6 C        6   6 C                                       1.3902698
     1   7 N        7   1 H                                       1.0206690
     5   6 C        8   6 C                                       1.4396824 (max)
     9   7 N       10   6 C                                       1.3678755
     8   6 C       11   6 C                                       1.3463416
     9   7 N       11   6 C                                       1.3863874
     6   6 C       12   6 C                                       1.3835915
     4   6 C       13   6 C                                       1.3833002
    12   6 C       14   6 C                                       1.3845825
    13   6 C       14   6 C                                       1.3851155
     6   6 C       15   1 H                                       1.0810318
     4   6 C       16   1 H                                       1.0797083
     9   7 N       17   1 H                                       1.0060991 (min)
    10   6 C       18   8 O                                       1.2298799
    12   6 C       19   1 H                                       1.0801128
    13   6 C       20   1 H                                       1.0800505
    14   6 C       21   1 H                                       1.0798992
     8   6 C       22   1 H                                       1.0718951
    11   6 C       23   1 H                                       1.0731268
     1   7 N       24   1 H                                       1.0071251

 * 5 distinct bonds (by element types)

   Z      Z             #   av. dist./Å        max./Å        min./Å
   1 H    6 C           7     1.0779749     1.0810318     1.0718951
   6 C    6 C           9     1.3856936     1.4396824     1.3463416
   1 H    7 N           3     1.0112977     1.0206690     1.0060991
   6 C    7 N           3     1.3684041     1.3863874     1.3509494
   6 C    8 O           1     1.2298799     1.2298799     1.2298799


optimized geometry written to: xtbopt.xyz


           -------------------------------------------------
          | TOTAL ENERGY              -38.550719324743 Eh   |
          | GRADIENT NORM               0.000577055843 Eh/α |
          | HOMO-LUMO GAP               2.412734824855 eV   |
           -------------------------------------------------
########################################################################
[WARNING] Runtime exception occurred
-1- restart_readRestart: Number of electron missmatch in restart file.
########################################################################

------------------------------------------------------------------------
 * finished run on 2023/11/18 at 08:44:10.552     
------------------------------------------------------------------------
 total:
 * wall-time:     0 d,  0 h,  0 min, 12.597 sec
 *  cpu-time:     0 d,  0 h, 10 min,  9.146 sec
 * ratio c/w:    48.357 speedup
 SCF:
 * wall-time:     0 d,  0 h,  0 min,  1.121 sec
 *  cpu-time:     0 d,  0 h,  0 min, 57.892 sec
 * ratio c/w:    51.660 speedup
 ANC optimizer:
 * wall-time:     0 d,  0 h,  0 min, 11.339 sec
 *  cpu-time:     0 d,  0 h,  9 min,  4.262 sec
 * ratio c/w:    48.001 speedup

