Generated by Psi4
        SP                        DF-MP2                      6-311G**
Number of atoms                            I                5
Charge                                     I                0
Multiplicity                               I                1
Number of electrons                        I               26
Number of alpha electrons                  I               13
Number of beta electrons                   I               13
Number of basis functions                  I               62
Number of independent functions            I               62
Atomic numbers                             I   N=           5
          17           6           1           1           1
Nuclear charges                            R   N=           5
  1.70000000e+01  6.00000000e+00  1.00000000e+00  1.00000000e+00  1.00000000e+00
Current cartesian coordinates              R   N=          15
  1.04437132e+00  9.62220779e-02 -4.00139686e-02 -2.29735898e+00 -2.11695001e-01
  8.80126598e-02 -2.92451502e+00 -1.34084705e+00 -1.51190813e+00 -2.81474339e+00
 -1.13774601e+00  1.84952401e+00 -3.14339364e+00  1.66055854e+00  2.81092382e-03
Integer atomic weights                     I   N=           5
          34          12           1           1           1
Real atomic weights                        R   N=           5
  3.49688527e+01  1.20000000e+01  1.00782503e+00  1.00782503e+00  1.00782503e+00
Number of primitive shells                 I               59
Number of contracted shells                I               32
Pure/Cartesian d shells                    I                0
Pure/Cartesian f shells                    I                0
Highest angular momentum                   I                2
Largest degree of contraction              I                6
Shell types                                I   N=          32
           0           0           0           0           0           0
           1           1           1           1           1          -2
           0           0           1           0           1           0
           1          -2           0           0           0           1
           0           0           0           1           0           0
           0           1
Number of primitives per shell             I   N=          32
           6           3           1           1           1           1
           5           2           1           1           1           1
           6           3           3           1           1           1
           1           1           3           1           1           1
           3           1           1           1           3           1
           1           1
Shell to atom map                          I   N=          32
           1           1           1           1           1           1
           1           1           1           1           1           1
           2           2           2           2           2           2
           2           2           3           3           3           3
           4           4           4           4           5           5
           5           5
Primitive exponents                        R   N=          59
  1.05819000e+05  1.58720000e+04  3.61965000e+03  1.03080000e+03  3.39908000e+02
  1.24538000e+02  1.24538000e+02  4.95135000e+01  2.08056000e+01  6.58346000e+00
  2.56468000e+00  5.59763000e-01  1.83273000e-01  5.89776000e+02  1.39849000e+02
  4.51413000e+01  1.68733000e+01  6.74110000e+00  6.74110000e+00  2.77152000e+00
  1.02387000e+00  3.81368000e-01  1.09437000e-01  7.50000000e-01  4.56324000e+03
  6.82024000e+02  1.54973000e+02  4.44553000e+01  1.30290000e+01  1.82773000e+00
  2.09642000e+01  4.80331000e+00  1.45933000e+00  2.09642000e+01  4.80331000e+00
  1.45933000e+00  4.83456000e-01  4.83456000e-01  1.45585000e-01  1.45585000e-01
  6.26000000e-01  3.38650000e+01  5.09479000e+00  1.15879000e+00  3.25840000e-01
  1.02741000e-01  7.50000000e-01  3.38650000e+01  5.09479000e+00  1.15879000e+00
  3.25840000e-01  1.02741000e-01  7.50000000e-01  3.38650000e+01  5.09479000e+00
  1.15879000e+00  3.25840000e-01  1.02741000e-01  7.50000000e-01
Contraction coefficients                   R   N=          59
  7.38000247e-04  5.71800191e-03  2.94950099e-02  1.17286039e-01  3.62949121e-01
  5.84149195e-01  1.34176973e-01  6.24249876e-01  2.91755942e-01  1.00000000e+00
  1.00000000e+00  1.00000000e+00  1.00000000e+00  2.39099969e-03  1.85039976e-02
  8.13769893e-02  2.21551971e-01  7.72568898e-01 -1.57224381e+00  9.92388882e-01
  1.00000000e+00  1.00000000e+00  1.00000000e+00  1.00000000e+00  1.96665025e-03
  1.52306019e-02  7.61269097e-02  2.60801033e-01  6.16462078e-01  2.21006028e-01
  1.14660081e-01  9.19999648e-01 -3.03068213e-03  4.02486927e-02  2.37593957e-01
  8.15853851e-01  1.00000000e+00  1.00000000e+00  1.00000000e+00  1.00000000e+00
  1.00000000e+00  2.54938145e-02  1.90373109e-01  8.52161486e-01  1.00000000e+00
  1.00000000e+00  1.00000000e+00  2.54938145e-02  1.90373109e-01  8.52161486e-01
  1.00000000e+00  1.00000000e+00  1.00000000e+00  2.54938145e-02  1.90373109e-01
  8.52161486e-01  1.00000000e+00  1.00000000e+00  1.00000000e+00
Coordinates of each shell                  R   N=          96
  1.04437132e+00  9.62220779e-02 -4.00139686e-02  1.04437132e+00  9.62220779e-02
 -4.00139686e-02  1.04437132e+00  9.62220779e-02 -4.00139686e-02  1.04437132e+00
  9.62220779e-02 -4.00139686e-02  1.04437132e+00  9.62220779e-02 -4.00139686e-02
  1.04437132e+00  9.62220779e-02 -4.00139686e-02  1.04437132e+00  9.62220779e-02
 -4.00139686e-02  1.04437132e+00  9.62220779e-02 -4.00139686e-02  1.04437132e+00
  9.62220779e-02 -4.00139686e-02  1.04437132e+00  9.62220779e-02 -4.00139686e-02
  1.04437132e+00  9.62220779e-02 -4.00139686e-02  1.04437132e+00  9.62220779e-02
 -4.00139686e-02 -2.29735898e+00 -2.11695001e-01  8.80126598e-02 -2.29735898e+00
 -2.11695001e-01  8.80126598e-02 -2.29735898e+00 -2.11695001e-01  8.80126598e-02
 -2.29735898e+00 -2.11695001e-01  8.80126598e-02 -2.29735898e+00 -2.11695001e-01
  8.80126598e-02 -2.29735898e+00 -2.11695001e-01  8.80126598e-02 -2.29735898e+00
 -2.11695001e-01  8.80126598e-02 -2.29735898e+00 -2.11695001e-01  8.80126598e-02
 -2.92451502e+00 -1.34084705e+00 -1.51190813e+00 -2.92451502e+00 -1.34084705e+00
 -1.51190813e+00 -2.92451502e+00 -1.34084705e+00 -1.51190813e+00 -2.92451502e+00
 -1.34084705e+00 -1.51190813e+00 -2.81474339e+00 -1.13774601e+00  1.84952401e+00
 -2.81474339e+00 -1.13774601e+00  1.84952401e+00 -2.81474339e+00 -1.13774601e+00
  1.84952401e+00 -2.81474339e+00 -1.13774601e+00  1.84952401e+00 -3.14339364e+00
  1.66055854e+00  2.81092382e-03 -3.14339364e+00  1.66055854e+00  2.81092382e-03
 -3.14339364e+00  1.66055854e+00  2.81092382e-03 -3.14339364e+00  1.66055854e+00
  2.81092382e-03
Total Energy                               R     -4.994262282583095e+02
Alpha Orbital Energies                     R   N=          62
  8.97446089e-09  4.71883315e-07  7.08274965e-07  7.08277346e-07  1.66074756e-06
  1.92658039e-05  2.31710034e-05  2.31740137e-05  3.84006704e-05  4.17101460e-05
  4.17137118e-05  4.43521016e-05  9.83506592e-05  9.83521121e-05  1.00754519e-04
  1.11494149e-04  1.18748688e-04  1.53059805e-04  1.53062144e-04  1.83440805e-04
  1.83444094e-04  1.94513499e-04  3.11553188e-04  3.11568702e-04  3.20865263e-04
  4.39045548e-04  4.39143734e-04  5.52524246e-04  5.52624134e-04  5.91907343e-04
  7.67564183e-04  1.32836935e-03  1.78529581e-03  1.78531348e-03  1.93216666e-03
  2.91968662e-03  3.26664367e-03  3.26670198e-03  4.70382956e-03  4.70385163e-03
  5.08730840e-03  5.13276625e-03  5.13277227e-03  6.42403884e-03  6.42409182e-03
  6.46505593e-03  8.44258273e-03  8.44421283e-03  1.59890109e-02  9.77775475e-01
  9.83982612e-01  9.83983389e-01  9.86089058e-01  9.86089433e-01  9.89409897e-01
  9.93490710e-01  1.00000000e+00  1.00000011e+00  1.00000047e+00  1.00000403e+00
  1.00001187e+00  1.00001187e+00
Alpha MO coefficients                      R   N=        3844
  1.54180031e+00 -1.91558462e+00  1.44221589e+00 -9.68745848e-01  3.99165939e-01
 -2.54253558e-01  2.97529566e-03  2.72365460e-04 -1.15486126e-04  2.78826750e-03
  2.55204287e-04 -1.08274198e-04 -1.77345236e-03 -1.61745677e-04  6.92604420e-05
  1.75031000e-03  1.59823102e-04 -6.80660258e-05  6.92015681e-02  6.37507705e-03
 -2.65163339e-03  1.66848177e-03  2.20572844e-04  2.02966093e-05 -2.84980134e-03
 -5.28951034e-04 -4.93335782e-05 -8.72023771e-04  1.26641228e-02  1.16559609e-03
 -4.85862635e-04 -1.98105969e-03 -3.39227493e-02 -3.11914258e-03  1.30376394e-03
  1.29030092e-01  7.12106708e-02  6.57092803e-03 -2.72402199e-03  7.01182527e-03
  9.22393255e-04  8.60853012e-05 -1.19689506e-02 -2.22867894e-03  1.75262238e-03
 -3.52310034e-02  1.45988650e-02 -4.41285139e-03 -5.23099218e-03 -7.14073622e-03
  1.75283115e-03 -3.52378046e-02  1.45945141e-02 -3.92305382e-03 -4.31971360e-03
  7.99265406e-03  1.75345722e-03 -3.52428930e-02  1.45905150e-02 -5.40433522e-03
  8.28592975e-03 -3.23915705e-04  2.16807290e-03  1.02701044e-02 -5.52203155e-02
  6.04589007e-02  5.16477972e-02 -2.87161438e-01  3.43585439e+00  3.16444543e-01
 -1.31750748e-01  3.43666019e+00  3.16518460e-01 -1.31782172e-01 -2.56152144e+00
 -2.35920250e-01  9.82202482e-02  1.49799457e+00  1.37973314e-01 -5.74322501e-02
 -3.52943987e-01 -3.25190485e-02  1.35273163e-02  3.89202916e-02  5.13880579e-03
  4.74078175e-04 -6.64708084e-02 -1.23487425e-02  1.56276422e-01 -1.91458882e-01
 -1.50479463e-02 -1.39056297e-03  5.74998813e-04  5.56821097e-02  1.22663256e-01
  1.13283453e-02 -4.68615864e-03  5.43737795e-01  1.10217475e-01  1.02184846e-02
 -4.21038672e-03 -3.33460733e-02 -4.41482176e-03 -3.94892541e-04  5.69848852e-02
  1.05732457e-02  3.79597914e-02 -2.00269669e-01 -3.68738818e-02 -4.84803355e-02
 -2.10950735e-02 -2.33308026e-02  3.79728551e-02 -2.00299128e-01 -3.68690266e-02
 -4.67879022e-02 -1.79528452e-02  2.88115510e-02  3.79804882e-02 -2.00342306e-01
 -3.68855065e-02 -5.18945197e-02  2.54853239e-02  1.57976639e-04  7.20299791e-07
  6.65287627e-07 -6.74926882e-06  9.13577335e-06 -5.69390970e-06 -3.96597547e-06
  1.64784980e-01 -3.86762079e-01  3.36829396e+00  1.65817046e-01 -3.89185990e-01
  3.38940064e+00 -1.17483477e-01  2.75731949e-01 -2.40135466e+00  5.90412415e-02
 -1.38545752e-01  1.20663363e+00 -1.76678702e-02  4.14616425e-02 -3.61094654e-01
  3.01970756e-04 -8.82605063e-03  2.35064570e-04 -6.87699059e-04  9.72281548e-04
 -1.53138251e-06  1.56630792e-06  1.22545755e-03 -2.88006607e-03  2.50961499e-02
 -4.20961598e-06 -4.93654522e-03  1.16074691e-02 -1.01184398e-01  1.67474984e-05
 -2.27643765e-03  5.34747250e-03 -4.67884362e-02 -8.29388342e-03 -2.96132165e-02
  3.61383366e-02 -7.48453686e-03  3.23025964e-03 -8.12267953e-03 -4.98832088e-02
 -6.88398838e-02 -3.27596715e-02 -2.49057698e-02 -1.59942198e-02  9.96512000e-03
  6.12183596e-02  8.44952544e-02  3.91313614e-02  2.24088007e-02 -2.84768967e-02
 -1.84717059e-03 -1.13376272e-02 -1.56662935e-02 -7.88925225e-03  6.06467290e-03
  1.32907970e-02 -1.01046021e-06 -9.70048989e-07  9.77542878e-06 -1.35426649e-05
  1.08688204e-05 -5.63200104e-06  2.93929603e-01 -3.35794156e+00 -3.99955319e-01
  2.95771929e-01 -3.37898391e+00 -4.02461335e-01 -2.09547356e-01  2.39397143e+00
  2.85140953e-01  1.05285605e-01 -1.20291865e+00 -1.43280200e-01 -3.15047289e-02
  3.59987756e-01  4.28774815e-02 -1.00800455e-03  1.05536891e-03 -5.62769800e-04
 -2.09213444e-03  8.51930921e-03 -1.30349356e-06  1.60970000e-06  2.19272010e-03
 -2.50160509e-02 -2.98151956e-03 -1.91711853e-06 -8.84661114e-03  1.00847309e-01
  1.20247061e-02  2.14303481e-05 -4.08961907e-03  4.65886360e-02  5.57561344e-03
 -3.37921482e-02  2.72006391e-03 -1.23412217e-02 -2.36480168e-02  2.13909427e-02
  6.82872223e-03  4.18810676e-02  5.78340481e-02  2.92493510e-02  6.19986311e-03
  2.31478980e-02  3.62177304e-03  2.21948988e-02  3.06797810e-02  1.51428891e-02
 -4.72830747e-03 -1.68222437e-02 -1.04376533e-02 -6.41145085e-02 -8.85101082e-02
 -4.71251586e-02  2.95917565e-02 -2.61190686e-03  1.39432221e-03  1.00499463e-02
 -5.67935298e-02  7.93892430e-02 -6.91296299e-02  4.13628770e-02  2.31196856e-01
  2.12954987e-02 -8.86836947e-03  2.40371134e-01  2.21404743e-02 -9.22016535e-03
 -1.45134974e-01 -1.33688270e-02  5.56744005e-03  7.56973394e-02  6.97407685e-03
 -2.90352827e-03 -3.42470069e-03 -3.07057071e-04  1.36429954e-04  1.26513297e-02
  1.66884120e-03  1.54221600e-04 -2.16035771e-02 -4.01786202e-03 -2.01370471e+00
  2.23456481e+00 -4.40486760e-02 -4.04795470e-03  1.69231155e-03 -9.02433291e-01
  2.86845411e-01  2.64147212e-02 -1.09981678e-02  1.92293389e-01 -1.52177030e-02
 -1.45500347e-03  5.58703106e-04 -6.68074313e-02 -8.77512057e-03 -8.54623537e-04
  1.13955651e-01  2.12178286e-02 -4.26903533e-02  3.95547578e-01 -1.70967111e-01
  5.91760984e-02  1.30263209e-01  1.86893404e-01 -4.26897608e-02  3.95544645e-01
 -1.70929279e-01  4.63817130e-02  1.06613552e-01 -2.04642640e-01 -4.26893087e-02
  3.95502798e-01 -1.70866002e-01  8.46485480e-02 -2.19337825e-01  1.04683915e-02
  9.64495428e-02  3.92873086e-01 -2.25119303e+00  2.80977428e+00 -2.18379336e+00
  2.40733681e+00 -6.37040255e-02 -5.87485804e-03  2.43539206e-03 -8.39609718e-02
 -7.74271863e-03  3.21059905e-03 -1.28217897e-05 -2.80767072e-06  1.41171996e-06
 -4.90701154e-02 -4.51215261e-03  1.88303136e-03 -9.18169753e-01 -8.45793324e-02
  3.51845819e-02 -4.01730766e-02 -5.31140064e-03 -4.83847283e-04  6.86261926e-02
  1.27389515e-02  1.02148804e-01 -8.25360015e-02 -1.72097244e-01 -1.58939823e-02
  6.55764097e-03 -9.76527066e-02  4.86726275e-01  4.49890690e-02 -1.85188502e-02
 -1.03162477e+00 -1.19846662e+00 -1.10697925e-01  4.57518847e-02  1.33011124e-03
  1.91948207e-04 -2.90893276e-05 -2.38773250e-03 -4.30483447e-04 -2.11813942e-01
  7.50809362e-01 -5.74958184e-01  6.68915559e-02  2.86328972e-02  3.14688814e-02
 -2.11751481e-01  7.50550515e-01 -5.74495986e-01  6.46048720e-02  2.43539427e-02
 -3.89209434e-02 -2.11730002e-01  7.50467235e-01 -5.74227772e-01  7.14783425e-02
 -3.41965007e-02 -2.75321198e-04  1.15651607e-05  4.66164754e-05 -2.65240302e-04
  3.24736054e-04 -2.04240828e-04  1.11401535e-04 -1.74635755e-04 -4.28912184e-03
 -1.48753160e-02 -2.37180577e-04 -5.61320643e-03 -1.94652875e-02 -7.86063846e-05
 -9.20562502e-04 -3.18105504e-03  4.64738979e-05 -1.18249512e-03 -4.13785068e-03
  9.84018230e-04  2.68026496e-02  9.29772593e-02 -2.84925961e-03 -1.12519904e-02
 -4.22584288e-02 -1.68507247e-03 -6.25954837e-03 -5.35939126e-06  3.28836357e-06
  5.08670004e-03  1.26845883e-01  4.40044436e-01  6.77304443e-05 -2.54163248e-02
 -6.30183959e-01 -2.18615203e+00 -1.39700260e-04  1.22286333e-02  3.02571909e-01
  1.04975507e+00  2.42503045e-02  3.56220959e-01  5.78410035e-01  1.92275760e-02
  1.42937476e-01  4.86258865e-01 -2.52690669e+00  2.56408210e+00 -2.69853492e-01
 -4.99681710e-01 -6.46531092e-01 -3.74435291e-01  1.94586326e+00 -1.97449543e+00
  1.70074670e-01  3.67572048e-01 -5.29637546e-01 -1.11792079e-01  5.81066682e-01
 -5.89574646e-01  8.74334927e-02 -1.72136601e-01  1.20766294e-01 -8.85185075e-06
 -3.56939030e-05  2.03332351e-04 -2.49622867e-04  1.63355631e-04 -1.11288815e-04
 -1.52612459e-03  1.47985990e-02 -4.24668672e-03 -1.99053048e-03  1.93662535e-02
 -5.55779518e-03 -2.96459241e-04  3.16994895e-03 -9.10932417e-04 -4.90324612e-04
  4.12113177e-03 -1.18265488e-03  9.62156233e-03 -9.24111233e-02  2.65128859e-02
  3.59626986e-02 -2.20159658e-03 -5.23361149e-03  1.74668568e-02  1.82252667e-02
  1.79893565e-05 -1.44463362e-05  4.52265039e-02 -4.37930842e-01  1.25697714e-01
 -1.11022351e-04 -2.24521772e-01  2.17541884e+00 -6.24408899e-01  2.77903720e-04
  1.07864480e-01 -1.04535601e+00  3.00082778e-01 -4.81599319e-01  8.77273450e-02
  8.28523223e-02 -1.91630325e-01 -4.46485430e-01 -1.51695582e-01  7.87831222e-01
 -7.99679984e-01  9.59515075e-02  5.51066516e-02  2.67917185e-01 -3.45452562e-01
  1.79401724e+00 -1.82100632e+00  1.67045887e-01  1.98557498e-01 -5.58893601e-01
  4.97131597e-01 -2.58191127e+00  2.62057164e+00 -3.71303233e-01  7.96328381e-01
 -1.03965214e-02  4.02951878e-02  1.63585712e-01 -9.03470809e-01  1.04908204e+00
 -4.50252683e-01 -4.83673370e-02  3.93784980e-02  3.62797102e-03 -1.51009808e-03
 -5.59151638e-02 -5.16273240e-03  2.13051926e-03 -4.09733036e-01 -3.77942782e-02
  1.56575396e-02  7.42276142e-01  6.84834452e-02 -2.83512164e-02 -4.51486176e-01
 -4.15331299e-02  1.73676765e-02  2.48006955e-02  3.20347258e-03  3.05939301e-04
 -4.23310723e-02 -7.93859134e-03 -1.10836568e-01  1.21862336e-01 -1.79908936e-01
 -1.63536233e-02  7.11008641e-03  2.35023591e-01  4.76388575e-01  4.26745069e-02
 -1.94758667e-02 -2.93926273e+00  6.06145499e-01  5.50046916e-02 -2.39834574e-02
 -1.71538381e-01 -2.22066081e-02 -1.49961798e-03  2.93488269e-01  5.51126410e-02
  2.66994848e-01 -9.38015179e-02  1.06504697e+00 -5.53595522e-03  2.32127230e-01
  3.52706863e-01  2.67326041e-01 -9.19762228e-02  1.06595427e+00 -2.89660005e-02
  1.88925774e-01 -3.78208723e-01  2.67459977e-01 -9.16017063e-02  1.06626657e+00
  4.28061447e-02 -4.21286801e-01  2.41965223e-02 -2.20741730e-05 -8.97551470e-05
  4.93386579e-04 -5.70165320e-04  2.82818494e-04 -2.48604721e-04  1.22613152e-05
  6.46440707e-04  2.29632048e-03 -2.53920491e-04 -6.54888801e-03 -2.32289706e-02
 -1.06601361e-03 -2.86179009e-02 -1.01512658e-01  2.25779773e-03  5.76287598e-02
  2.04366689e-01  1.48836223e-03  2.66217180e-02  9.43059416e-02  1.11961775e-02
 -1.39213216e-01  1.23509480e-02  2.88627601e-03 -3.77559547e-02  4.13882953e-05
 -7.64782897e-05  5.30632930e-03  1.21701902e-01  4.31427177e-01  5.30414075e-05
 -3.15412150e-02 -7.20245830e-01 -2.55318046e+00  2.94979079e-03 -1.80434672e-02
 -4.06025961e-01 -1.43919906e+00  4.23151701e-02  8.45887048e-01  1.26585039e+00
  3.82431579e-02  3.25165789e-01 -3.02938124e-01 -2.13079245e+00 -9.24728548e-01
 -5.48342822e-01 -1.07234097e+00 -1.34327624e+00  2.34985190e-01  1.65144007e+00
  7.15963318e-01  3.43821707e-01  8.28720999e-01 -1.09316944e+00  6.80576714e-02
  4.77599481e-01  2.06798187e-01  1.78790966e-01 -3.47194294e-01  3.42081743e-01
 -1.17723818e-05 -4.78997811e-05  2.63415630e-04 -3.05077206e-04  1.59697395e-04
 -1.66312754e-04 -2.42787276e-04  2.28090113e-03 -6.40096413e-04  2.39835921e-03
 -2.31263537e-02  6.49450326e-03  1.04951877e-02 -1.01029909e-01  2.83685398e-02
 -2.10600817e-02  2.03381984e-01 -5.71058684e-02 -9.47400223e-03  9.39719846e-02
 -2.64059547e-02  1.78772810e-02  3.89326986e-02  6.45950789e-03  3.82665823e-02
 -1.33217653e-01  1.83302869e-05 -4.84911644e-05 -4.42020914e-02  4.29370314e-01
 -1.20572867e-01  1.50171459e-04  2.61364560e-01 -2.54100941e+00  7.13550557e-01
  1.88888724e-03  1.47175845e-01 -1.43244065e+00  4.02246768e-01  1.05052414e+00
 -2.05706476e-01 -1.77664389e-01  4.03931037e-01  1.04245581e+00 -9.62290365e-02
 -6.78157852e-01 -2.94276189e-01 -2.08659658e-01 -5.02277115e-02 -6.19419262e-01
 -2.13874252e-01 -1.50644482e+00 -6.53415395e-01 -3.42872287e-01 -3.53181835e-01
  1.20006305e+00  3.10276061e-01  2.18320198e+00  9.46545315e-01  7.65972588e-01
 -1.68081789e+00  4.62127228e-03 -1.12907889e-02 -4.60670297e-02  2.47796064e-01
 -2.70412168e-01 -1.99480487e-02  5.67832857e-01 -2.28095671e-02 -2.09711048e-03
  8.76018652e-04  2.62548134e-02  2.41325484e-03 -1.00926240e-03  2.28151423e-01
  2.09791009e-02 -8.76132333e-03 -5.26314814e-01 -4.84184503e-02  2.01946437e-02
 -5.95745816e-02 -5.34500152e-03  2.38170973e-03 -3.33355675e-02 -4.45337049e-03
 -4.17381465e-04  5.69367802e-02  1.04883981e-02  9.91984814e-02  9.28933980e-03
  1.76786019e-01  1.64989411e-02 -6.64561539e-03 -3.84504303e-01  3.26424713e-01
  2.90606336e-02 -1.31481279e-02 -5.18708931e+00  9.58589422e-01  8.74653357e-02
 -3.71731386e-02 -1.64785028e-01 -2.14142286e-02 -1.80103489e-03  2.81617487e-01
  5.28773247e-02 -6.67801071e-01  2.55907334e+00  3.00187391e-01  8.14374463e-02
  3.98252904e-01  5.89038791e-01 -6.67665350e-01  2.56015540e+00  3.00499275e-01
  4.15976533e-02  3.24614013e-01 -6.37296264e-01 -6.67546806e-01  2.56082020e+00
  3.00736683e-01  1.61771744e-01 -6.97376227e-01  3.68491554e-02  1.74869239e-05
  6.94773004e-05 -3.60967483e-04  3.73214231e-04 -1.33969069e-04  7.45764548e-06
  1.26550666e-03 -1.02236642e-02  1.15484174e-02 -4.68510364e-04  3.37519058e-03
 -3.82246607e-03 -7.08973009e-03  5.60153664e-02 -6.33041738e-02  9.29004217e-03
 -7.44374766e-02  8.40878911e-02 -4.57072149e-02  3.40456844e-01 -3.85349929e-01
  1.77680425e-02  1.20370248e-01 -8.58329356e-03  3.85428441e-02 -1.00726889e-01
 -3.58173441e-05 -5.40998253e-06  7.91753600e-02 -5.80994035e-01  6.57569726e-01
  3.51311289e-04 -1.43895533e-01  1.05545742e+00 -1.19444431e+00 -2.78721320e-04
  2.02091407e-01 -1.48931137e+00  1.68642059e+00 -1.04921538e-01  2.11304463e-02
  9.78539182e-02 -5.21909363e-02 -3.75000544e-02 -2.23004521e-01  3.07772741e-01
  1.51081552e-01 -4.41002810e-02  1.21955090e-01 -1.43530015e-01  8.29323643e-01
 -1.14428056e+00 -5.60100476e-01  8.39192238e-02  1.39084689e-01 -1.54467443e-01
 -6.06275671e-01  8.35925214e-01  4.09688703e-01 -9.18645230e-02  1.25962179e-01
 -1.39985459e-01  2.97544864e-05  1.18693243e-04 -6.21097820e-04  6.58703686e-04
 -3.76842488e-04  3.33755449e-04  4.25691126e-04 -1.15709348e-02 -1.02599354e-02
 -2.47313421e-04  3.82040923e-03  3.40622951e-03 -2.65412260e-03  6.33968884e-02
  5.62705731e-02  3.25283234e-03 -8.42388875e-02 -7.47129919e-02 -2.17377780e-02
  3.85226629e-01  3.42971200e-01  2.71761126e-02 -1.06834273e-01  2.44609566e-02
  2.94104057e-02 -1.13588338e-01 -8.65701749e-05 -7.48661839e-06  3.91859405e-02
 -6.57269960e-01 -5.85325918e-01  8.57847891e-04 -7.13038347e-02  1.19393236e+00
  1.06314683e+00 -1.23926604e-03  9.83412353e-02 -1.68546427e+00 -1.50149528e+00
 -7.96388300e-02 -2.33607948e-02 -1.19736889e-01 -4.05569739e-02 -4.73739152e-02
  8.28850469e-01 -1.14407887e+00 -5.59644331e-01  9.32825786e-02  1.56475605e-01
  1.30245461e-01 -2.21237118e-01  3.05312168e-01  1.50243034e-01 -3.47240838e-02
  1.38780436e-01  1.30216999e-01 -6.07537420e-01  8.37800945e-01  4.10977308e-01
 -8.29808854e-02  1.42632127e-01  1.29310200e-01  4.18602175e-02  1.65240329e-01
 -8.49912885e-01  8.49643974e-01 -8.05260454e-02 -7.11554113e-01 -2.24058418e-01
 -2.06223801e-02  8.59410167e-03 -1.57030451e-02 -1.45333701e-03  5.99327737e-04
  9.32129020e-01  8.57699390e-02 -3.57605547e-02 -1.40226266e+00 -1.29049578e-01
  5.37894352e-02  1.21891786e+00  1.11723263e-01 -4.68744114e-02 -9.25209964e-02
 -1.21586065e-02 -1.14531720e-03  1.57899667e-01  2.95234018e-02 -5.13429090e-02
 -1.44010654e-02  7.99530628e-01  7.46472552e-02 -3.03474557e-02  4.58099373e-01
 -1.66010778e+00 -1.54656065e-01  6.31201524e-02  6.14642775e-01  9.47478498e-01
  8.97964379e-02 -3.56072432e-02  5.08202650e-02  6.67330727e-03  6.76873538e-04
 -8.65327092e-02 -1.60810580e-02  7.35356715e-02 -5.84479200e-01  3.80108923e-01
  1.31369182e-01 -1.62235694e-01 -2.69078571e-01  7.39986729e-02 -5.85213232e-01
  3.79740415e-01  1.49255107e-01 -1.29218404e-01  2.77411378e-01  7.50679055e-02
 -5.86745579e-01  3.78958629e-01  9.59256085e-02  3.25716203e-01 -2.28296131e-02
 -2.40498095e-02 -9.12910911e-02  4.45712162e-01 -3.58770535e-01 -6.86685006e-01
  2.44123535e+00 -1.98373569e-02 -1.81432563e-03  7.65149073e-04 -4.27150701e-02
 -3.93916632e-03  1.63405567e-03  5.20965778e-02  4.73540888e-03 -2.02235606e-03
 -3.61418273e-01 -3.32211802e-02  1.38733408e-02 -1.43789792e+00 -1.32673610e-01
  5.50120284e-02 -2.47293829e-01 -3.26171273e-02 -3.01925507e-03  4.22309258e-01
  7.85315604e-02 -6.99903403e-02 -8.00443293e-03  6.01972930e-01  5.59316028e-02
 -2.28294752e-02  8.05079923e-01 -8.03751158e-01 -7.48428360e-02  3.03857120e-02
 -2.73790844e+00 -1.52777501e+00 -1.39997762e-01  5.89444334e-02  7.34496020e-02
  9.76928498e-03  8.33375573e-04 -1.25663446e-01 -2.32702670e-02 -8.44301003e-02
  9.42426432e-02  8.48534209e-02  4.26615062e-01 -6.39011138e-02 -1.72922885e-01
 -8.41664407e-02  9.38488536e-02  8.46119462e-02  4.37186747e-01 -4.42427029e-02
  1.51164569e-01 -8.38569862e-02  9.34452672e-02  8.44481479e-02  4.05519237e-01
  2.25257075e-01 -2.68013080e-02 -6.33134169e-03 -2.35156632e-02  9.55554873e-02
 -2.45289095e-02 -4.24822988e-01  1.54533422e+00 -3.53744209e-01 -3.25883236e-02
  1.35561872e-02 -2.15788766e-02 -1.98828556e-03  8.26596302e-04  1.30929522e+00
  1.20619227e-01 -5.01717475e-02 -1.86003936e+00 -1.71366725e-01  7.12649037e-02
  1.20506544e-01  1.11080421e-02 -4.61419488e-03 -7.81610677e-02 -1.03098767e-02
 -9.55245462e-04  1.33483427e-01  2.48060067e-02  1.64070296e-02  2.76110666e-02
 -5.87563545e-01 -5.40570001e-02  2.25161959e-02  1.65327340e-01  8.59586546e-01
  7.90692418e-02 -3.29603300e-02 -2.38119951e+00 -1.32426664e+00 -1.22009573e-01
  5.08135694e-02  1.62763021e-01  2.15483883e-02  1.86990190e-03 -2.78312586e-01
 -5.16526349e-02  3.40982967e-03  3.65754489e-01  2.44908489e-01  1.43206163e-01
  1.28184893e-01  1.68664504e-01  3.42599389e-03  3.65668966e-01  2.44754651e-01
  1.31393953e-01  1.06430752e-01 -1.91806018e-01  3.45921868e-03  3.65637137e-01
  2.44748558e-01  1.66620938e-01 -1.93803094e-01  6.26546814e-03 -1.02760452e-06
 -3.07941349e-06  8.05381154e-06  1.92566318e-05 -2.37674886e-04  6.50214254e-04
 -9.81130640e-03  1.01979993e-01 -8.97527446e-03 -5.42329261e-04  5.45525587e-03
 -4.79507812e-04  3.69898120e-02 -3.84660624e-01  3.38547496e-02 -5.03005090e-02
  5.22249857e-01 -4.59630511e-02  4.14368347e-02 -4.36808320e-01  3.84946364e-02
 -2.26322248e-02 -4.96308900e-03 -4.55744067e-03 -2.19353388e-02  4.60478974e-02
 -9.21517004e-05 -2.71311832e-05  4.26324712e-02 -4.44874138e-01  3.92654397e-02
  7.96121593e-04 -2.57440812e-02  2.65199194e-01 -2.34133384e-02 -7.72265174e-04
 -4.79385662e-02  4.98619974e-01 -4.39882298e-02  6.59620727e-01  5.68430078e-02
  8.47810600e-02  4.50701733e-01 -3.22752444e-01 -3.60681254e-03  2.80404258e-02
  3.91231506e-02 -1.28124381e-01 -7.05253011e-01  3.27576394e-01 -4.06687760e-03
  3.12124893e-02  4.35339709e-02 -1.69994155e-01 -7.23269783e-01 -2.07542376e-01
  7.21554632e-03 -5.99772532e-02 -8.21238832e-02  4.52421161e-01 -1.91343686e-01
  2.30133014e-02 -1.12252089e-06 -3.80664093e-06  1.47155106e-05  1.75280889e-06
 -1.32279818e-04  3.55269474e-04  3.03017800e-03  9.35251599e-03  1.02427974e-01
  1.53278969e-04  4.99783631e-04  5.48194731e-03 -1.14381630e-02 -3.52771135e-02
 -3.86344854e-01  1.54905805e-02  4.78907822e-02  5.24539990e-01 -1.32917023e-02
 -4.00439393e-02 -4.38594608e-01 -1.41955186e-03  5.15433042e-02 -2.18673329e-02
  2.44097030e-03  3.83581344e-03 -5.24691853e-05 -1.56482422e-05 -1.32665250e-02
 -4.06758109e-02 -4.46596337e-01  4.41100034e-04  7.72855881e-03  2.42137125e-02
  2.66219436e-01 -3.87262012e-04  1.48042239e-02  4.56065568e-02  5.00624703e-01
 -2.86378700e-02 -4.72392676e-01  7.25680222e-01 -4.56065167e-02 -1.48563732e-02
 -6.40852856e-03  5.25352836e-02  7.25737035e-02 -4.14518351e-01  1.87652350e-01
 -3.79728552e-01  6.04318593e-03 -5.09876425e-02 -6.98834511e-02  3.79768904e-01
 -2.78577294e-01 -3.93767126e-01  8.89517826e-05 -1.97969914e-03 -2.40895204e-03
 -1.41152830e-02 -5.71542376e-02 -8.52246206e-01 -1.35917762e-07 -7.72637706e-07
  6.05385653e-06 -1.54456331e-05  1.22878513e-04 -3.10821400e-04  1.50369622e-02
  1.80578644e-02  4.35116854e-01  1.56943583e-03  1.87703786e-03  4.51944430e-02
 -5.22860675e-02 -6.27753990e-02 -1.51260215e+00  6.60567538e-02  7.92290120e-02
  1.90879681e+00 -3.19533754e-02 -3.86000932e-02 -9.30989804e-01  1.66022122e-03
 -6.06765547e-02  1.47585991e-02 -3.42061248e-03 -2.15701605e-03  8.37881823e-05
  3.72461616e-05  4.97459366e-03  6.12058899e-03  1.46182356e-01 -7.99551114e-04
  2.06290080e-03  2.07284057e-03  5.04844604e-02  6.35076855e-04 -1.36040537e-02
 -1.64986378e-02 -3.94574624e-01  3.62965846e-02 -1.70229669e-01 -2.22643024e-01
  9.51347985e-03 -1.36279811e-02  9.39240589e-02 -6.41299533e-02 -3.13074892e-01
 -8.50806856e-02  3.37719452e-03  2.78758271e-01 -9.59062635e-02  6.58166660e-02
  3.19665627e-01  1.06554822e-01  2.00740922e-02  2.71088650e-01  2.13350759e-03
 -1.17452449e-03 -7.00485440e-03  7.62424136e-03  1.09108927e-02  2.74178111e-01
 -7.14607506e-07 -2.14412479e-06  4.97550116e-06  1.75411697e-05 -2.31373924e-04
  5.67728706e-04  4.05264450e-02 -4.33566295e-01  1.66101826e-02  4.19568567e-03
 -4.50352570e-02  1.72510368e-03 -1.40868916e-01  1.50720507e+00 -5.77429557e-02
  1.77653444e-01 -1.90198297e+00  7.28674683e-02 -8.71344121e-02  9.27649864e-01
 -3.55405915e-02 -1.74584634e-02 -2.55929829e-03 -5.21175023e-03 -2.05379670e-02
  5.61593332e-02 -1.37848989e-04 -6.13256818e-05  1.37123771e-02 -1.45471065e-01
  5.50825184e-03  1.31647233e-03  4.19384322e-03 -5.05487754e-02  2.00678518e-03
 -1.06725378e-03 -3.67726201e-02  3.92895066e-01 -1.49245040e-02  1.79363566e-01
 -1.28012493e-03  2.02804315e-02  6.56462621e-02  2.07971365e-01 -5.67020619e-02
  3.84260697e-02  1.88841381e-01  8.22676321e-02 -2.68352089e-01  7.32716488e-03
 -5.31356176e-02  3.58517847e-02  1.76829239e-01  7.87072656e-02 -2.68581628e-01
  9.38966560e-03  1.09549407e-01 -7.51297487e-02 -3.65002198e-01 -8.53003506e-02
 -2.84068809e-01  1.46673271e-02 -1.51278240e-03 -5.18274220e-03  1.87686237e-02
  7.79224312e-03 -2.44163518e-01  5.31665641e-01 -4.95389918e-02 -4.27034300e-03
  2.06483325e-03 -1.69432759e-02 -1.52620249e-03  6.69479952e-04  1.85031807e-01
  1.60500044e-02 -7.65499697e-03 -3.24388535e-01 -2.86525901e-02  1.31308670e-02
 -3.49684703e-01 -3.27279803e-02  1.30995506e-02 -1.66245347e-01 -2.19851034e-02
 -2.00585858e-03  2.83979781e-01  5.27088084e-02 -1.79946765e-01 -8.55631310e-02
  3.40390791e-02  3.39536641e-03 -1.17565715e-03  1.72304342e+00 -6.07254966e-01
 -5.59030140e-02  2.32824141e-02 -1.39754685e+00  2.40339151e-01  2.15707682e-02
 -9.48977994e-03  3.75031290e-01  4.94642248e-02  4.36625449e-03 -6.40984392e-01
 -1.19178126e-01 -1.10134060e-01 -2.85795443e-01  2.91471468e-01 -5.41375475e-01
 -3.65421690e-01 -4.58048177e-01 -1.10175550e-01 -2.85674983e-01  2.91790161e-01