Generated by Psi4
        SP                        DF-MP2                   AUG-CC-PVTZ
Number of atoms                            I                5
Charge                                     I                0
Multiplicity                               I                1
Number of electrons                        I               26
Number of alpha electrons                  I               13
Number of beta electrons                   I               13
Number of basis functions                  I              165
Number of independent functions            I              165
Atomic numbers                             I   N=           5
          17           6           1           1           1
Nuclear charges                            R   N=           5
  1.70000000e+01  6.00000000e+00  1.00000000e+00  1.00000000e+00  1.00000000e+00
Current cartesian coordinates              R   N=          15
  1.04437132e+00  9.62220779e-02 -4.00139686e-02 -2.29735898e+00 -2.11695001e-01
  8.80126598e-02 -2.92451502e+00 -1.34084705e+00 -1.51190813e+00 -2.81474339e+00
 -1.13774601e+00  1.84952401e+00 -3.14339364e+00  1.66055854e+00  2.81092382e-03
Integer atomic weights                     I   N=           5
          34          12           1           1           1
Real atomic weights                        R   N=           5
  3.49688527e+01  1.20000000e+01  1.00782503e+00  1.00782503e+00  1.00782503e+00
Number of primitive shells                 I              127
Number of contracted shells                I               57
Pure/Cartesian d shells                    I                0
Pure/Cartesian f shells                    I                0
Highest angular momentum                   I                3
Largest degree of contraction              I               13
Shell types                                I   N=          57
           0           0           0           0           0           1
           1           1           1          -2          -2          -3
           0           1          -2          -3           0           0
           0           0           1           1           1          -2
          -2          -3           0           1          -2          -3
           0           0           0           1           1          -2
           0           1          -2           0           0           0
           1           1          -2           0           1          -2
           0           0           0           1           1          -2
           0           1          -2
Number of primitives per shell             I   N=          57
          13          13          13           1           1           7
           7           1           1           1           1           1
           1           1           1           1           8           8
           1           1           3           1           1           1
           1           1           1           1           1           1
           3           1           1           1           1           1
           1           1           1           3           1           1
           1           1           1           1           1           1
           3           1           1           1           1           1
           1           1           1
Shell to atom map                          I   N=          57
           1           1           1           1           1           1
           1           1           1           1           1           1
           1           1           1           1           2           2
           2           2           2           2           2           2
           2           2           2           2           2           2
           3           3           3           3           3           3
           3           3           3           4           4           4
           4           4           4           4           4           4
           5           5           5           5           5           5
           5           5           5
Primitive exponents                        R   N=         127
  4.56100000e+05  6.83300000e+04  1.55500000e+04  4.40500000e+03  1.43900000e+03
  5.20400000e+02  2.03100000e+02  8.39600000e+01  3.62000000e+01  1.58300000e+01
  6.33400000e+00  2.69400000e+00  4.31300000e-01  4.56100000e+05  6.83300000e+04
  1.55500000e+04  4.40500000e+03  1.43900000e+03  5.20400000e+02  2.03100000e+02
  8.39600000e+01  3.62000000e+01  1.58300000e+01  6.33400000e+00  2.69400000e+00
  4.31300000e-01  4.56100000e+05  6.83300000e+04  1.55500000e+04  4.40500000e+03
  1.43900000e+03  5.20400000e+02  2.03100000e+02  8.39600000e+01  3.62000000e+01
  1.58300000e+01  6.33400000e+00  2.69400000e+00  4.31300000e-01  9.76800000e-01
  1.62500000e-01  6.63300000e+02  1.56800000e+02  4.99800000e+01  1.84200000e+01
  7.24000000e+00  2.92200000e+00  3.81800000e-01  6.63300000e+02  1.56800000e+02
  4.99800000e+01  1.84200000e+01  7.24000000e+00  2.92200000e+00  3.81800000e-01
  1.02200000e+00  1.30100000e-01  1.04600000e+00  3.44000000e-01  7.06000000e-01
  5.91000000e-02  4.19000000e-02  1.35000000e-01  3.12000000e-01  8.23600000e+03
  1.23500000e+03  2.80800000e+02  7.92700000e+01  2.55900000e+01  8.99700000e+00
  3.31900000e+00  3.64300000e-01  8.23600000e+03  1.23500000e+03  2.80800000e+02
  7.92700000e+01  2.55900000e+01  8.99700000e+00  3.31900000e+00  3.64300000e-01
  9.05900000e-01  1.28500000e-01  1.87100000e+01  4.13300000e+00  1.20000000e+00
  3.82700000e-01  1.20900000e-01  1.09700000e+00  3.18000000e-01  7.61000000e-01
  4.40200000e-02  3.56900000e-02  1.00000000e-01  2.68000000e-01  3.38700000e+01
  5.09500000e+00  1.15900000e+00  3.25800000e-01  1.02700000e-01  1.40700000e+00
  3.88000000e-01  1.05700000e+00  2.52600000e-02  1.02000000e-01  2.47000000e-01
  3.38700000e+01  5.09500000e+00  1.15900000e+00  3.25800000e-01  1.02700000e-01
  1.40700000e+00  3.88000000e-01  1.05700000e+00  2.52600000e-02  1.02000000e-01
  2.47000000e-01  3.38700000e+01  5.09500000e+00  1.15900000e+00  3.25800000e-01
  1.02700000e-01  1.40700000e+00  3.88000000e-01  1.05700000e+00  2.52600000e-02
  1.02000000e-01  2.47000000e-01
Contraction coefficients                   R   N=         127
  4.92941786e-05  3.83007078e-04  2.00842505e-03  8.38510007e-03  2.94686133e-02
  8.78274731e-02  2.11460897e-01  3.65343089e-01  3.40864490e-01  1.02127155e-01
  3.11657162e-03  1.05744948e-03  1.56127064e-04 -1.47034206e-05 -1.14050805e-04
 -6.00752909e-04 -2.51040623e-03 -8.99281123e-03 -2.76027210e-02 -7.29687441e-02
 -1.50829556e-01 -2.11900675e-01 -2.08012833e-02  5.31286306e-01  5.99320882e-01
 -8.87804707e-03  6.49541842e-06  5.03428836e-05  2.65537974e-04  1.10833025e-03
  3.98380676e-03  1.22375442e-02  3.27244651e-02  6.86349823e-02  1.01132715e-01
  9.35814761e-03 -3.20459741e-01 -6.29871500e-01  1.12615383e+00  1.00000000e+00
  1.00000000e+00  2.47384091e-03  1.97690804e-02  9.10628980e-02  2.63405289e-01
  4.49530829e-01  3.60439921e-01 -4.71646914e-03 -1.11774970e-03 -8.90307363e-03
 -4.23241575e-02 -1.24804829e-01 -2.29721907e-01 -1.62439080e-01  9.67816011e-01
  1.00000000e+00  1.00000000e+00  1.00000000e+00  1.00000000e+00  1.00000000e+00
  1.00000000e+00  1.00000000e+00  1.00000000e+00  1.00000000e+00  5.42430189e-04
  4.19642790e-03  2.15409141e-02  8.36149496e-02  2.39871619e-01  4.43751820e-01
  3.53579696e-01 -9.17636608e-03 -1.96392234e-04 -1.52595027e-03 -7.89044903e-03
 -3.15148705e-02 -9.69100083e-02 -2.20541526e-01 -2.96069113e-01  1.04050343e+00
  1.00000000e+00  1.00000000e+00  3.94263872e-02  2.44088985e-01  8.15492009e-01
  1.00000000e+00  1.00000000e+00  1.00000000e+00  1.00000000e+00  1.00000000e+00
  1.00000000e+00  1.00000000e+00  1.00000000e+00  1.00000000e+00  2.54948632e-02
  1.90362766e-01  8.52162022e-01  1.00000000e+00  1.00000000e+00  1.00000000e+00
  1.00000000e+00  1.00000000e+00  1.00000000e+00  1.00000000e+00  1.00000000e+00
  2.54948632e-02  1.90362766e-01  8.52162022e-01  1.00000000e+00  1.00000000e+00
  1.00000000e+00  1.00000000e+00  1.00000000e+00  1.00000000e+00  1.00000000e+00
  1.00000000e+00  2.54948632e-02  1.90362766e-01  8.52162022e-01  1.00000000e+00
  1.00000000e+00  1.00000000e+00  1.00000000e+00  1.00000000e+00  1.00000000e+00
  1.00000000e+00  1.00000000e+00
Coordinates of each shell                  R   N=         171
  1.04437132e+00  9.62220779e-02 -4.00139686e-02  1.04437132e+00  9.62220779e-02
 -4.00139686e-02  1.04437132e+00  9.62220779e-02 -4.00139686e-02  1.04437132e+00
  9.62220779e-02 -4.00139686e-02  1.04437132e+00  9.62220779e-02 -4.00139686e-02
  1.04437132e+00  9.62220779e-02 -4.00139686e-02  1.04437132e+00  9.62220779e-02
 -4.00139686e-02  1.04437132e+00  9.62220779e-02 -4.00139686e-02  1.04437132e+00
  9.62220779e-02 -4.00139686e-02  1.04437132e+00  9.62220779e-02 -4.00139686e-02
  1.04437132e+00  9.62220779e-02 -4.00139686e-02  1.04437132e+00  9.62220779e-02
 -4.00139686e-02  1.04437132e+00  9.62220779e-02 -4.00139686e-02  1.04437132e+00
  9.62220779e-02 -4.00139686e-02  1.04437132e+00  9.62220779e-02 -4.00139686e-02
  1.04437132e+00  9.62220779e-02 -4.00139686e-02 -2.29735898e+00 -2.11695001e-01
  8.80126598e-02 -2.29735898e+00 -2.11695001e-01  8.80126598e-02 -2.29735898e+00
 -2.11695001e-01  8.80126598e-02 -2.29735898e+00 -2.11695001e-01  8.80126598e-02
 -2.29735898e+00 -2.11695001e-01  8.80126598e-02 -2.29735898e+00 -2.11695001e-01
  8.80126598e-02 -2.29735898e+00 -2.11695001e-01  8.80126598e-02 -2.29735898e+00
 -2.11695001e-01  8.80126598e-02 -2.29735898e+00 -2.11695001e-01  8.80126598e-02
 -2.29735898e+00 -2.11695001e-01  8.80126598e-02 -2.29735898e+00 -2.11695001e-01
  8.80126598e-02 -2.29735898e+00 -2.11695001e-01  8.80126598e-02 -2.29735898e+00
 -2.11695001e-01  8.80126598e-02 -2.29735898e+00 -2.11695001e-01  8.80126598e-02
 -2.92451502e+00 -1.34084705e+00 -1.51190813e+00 -2.92451502e+00 -1.34084705e+00
 -1.51190813e+00 -2.92451502e+00 -1.34084705e+00 -1.51190813e+00 -2.92451502e+00
 -1.34084705e+00 -1.51190813e+00 -2.92451502e+00 -1.34084705e+00 -1.51190813e+00
 -2.92451502e+00 -1.34084705e+00 -1.51190813e+00 -2.92451502e+00 -1.34084705e+00
 -1.51190813e+00 -2.92451502e+00 -1.34084705e+00 -1.51190813e+00 -2.92451502e+00
 -1.34084705e+00 -1.51190813e+00 -2.81474339e+00 -1.13774601e+00  1.84952401e+00
 -2.81474339e+00 -1.13774601e+00  1.84952401e+00 -2.81474339e+00 -1.13774601e+00
  1.84952401e+00 -2.81474339e+00 -1.13774601e+00  1.84952401e+00 -2.81474339e+00
 -1.13774601e+00  1.84952401e+00 -2.81474339e+00 -1.13774601e+00  1.84952401e+00
 -2.81474339e+00 -1.13774601e+00  1.84952401e+00 -2.81474339e+00 -1.13774601e+00
  1.84952401e+00 -2.81474339e+00 -1.13774601e+00  1.84952401e+00 -3.14339364e+00
  1.66055854e+00  2.81092382e-03 -3.14339364e+00  1.66055854e+00  2.81092382e-03
 -3.14339364e+00  1.66055854e+00  2.81092382e-03 -3.14339364e+00  1.66055854e+00
  2.81092382e-03 -3.14339364e+00  1.66055854e+00  2.81092382e-03 -3.14339364e+00
  1.66055854e+00  2.81092382e-03 -3.14339364e+00  1.66055854e+00  2.81092382e-03
 -3.14339364e+00  1.66055854e+00  2.81092382e-03 -3.14339364e+00  1.66055854e+00
  2.81092382e-03
Total Energy                               R     -4.995290851668721e+02
Alpha Orbital Energies                     R   N=         165
 -2.16773564e-06 -2.16724496e-06 -1.70938301e-06 -5.02550539e-07 -5.02153433e-07
 -2.78493996e-08  7.82805777e-09  1.03989020e-08  1.04130994e-08  5.97676213e-08
  1.56040668e-07  1.56139148e-07  2.61688964e-07  2.70689884e-07  2.70751429e-07
  3.74721607e-07  4.08088962e-07  5.69608548e-07  5.69977234e-07  7.27911991e-07
  1.10846072e-06  1.26170057e-06  1.26173833e-06  1.47312897e-06  1.47366815e-06
  1.48449351e-06  1.79195070e-06  1.79205180e-06  2.25830537e-06  2.25873942e-06
  2.31114956e-06  2.31370645e-06  2.98264816e-06  2.98269881e-06  3.05755800e-06
  3.12794124e-06  3.12810918e-06  3.44877619e-06  3.61531868e-06  4.57158252e-06
  4.57237624e-06  4.74124308e-06  4.74157147e-06  4.90556618e-06  6.03548903e-06
  6.03582940e-06  7.71516758e-06  8.56054682e-06  8.56250070e-06  8.96751368e-06
  9.00961034e-06  9.01190123e-06  9.17599182e-06  1.02713167e-05  1.02717389e-05
  1.10255501e-05  1.10267281e-05  1.11924076e-05  1.22944038e-05  1.56339868e-05
  1.62320362e-05  1.62335197e-05  1.62609731e-05  1.77949532e-05  1.94258537e-05
  1.94264484e-05  2.24611504e-05  2.31227526e-05  2.52037874e-05  2.52064564e-05
  2.60885028e-05  2.75910861e-05  2.75917951e-05  3.01322528e-05  3.01340247e-05
  3.28596121e-05  3.28606502e-05  3.32076607e-05  3.42392992e-05  4.07583804e-05
  4.07600670e-05  4.41186868e-05  4.41216205e-05  4.57954894e-05  4.57966017e-05
  4.61878181e-05  5.07114885e-05  5.51991554e-05  5.52058668e-05  5.52886269e-05
  6.04534698e-05  6.04550650e-05  6.46542548e-05  6.57373922e-05  6.57439512e-05
  7.05287909e-05  7.18358615e-05  8.72290206e-05  8.72389662e-05  9.26017177e-05
  9.61618173e-05  9.88210437e-05  9.88338217e-05  1.38377732e-04  1.58101240e-04
  1.58936600e-04  1.58940394e-04  1.72139036e-04  2.01104827e-04  2.01106701e-04
  2.45673261e-04  2.52831966e-04  2.52836873e-04  2.70014396e-04  2.70032447e-04
  2.87444566e-04  3.43759787e-04  3.43778400e-04  3.92097623e-04  3.93268183e-04
  3.93274741e-04  4.70692880e-04  4.70731041e-04  5.24061855e-04  6.05660428e-04
  6.05726492e-04  6.31053146e-04  6.33774975e-04  7.09098863e-04  7.09140096e-04
  7.67490308e-04  8.16697870e-04  8.16760030e-04  8.73096632e-04  1.51069916e-03
  2.10891103e-03  2.10895172e-03  2.19933291e-03  3.27711940e-03  3.80586198e-03
  3.80589851e-03  4.79511542e-03  4.79514146e-03  5.93807310e-03  6.53068922e-03
  7.90464144e-03  7.90554952e-03  8.76251217e-03  8.76252079e-03  9.75386537e-03
  9.75466971e-03  1.78341945e-02  9.72679170e-01  9.77568676e-01  9.77568772e-01
  9.82927808e-01  9.82929118e-01  9.87881201e-01  9.91328996e-01  1.00000000e+00
  1.00000043e+00  1.00000351e+00  1.00001149e+00  1.00002042e+00  1.00002042e+00
Alpha MO coefficients                      R   N=       27225
  2.14689427e-05  1.07372958e-04  9.39194467e-05 -1.75042316e-04  2.66620045e-03
  3.80431257e-03 -3.76369761e-02  1.41333276e-02  7.63097614e-03 -7.55848389e-02
  2.83835690e-02 -1.15914126e-03  1.13841428e-02 -4.27469410e-03 -2.59697714e-02
  2.20452511e-01 -8.27213472e-02 -1.29393823e-02  2.73701013e-04  2.95687965e-03
 -6.73011792e-03 -4.17338860e-03  6.09771392e-02 -3.79206584e-03 -1.44167360e-02
  3.06142962e-02  2.63260027e-02 -1.30967161e-02 -2.13425741e-02  1.39610726e-02
  1.68540643e-02  1.13574168e-02  4.74741388e-03 -6.36136898e-02  5.48358232e-03
  9.29938827e-02 -8.88509742e-01  3.33747652e-01 -1.19030129e-01  3.15341467e-02
  3.24141464e-02 -4.49814474e-02 -1.15264550e-01  2.79889518e-02  3.22842879e-02
 -2.99024287e-02 -3.54031483e-02 -2.06347299e-02 -1.85747163e-02  1.28319213e-01
  2.11485076e-04  3.95217501e-04 -7.65982523e-05  6.47835209e-03 -5.86477198e-03
  5.52144375e-02 -2.07393231e-02  5.06107755e-02 -4.75290548e-01  1.78543841e-01
  9.75982877e-02 -9.61713372e-01  3.61127709e-01 -6.83491483e-02 -3.99309238e-04
  1.52846004e-02 -3.66791416e-02 -1.71620550e-02  8.42276495e-01  3.27676516e-02
 -1.83298357e-01  4.67626942e-01  1.37731845e-01 -5.34192303e-03  1.25409115e-03
  5.71073784e-03  6.39355453e-03  1.91168351e-03  8.20112268e-03 -2.02052145e-02
 -2.96956230e-03 -1.90817695e-01  1.79012651e+00 -6.72417769e-01 -7.84696535e-02
 -2.03524578e-01 -1.88721383e-02 -1.60104214e-01  5.17369041e-01  5.80495825e-02
 -2.47800635e-01 -6.40489545e-02 -5.86872467e-02  4.29323020e-02 -2.35903365e-01
  8.55371545e-02  1.58696510e-02 -5.00482934e-01  1.19074359e+00  2.57160888e-03
  3.36197961e-02 -5.60229137e-03 -1.08752599e-02 -3.16142408e-01  1.39259613e-01
  4.79529351e-02  6.87648769e-03 -1.12306483e-02  2.49762630e-02  1.39976873e-02
  1.60607762e-01 -5.83623478e-02  1.18825044e+00 -1.78068759e-01 -3.00194761e-02
 -7.99244742e-03  2.52959014e-02 -6.04955724e-02 -8.52089332e-02  5.26365903e-02
 -1.65847292e+00  3.96105574e+00  1.45505382e-02  4.10924823e-02 -3.18329536e-02
 -1.19153442e-01 -3.07034828e-01  6.85990492e-02  4.92322019e-02 -1.98413211e-02
 -1.02542661e-02  2.03723394e-02  2.00285155e-02  5.33665713e-01  1.73730430e-02
  1.44047840e+00 -1.16339996e+00  3.41039223e-02  1.27076207e-01 -1.34441793e-03
 -1.38915963e-01 -1.32707514e-01 -6.84248575e-02  2.15470689e+00 -5.16064348e+00
 -3.10629758e-02  5.60634993e-02 -1.16940094e-02  2.19150238e-01 -2.19653536e-01
  1.08733171e-01  4.28843180e-02 -1.01236635e-03 -1.25335303e-02  2.14902394e-02
  4.03186221e-02 -6.94428910e-01 -4.68169570e-01  2.12826188e+00 -4.45295097e-01
 -1.25838929e-01  1.14855285e-02  2.71107881e-02  2.08541294e-01 -1.60216842e-01
 -3.28250342e-05 -1.67719852e-04 -1.54579848e-04  2.43531626e-04 -3.61106042e-03
  4.36790722e-04  1.42333275e-02  3.77611293e-02  8.89231236e-04  2.85844930e-02
  7.58318397e-02 -1.20362074e-04 -4.30537886e-03 -1.14249600e-02  2.48199049e-03
 -8.27912997e-02 -2.20939970e-01  2.24799027e-03  1.69386696e-03  1.50307037e-02
  1.15874508e-03  1.91828388e-03 -9.93899077e-03 -1.47085407e-02 -7.13189071e-02
 -5.59347721e-03 -1.16431897e-02 -3.96913292e-02 -2.83203896e-03 -7.66732504e-03
  4.64415549e-02  2.96353793e-02 -1.84438772e-03  2.48993582e-02 -7.19145219e-03
  5.40878868e-03  3.35865401e-01  8.92734083e-01  1.52994870e-02  9.37890708e-02
  1.41750413e-01  7.67266223e-03  4.68189475e-02  8.13245979e-02  8.03733563e-03
  1.50405906e-02 -9.80455270e-02 -4.63197117e-02  5.32305938e-03 -4.99964365e-02
 -2.26787193e-04 -4.21787053e-04  9.56440550e-05 -7.65034238e-03 -2.21248399e-04
 -2.08620321e-02 -5.54830979e-02  1.69019924e-03  1.79607905e-01  4.77782035e-01
  9.72701952e-03  3.63836071e-01  9.65640833e-01  1.21895827e-02  4.03337881e-03
  7.91716443e-02  6.36013439e-03  8.31090972e-03 -1.55655023e-01  2.53899954e-02
 -9.72054781e-01 -8.06881309e-02 -7.42985115e-02 -1.35634524e-02 -2.64976091e-03
 -2.10749055e-03  1.79856883e-02 -5.80268323e-04 -1.75398666e-03  7.74887551e-03
  3.70869096e-03 -6.38239161e-03 -6.76337523e-01 -1.79902345e+00  5.20705846e-02
 -5.45943568e-01  6.69280803e-02  2.80062880e-02 -1.95502035e-01  8.57289762e-02
  6.43785300e-02  5.10585308e-04 -1.74412171e-01  3.04474561e-01  4.20574714e-02
 -2.78555428e-02 -6.99216239e-02  2.20320646e+00 -5.26079530e+00 -2.52598099e-02
 -2.98339421e-02 -5.35040545e-02  2.00077536e-01  9.22401183e-02  2.44302742e-01
 -7.22307888e-03 -2.73542672e-02 -5.35162842e-02  1.39082956e-03 -2.11854792e-02
 -7.09270417e-01 -2.40163537e-01 -1.04139282e+00 -1.98713060e+00 -1.26036500e-01
  1.58583755e-01  3.38112141e-02  1.70410392e-01  1.34040446e-01  4.86370322e-02
 -1.53113164e+00  3.66953064e+00  1.62433606e-02 -2.41354994e-04 -4.87661060e-02
 -1.40285904e-01  1.36692678e-01  2.75253957e-01 -7.84419721e-03 -2.03605745e-02
 -5.55011794e-02 -1.01227602e-02  3.73249247e-03  4.94058988e-01  1.17835212e-01
 -2.49103058e-02 -1.76192603e+00  9.47102825e-02  1.51608300e-01  5.56368346e-02
 -1.03011212e-01 -4.21836435e-02  2.11957123e-02 -6.66882979e-01  1.60252935e+00
  8.55334204e-03 -1.93774741e-02 -2.92900604e-02 -5.58290235e-02  8.98400559e-02
  3.28092893e-01 -7.03697294e-03 -4.61042701e-04 -5.53203674e-02 -3.08797715e-03
 -1.45330003e-02  2.15457661e-01  1.08151353e-01 -7.30704324e-01 -1.03147327e+00
  2.76620337e-02  5.12991489e-02  6.90985707e-02 -6.74142558e-02  5.55237494e-02
 -5.42803778e-04  2.51266007e-02  8.06492703e-02  2.16579937e-01 -5.04643936e+00
  3.43162188e-01  3.15898069e-02 -1.31722627e-02  7.00917910e-01  6.45257122e-02
 -2.69023357e-02 -9.39372768e-02 -8.64175543e-03  3.61111844e-03  4.81059036e+00
  4.42922406e-01 -1.84606479e-01  1.91461502e-02  2.52176067e-03  2.22623191e-04
 -3.27187513e-02 -6.08269183e-03  1.48428671e-01  1.96368014e-02  1.84961296e-03
 -2.53421064e-01 -4.70673606e-02  5.90460838e-03 -3.22003803e-02 -2.20076338e-02
 -1.89285911e-03 -1.28921016e-03  4.41811554e-02  7.32671327e-03 -9.41012830e+00
  2.86670820e+00  2.63210440e-01 -1.10375564e-01  6.23005489e-01  8.23677064e-02
  7.58248780e-03 -1.06405513e+00 -1.97593202e-01 -2.26988436e-03 -1.52983013e-02
  2.32824879e-02 -4.38700895e-03  3.87020578e-04  1.42823849e-02  1.07524613e-02
 -3.07591149e-01 -5.78377267e-01  4.11613923e-02 -4.45046666e+00 -2.09306699e-02
 -1.88203039e-03  8.28024308e-04 -7.73879151e-02 -7.43218626e-03  2.83791697e-03
  7.23196728e+00  6.67367140e-01 -2.76009040e-01  4.97480587e-02  6.56508306e-03
  5.54608075e-04 -8.50597233e-02 -1.58250122e-02 -7.03250587e-01 -9.28210269e-02
 -8.42459661e-03  1.20135547e+00  2.23333845e-01 -5.78520042e-03  1.49076174e-02
  3.07531169e-02 -1.29617422e-03  1.20347801e-03 -2.45116382e-02  9.35888518e-04
  5.17625648e+00  3.23119760e-02  4.99993193e-03 -4.48707448e-06 -1.45619508e+00
 -1.90858624e-01 -1.95566510e-02  2.48258102e+00  4.62818120e-01 -4.37301168e-02
 -4.05335555e-01  5.09998128e-01 -1.05499471e-01  7.03107537e-03  3.99980089e-01
  2.60372548e-01 -3.20370452e-02  1.32128732e+00  3.74359945e+00  8.24060011e-03
 -2.40620361e-03 -5.11438468e-03  3.07389329e-01  1.27603220e-01  1.38836145e-01
 -1.72811939e-02  4.23374699e-02 -7.81677214e-03  1.21533639e-02  3.06044345e-02
  4.91091103e-02  1.21651963e+00  5.90907985e-01  6.77036392e-01 -8.31121364e-02
  4.71212948e-02  1.63510028e-02  1.41502210e-01  6.64280000e-02 -3.21329228e-02
  1.32224215e+00  3.73195996e+00  8.53878940e-03 -1.84161824e-03  4.88888392e-03
  2.97334408e-01  1.08664600e-01 -1.72838463e-01 -1.33999834e-02 -4.80921094e-02
  4.06737450e-03  8.50278197e-03  2.54954099e-02  4.79153468e-02  1.16611174e+00
  5.00394172e-01 -8.17526120e-01 -7.26970486e-02 -7.30045441e-02 -1.98596329e-02
  1.39840214e-01  5.80676670e-02 -3.22077137e-02  1.32322338e+00  3.72416356e+00
  7.52952347e-03  6.57928771e-03 -6.41750296e-04  3.27833638e-01 -1.50543009e-01
 -1.72699626e-03 -6.78009082e-04  1.66991551e-03  3.47434884e-03  3.30885707e-02
 -4.60237377e-02  4.71172732e-02  1.31108607e+00 -7.43822355e-01  3.58113500e-03
 -9.70090734e-02 -7.76801600e-03  2.08230165e-04  1.50053012e-01 -4.48478754e-02
 -2.11644435e-05 -1.22580447e-04 -1.43450803e-04  5.34946775e-05 -3.25057648e-04
 -1.16774126e-03 -2.71301802e-02 -9.76447771e-02 -2.48018698e-03 -5.74939713e-02
 -2.06930990e-01  1.27959681e-04  3.08522559e-03  1.10950492e-02  3.20253544e-02
  6.88578184e-01  2.47815023e+00  6.18742191e-03 -7.31639788e-02  1.09267522e-02
  1.61538256e-03 -1.92255711e-02 -2.42385708e-02  3.15826317e-01 -1.62807277e-02
 -5.81090559e-03  8.51766783e-02  2.82614784e-03  1.00568751e-03  1.72141396e-05
 -4.84839730e-03  5.90497077e-03  4.74315452e-04 -8.53594619e-04 -2.09664834e-03
  2.35989111e-03  3.91677330e-02  1.40955227e-01  8.05275821e-02 -1.09788362e+00
  6.60829992e-03  1.78734433e-02 -2.99676152e-01  2.67978372e-02 -9.44789588e-04
  6.70125894e-03 -2.23488258e-02 -6.73272609e-02 -1.21602791e-03 -1.53960035e-02
 -1.65820289e-04 -3.14552296e-04 -1.17853742e-04  3.41028063e-03 -3.27798656e-04
 -7.47990458e-03 -2.69352441e-02  1.35884514e-02  3.04266985e-01  1.09533200e+00
  5.26117005e-02  1.17565755e+00  4.23159529e+00 -3.85998285e-03 -6.42953511e-03
 -5.50672195e-02 -2.10153101e-03 -5.65563143e-03  8.62218464e-02 -1.03988447e+00
  1.33539763e-01  2.21559540e-02 -2.74794886e-01  3.78271348e-02  8.74821507e-03
  3.17390309e-03 -5.43420664e-02  2.32987132e-02  3.75409310e-03 -1.47157416e-02
  5.37211010e-03  4.06819501e-02  8.95934641e-01  3.22486247e+00  9.82726355e-01
 -8.78395144e+00  4.36907123e+00  3.17165084e-01 -2.09197712e+00 -3.34406096e-01
 -7.34380343e-02 -3.08434237e-02  4.71320875e-01 -1.57361330e-01 -3.06950351e-02
  1.33056947e-01 -7.63857078e-02  1.33297957e+00  3.03271675e+00  2.61646104e-02
 -5.12142033e-02 -3.13163577e-02 -4.14572438e-01  6.84179147e-01  7.00453298e-01
  8.19792786e-03  5.92392139e-02  6.19362811e-02  2.26504062e-02  6.26445443e-02
  3.63724280e+00 -6.94016155e+00  2.00443783e+00  8.89832019e-01  1.94395119e-01
 -4.69289311e-01  2.53494049e-01 -4.35901090e-01 -5.29604858e-01  5.95771764e-02
 -1.04107359e+00 -2.36668591e+00 -2.46250540e-02  7.17801879e-02 -1.00092379e-02
  3.80537493e-01 -7.47045017e-01  4.42109150e-01 -2.23814114e-02  4.46222358e-02
  4.49963424e-02 -1.85636380e-02 -5.28703876e-02 -2.83521047e+00  5.61809044e+00
 -3.81138506e+00 -6.49896109e-01  5.91641299e-02 -3.84235352e-01  3.58515267e-01
  3.83774927e-01  5.49349558e-01  1.68933769e-02 -2.95552642e-01 -6.71175535e-01
 -9.02092826e-04 -7.12489656e-03  8.96833254e-02  3.91993745e-02  1.77290201e-01
 -7.30335083e-01  1.69998053e-02 -3.29487832e-02 -5.22773562e-03 -1.13629350e-03
  1.68204844e-02 -8.02980389e-01  1.25049841e+00  2.13729203e-01 -5.97371150e+00
 -1.09290489e-01  3.05942562e-01  7.16234879e-01  1.14187566e-01 -7.54431717e-02
  2.54496256e-05  1.48160869e-04  1.74477622e-04 -5.46687383e-05 -2.38975637e-04
 -1.00313033e-02  9.71310117e-02 -2.68459223e-02 -2.12551411e-02  2.05850931e-01
 -5.68964125e-02  1.14209318e-03 -1.10196239e-02  3.04266248e-03  2.52965135e-01
 -2.46617415e+00  6.81854577e-01 -1.32595245e-02 -2.02475978e-02 -2.97213543e-03
 -2.22167394e-02  6.92275042e-02  3.05313095e-02  8.66673687e-02  1.58883558e-02
  8.12863994e-02 -3.04169209e-01  1.27747403e-03 -4.96730300e-03 -1.66107602e-03
 -1.17973376e-03  1.55289388e-04 -5.20816247e-03  3.26873807e-03  1.76530166e-03
  1.39473520e-02 -1.40500376e-01  3.89049756e-02 -6.30678616e-02 -3.00157232e-01
 -6.02023166e-02 -2.58514016e-01  1.06607304e+00  2.60667662e-03  5.15939623e-02
 -5.71753122e-03 -6.48559534e-03 -1.01256692e-02  2.53787659e-02  5.05314050e-02
  1.72334905e-04  3.29245022e-04  1.32623797e-04 -3.97319506e-03 -2.76561578e-03
  2.68272006e-02 -7.41930113e-03  1.12202178e-01 -1.09020544e+00  3.01441516e-01
  4.33440859e-01 -4.21043810e+00  1.16401287e+00  4.72703200e-02 -4.88941241e-04
 -5.82010057e-03  2.46580780e-02  1.58276781e-02 -1.69866606e-01 -2.87313998e-01
 -4.44198890e-02 -3.05376272e-01  9.87847381e-01  1.28340729e-02 -2.17405720e-02
 -1.77798053e-02 -1.37783359e-02 -3.22636601e-03 -3.59330629e-02  5.28813003e-02
 -4.73611205e-03  3.29970521e-01 -3.21045353e+00  8.87649140e-01 -4.23506888e+00
 -2.50024605e+00 -5.33288935e-02 -4.11830547e+00  7.77710150e+00 -1.09718693e-01
  1.53431110e-01  1.53579178e-01  1.20012117e-01  3.31672862e-02  2.87914506e-01
 -4.75328098e-01  2.46056507e-02 -4.28692207e-01 -9.74243654e-01  8.82009069e-04
 -6.29177724e-02  6.25204756e-02  5.86842812e-02  4.19028804e-01 -6.47717284e-01
  1.35437475e-03 -3.82173657e-02 -2.42429020e-02 -1.19633861e-02  9.25029998e-03
 -1.17350499e+00  1.61896007e+00  4.62721007e+00 -3.76646188e+00 -6.57196352e-01
  3.16326376e-01  2.38554392e-01 -1.22036494e-01 -2.07344065e-01  5.37934790e-02
 -9.38579611e-01 -2.13156031e+00 -1.43066293e-02 -4.44455545e-02 -6.42144678e-02
  2.79967461e-01  2.05238323e-01  8.43389971e-01 -1.85346439e-02  6.08545072e-02
  4.36279141e-02 -2.18145867e-02 -7.03695198e-03 -2.56475535e+00  4.55054807e+00
  3.81130731e+00  3.07329346e+00 -5.83155689e-01 -5.55949484e-01 -2.38145860e-01
  5.53357852e-02 -4.57854637e-02 -7.84860654e-02  1.37122434e+00  3.11138115e+00
  1.83389041e-02  5.92285624e-02  1.49996007e-02 -2.96312298e-01 -1.03412260e+00
 -8.22587504e-02 -6.69883906e-02 -5.59268478e-03 -5.36496978e-03  1.97702407e-03
 -8.88740385e-02  3.73907167e+00 -6.75671025e+00 -2.72559880e+00 -8.86049048e-01
  6.38476413e-02  5.96055742e-02  1.01001522e-01 -6.91098443e-01  5.53944082e-01
  1.99409577e-02  1.19613146e-01  1.47828165e-01 -1.29241698e-02 -4.58139789e-01
  1.00706152e-01  9.27951751e-03 -3.85949326e-03  2.09593712e-01  1.93122417e-02
 -8.03257187e-03 -2.30873403e-02 -2.12837661e-03  8.84798402e-04 -8.12878472e-01
 -7.49962240e-02  3.10896361e-02 -2.65069088e-02 -3.49901321e-03 -3.22424417e-04
  4.52705304e-02  8.41231862e-03  1.59580024e-01  2.10724693e-02  1.94223235e-03
 -2.72542822e-01 -5.06367927e-02 -1.96838236e-03  4.92955227e-03  1.05043600e-02
 -4.57639410e-04  4.08496223e-04 -8.17253376e-03  3.91210755e-04  5.14604022e+00
 -1.79019993e+00 -1.65013254e-01  6.85716760e-02 -2.64161089e-01 -3.48353379e-02
 -3.17621787e-03  4.51214940e-01  8.39315320e-02  8.42131817e-03 -5.02339470e-02
 -2.92062858e-02 -3.46115933e-03 -1.85726188e-03  6.78877105e-02  1.25734243e-02
  2.55509955e-01  4.88869563e-01  2.61265970e-02  1.41956601e+01 -1.80352197e-02
 -1.66571030e-03  6.88843110e-04 -2.25612091e-01 -2.07020994e-02  8.65202793e-03
 -3.34804673e+00 -3.08519922e-01  1.28053714e-01  1.11228772e-02  1.46266478e-03
  1.35654151e-04 -1.89948641e-02 -3.53726534e-03 -4.63805559e-02 -6.20299513e-03
 -4.53895478e-04  7.95211878e-02  1.46758484e-02  9.06637975e-04 -1.54289131e-02
  2.25262750e-03 -2.23186679e-03 -2.37479183e-04  1.86231694e-02  6.24970497e-03
  4.35311650e+00 -2.15052310e+00 -1.97951762e-01  8.24016297e-02  4.87687009e-01
  6.42271878e-02  6.01351980e-03 -8.32698884e-01 -1.54908201e-01  2.50842440e-04
 -8.14742291e-02  4.19253900e-02 -1.48573814e-02 -4.00128027e-04  9.23264871e-02
  3.94886250e-02  4.43316204e-03 -4.63169431e-01 -7.05023170e+00  1.27275457e-02
  2.83181356e-02  4.06525214e-02 -7.29616805e-02 -3.24601933e-01 -4.78929057e-01
 -1.32338753e-02  6.64077433e-03 -1.21402937e-02  1.06607993e-02  6.02229043e-03
 -8.14747262e-01 -6.32593203e-01 -1.00224571e+00 -1.40676892e+00 -1.19608227e-01
 -9.10816685e-02 -1.63133187e-01  8.98655590e-02 -5.23291925e-02  4.43631448e-03
 -4.63132616e-01 -7.04866745e+00  9.93880684e-03  2.31755952e-02 -4.45028785e-02
 -4.03164604e-02 -2.64398047e-01  5.18179964e-01 -1.46380181e-02 -9.56814463e-03
  1.00058113e-02  8.79810489e-03  5.76364956e-03 -8.14710821e-01 -5.35553142e-01
 -8.22950349e-01  1.55475355e+00 -1.61573426e-01  7.47098724e-02  1.46409638e-01
  7.65155032e-02 -3.20387547e-02  4.43919191e-03 -4.63079150e-01 -7.04799258e+00
  1.82654377e-02 -4.77341632e-02  2.28418231e-03 -1.37781320e-01  5.65885141e-01
 -2.96718840e-02  3.62587617e-03 -2.68263208e-04  1.84988550e-03  2.19822163e-02
 -4.07591041e-03 -8.14851797e-01 -8.24734611e-01  1.64160084e+00 -7.19520691e-02