Generated by Psi4
        SP                           RHF                         MINIX
Number of atoms                            I               29
Charge                                     I                0
Multiplicity                               I                1
Number of electrons                        I              104
Number of alpha electrons                  I               52
Number of beta electrons                   I               52
Number of basis functions                  I               85
Number of independent functions            I               85
Atomic numbers                             I   N=          29
           6           7           6           6           6           8
           6           6           6           6           6           1
           1           1           7           1           1           1
           1           1           1           7           6           1
           1           1           1           1           1
Nuclear charges                            R   N=          29
  6.00000000e+00  7.00000000e+00  6.00000000e+00  6.00000000e+00  6.00000000e+00
  8.00000000e+00  6.00000000e+00  6.00000000e+00  6.00000000e+00  6.00000000e+00
  6.00000000e+00  1.00000000e+00  1.00000000e+00  1.00000000e+00  7.00000000e+00
  1.00000000e+00  1.00000000e+00  1.00000000e+00  1.00000000e+00  1.00000000e+00
  1.00000000e+00  7.00000000e+00  6.00000000e+00  1.00000000e+00  1.00000000e+00
  1.00000000e+00  1.00000000e+00  1.00000000e+00  1.00000000e+00
Current cartesian coordinates              R   N=          87
 -1.66790531e+00 -4.20461714e-01  8.06107980e-02  6.40395151e-01 -7.51352759e-01
  1.50886580e+00  2.98403349e+00  1.46645096e-01  6.11623839e-01  5.26890135e+00
 -1.58167728e-01  2.42954037e+00  3.91707193e-01 -1.89425912e+00  4.01955593e+00
  3.30660974e+00  1.19601001e+00 -1.44855558e+00 -4.02968502e+00 -4.00430617e-01
  1.29211422e+00 -6.27222302e+00  2.55115376e-01 -2.67725551e+00 -6.28866363e+00
 -9.03265598e-02 -6.37642780e-02 -3.93652152e+00  1.54204001e-01 -3.90425468e+00
 -1.67754291e+00 -1.59301563e-01 -2.55064386e+00  2.14121564e+00 -2.80718581e+00
  4.62067781e+00 -1.05072076e+00 -3.37731618e+00  4.01029628e+00 -8.71494073e-02
 -4.15737399e-01  5.38374922e+00  7.52202181e+00  1.19109673e+00  1.47314998e+00
  5.68747569e+00 -2.18565489e+00  2.51136551e+00  4.78532043e+00  5.35550733e-01
  4.31851061e+00 -4.20108318e+00 -5.73151585e-01  3.32905001e+00 -8.05858112e+00
 -1.00531081e-01  9.74073310e-01 -3.84014549e+00  3.08027707e-01 -5.95101705e+00
  4.70211476e-02 -2.67204925e-01 -3.65537775e+00 -8.50058806e+00  4.22356138e-01
 -4.14954113e+00  9.89022659e+00  3.38452298e-01  2.64761477e+00 -8.14494161e+00
  1.37610091e+00 -5.78434320e+00  1.03605794e+01 -1.52443972e+00  1.87074836e+00
  9.66364843e+00  9.44886552e-02  4.69475508e+00  7.30527022e+00  3.07326395e+00
  1.82822952e+00 -1.01533425e+01 -2.80621981e-01 -3.66425946e+00  1.13205603e+01
  1.71927518e+00  2.27911817e+00
Integer atomic weights                     I   N=          29
          12          14          12          12          12          16
          12          12          12          12          12           1
           1           1          14           1           1           1
           1           1           1          14          12           1
           1           1           1           1           1
Real atomic weights                        R   N=          29
  1.20000000e+01  1.40030740e+01  1.20000000e+01  1.20000000e+01  1.20000000e+01
  1.59949146e+01  1.20000000e+01  1.20000000e+01  1.20000000e+01  1.20000000e+01
  1.20000000e+01  1.00782503e+00  1.00782503e+00  1.00782503e+00  1.40030740e+01
  1.00782503e+00  1.00782503e+00  1.00782503e+00  1.00782503e+00  1.00782503e+00
  1.00782503e+00  1.40030740e+01  1.20000000e+01  1.00782503e+00  1.00782503e+00
  1.00782503e+00  1.00782503e+00  1.00782503e+00  1.00782503e+00
Number of primitive shells                 I              171
Number of contracted shells                I               57
Pure/Cartesian d shells                    I                0
Pure/Cartesian f shells                    I                0
Highest angular momentum                   I                1
Largest degree of contraction              I                3
Shell types                                I   N=          57
           0           0           1           0           0           1
           0           0           1           0           0           1
           0           0           1           0           0           1
           0           0           1           0           0           1
           0           0           1           0           0           1
           0           0           1           0           0           0
           0           0           1           0           0           0
           0           0           0           0           0           1
           0           0           1           0           0           0
           0           0           0
Number of primitives per shell             I   N=          57
           3           3           3           3           3           3
           3           3           3           3           3           3
           3           3           3           3           3           3
           3           3           3           3           3           3
           3           3           3           3           3           3
           3           3           3           3           3           3
           3           3           3           3           3           3
           3           3           3           3           3           3
           3           3           3           3           3           3
           3           3           3
Shell to atom map                          I   N=          57
           1           1           1           2           2           2
           3           3           3           4           4           4
           5           5           5           6           6           6
           7           7           7           8           8           8
           9           9           9          10          10          10
          11          11          11          12          13          14
          15          15          15          16          17          18
          19          20          21          22          22          22
          23          23          23          24          25          26
          27          28          29
Primitive exponents                        R   N=         171
  1.53172260e+02  2.30730300e+01  4.92329000e+00  6.61661200e+00  5.25856000e-01
  1.69958000e-01  4.91292000e+00  9.97616000e-01  2.32685000e-01  2.18364490e+02
  3.25988900e+01  6.91739000e+00  8.91942600e+00  7.06141000e-01  2.25054000e-01
  6.55627200e+00  1.34907900e+00  3.12209000e-01  1.53172260e+02  2.30730300e+01
  4.92329000e+00  6.61661200e+00  5.25856000e-01  1.69958000e-01  4.91292000e+00
  9.97616000e-01  2.32685000e-01  1.53172260e+02  2.30730300e+01  4.92329000e+00
  6.61661200e+00  5.25856000e-01  1.69958000e-01  4.91292000e+00  9.97616000e-01
  2.32685000e-01  1.53172260e+02  2.30730300e+01  4.92329000e+00  6.61661200e+00
  5.25856000e-01  1.69958000e-01  4.91292000e+00  9.97616000e-01  2.32685000e-01
  2.81866580e+02  4.24160000e+01  9.09562000e+00  1.17893260e+01  9.12894000e-01
  2.86661000e-01  8.27414000e+00  1.71546300e+00  3.83013000e-01  1.53172260e+02
  2.30730300e+01  4.92329000e+00  6.61661200e+00  5.25856000e-01  1.69958000e-01
  4.91292000e+00  9.97616000e-01  2.32685000e-01  1.53172260e+02  2.30730300e+01
  4.92329000e+00  6.61661200e+00  5.25856000e-01  1.69958000e-01  4.91292000e+00
  9.97616000e-01  2.32685000e-01  1.53172260e+02  2.30730300e+01  4.92329000e+00
  6.61661200e+00  5.25856000e-01  1.69958000e-01  4.91292000e+00  9.97616000e-01
  2.32685000e-01  1.53172260e+02  2.30730300e+01  4.92329000e+00  6.61661200e+00
  5.25856000e-01  1.69958000e-01  4.91292000e+00  9.97616000e-01  2.32685000e-01
  1.53172260e+02  2.30730300e+01  4.92329000e+00  6.61661200e+00  5.25856000e-01
  1.69958000e-01  4.91292000e+00  9.97616000e-01  2.32685000e-01  7.03406300e+00
  1.06475600e+00  2.36559000e-01  7.03406300e+00  1.06475600e+00  2.36559000e-01
  7.03406300e+00  1.06475600e+00  2.36559000e-01  2.18364490e+02  3.25988900e+01
  6.91739000e+00  8.91942600e+00  7.06141000e-01  2.25054000e-01  6.55627200e+00
  1.34907900e+00  3.12209000e-01  7.03406300e+00  1.06475600e+00  2.36559000e-01
  7.03406300e+00  1.06475600e+00  2.36559000e-01  7.03406300e+00  1.06475600e+00
  2.36559000e-01  7.03406300e+00  1.06475600e+00  2.36559000e-01  7.03406300e+00
  1.06475600e+00  2.36559000e-01  7.03406300e+00  1.06475600e+00  2.36559000e-01
  2.18364490e+02  3.25988900e+01  6.91739000e+00  8.91942600e+00  7.06141000e-01
  2.25054000e-01  6.55627200e+00  1.34907900e+00  3.12209000e-01  1.53172260e+02
  2.30730300e+01  4.92329000e+00  6.61661200e+00  5.25856000e-01  1.69958000e-01
  4.91292000e+00  9.97616000e-01  2.32685000e-01  7.03406300e+00  1.06475600e+00
  2.36559000e-01  7.03406300e+00  1.06475600e+00  2.36559000e-01  7.03406300e+00
  1.06475600e+00  2.36559000e-01  7.03406300e+00  1.06475600e+00  2.36559000e-01
  7.03406300e+00  1.06475600e+00  2.36559000e-01  7.03406300e+00  1.06475600e+00
  2.36559000e-01
Contraction coefficients                   R   N=         171
  7.07400095e-02  3.95380053e-01  6.63311089e-01 -8.13799884e-02  5.74852918e-01
  5.02412928e-01  1.09930928e-01  4.62712695e-01  6.27513586e-01  6.78700100e-02
  3.90202057e-01  6.70083099e-01 -8.08899713e-02  5.67201799e-01  5.11091818e-01
  1.15918975e-01  4.69957900e-01  6.18447868e-01  7.07400095e-02  3.95380053e-01
  6.63311089e-01 -8.13799884e-02  5.74852918e-01  5.02412928e-01  1.09930928e-01
  4.62712695e-01  6.27513586e-01  7.07400095e-02  3.95380053e-01  6.63311089e-01
 -8.13799884e-02  5.74852918e-01  5.02412928e-01  1.09930928e-01  4.62712695e-01
  6.27513586e-01  7.07400095e-02  3.95380053e-01  6.63311089e-01 -8.13799884e-02
  5.74852918e-01  5.02412928e-01  1.09930928e-01  4.62712695e-01  6.27513586e-01
  6.90600291e-02  3.93159166e-01  6.65669281e-01 -8.08199297e-02  5.82089494e-01
  4.97159568e-01  1.24271003e-01  4.76594010e-01  6.13044013e-01  7.07400095e-02
  3.95380053e-01  6.63311089e-01 -8.13799884e-02  5.74852918e-01  5.02412928e-01
  1.09930928e-01  4.62712695e-01  6.27513586e-01  7.07400095e-02  3.95380053e-01
  6.63311089e-01 -8.13799884e-02  5.74852918e-01  5.02412928e-01  1.09930928e-01
  4.62712695e-01  6.27513586e-01  7.07400095e-02  3.95380053e-01  6.63311089e-01
 -8.13799884e-02  5.74852918e-01  5.02412928e-01  1.09930928e-01  4.62712695e-01
  6.27513586e-01  7.07400095e-02  3.95380053e-01  6.63311089e-01 -8.13799884e-02
  5.74852918e-01  5.02412928e-01  1.09930928e-01  4.62712695e-01  6.27513586e-01
  7.07400095e-02  3.95380053e-01  6.63311089e-01 -8.13799884e-02  5.74852918e-01
  5.02412928e-01  1.09930928e-01  4.62712695e-01  6.27513586e-01  7.04520124e-02
  4.07826072e-01  6.47752114e-01  7.04520124e-02  4.07826072e-01  6.47752114e-01
  7.04520124e-02  4.07826072e-01  6.47752114e-01  6.78700100e-02  3.90202057e-01
  6.70083099e-01 -8.08899713e-02  5.67201799e-01  5.11091818e-01  1.15918975e-01
  4.69957900e-01  6.18447868e-01  7.04520124e-02  4.07826072e-01  6.47752114e-01
  7.04520124e-02  4.07826072e-01  6.47752114e-01  7.04520124e-02  4.07826072e-01
  6.47752114e-01  7.04520124e-02  4.07826072e-01  6.47752114e-01  7.04520124e-02
  4.07826072e-01  6.47752114e-01  7.04520124e-02  4.07826072e-01  6.47752114e-01
  6.78700100e-02  3.90202057e-01  6.70083099e-01 -8.08899713e-02  5.67201799e-01
  5.11091818e-01  1.15918975e-01  4.69957900e-01  6.18447868e-01  7.07400095e-02
  3.95380053e-01  6.63311089e-01 -8.13799884e-02  5.74852918e-01  5.02412928e-01
  1.09930928e-01  4.62712695e-01  6.27513586e-01  7.04520124e-02  4.07826072e-01
  6.47752114e-01  7.04520124e-02  4.07826072e-01  6.47752114e-01  7.04520124e-02
  4.07826072e-01  6.47752114e-01  7.04520124e-02  4.07826072e-01  6.47752114e-01
  7.04520124e-02  4.07826072e-01  6.47752114e-01  7.04520124e-02  4.07826072e-01
  6.47752114e-01
Coordinates of each shell                  R   N=         171
 -1.66790531e+00 -4.20461714e-01  8.06107980e-02 -1.66790531e+00 -4.20461714e-01
  8.06107980e-02 -1.66790531e+00 -4.20461714e-01  8.06107980e-02  6.40395151e-01
 -7.51352759e-01  1.50886580e+00  6.40395151e-01 -7.51352759e-01  1.50886580e+00
  6.40395151e-01 -7.51352759e-01  1.50886580e+00  2.98403349e+00  1.46645096e-01
  6.11623839e-01  2.98403349e+00  1.46645096e-01  6.11623839e-01  2.98403349e+00
  1.46645096e-01  6.11623839e-01  5.26890135e+00 -1.58167728e-01  2.42954037e+00
  5.26890135e+00 -1.58167728e-01  2.42954037e+00  5.26890135e+00 -1.58167728e-01
  2.42954037e+00  3.91707193e-01 -1.89425912e+00  4.01955593e+00  3.91707193e-01
 -1.89425912e+00  4.01955593e+00  3.91707193e-01 -1.89425912e+00  4.01955593e+00
  3.30660974e+00  1.19601001e+00 -1.44855558e+00  3.30660974e+00  1.19601001e+00
 -1.44855558e+00  3.30660974e+00  1.19601001e+00 -1.44855558e+00 -4.02968502e+00
 -4.00430617e-01  1.29211422e+00 -4.02968502e+00 -4.00430617e-01  1.29211422e+00
 -4.02968502e+00 -4.00430617e-01  1.29211422e+00 -6.27222302e+00  2.55115376e-01
 -2.67725551e+00 -6.27222302e+00  2.55115376e-01 -2.67725551e+00 -6.27222302e+00
  2.55115376e-01 -2.67725551e+00 -6.28866363e+00 -9.03265598e-02 -6.37642780e-02
 -6.28866363e+00 -9.03265598e-02 -6.37642780e-02 -6.28866363e+00 -9.03265598e-02
 -6.37642780e-02 -3.93652152e+00  1.54204001e-01 -3.90425468e+00 -3.93652152e+00
  1.54204001e-01 -3.90425468e+00 -3.93652152e+00  1.54204001e-01 -3.90425468e+00
 -1.67754291e+00 -1.59301563e-01 -2.55064386e+00 -1.67754291e+00 -1.59301563e-01
 -2.55064386e+00 -1.67754291e+00 -1.59301563e-01 -2.55064386e+00  2.14121564e+00
 -2.80718581e+00  4.62067781e+00 -1.05072076e+00 -3.37731618e+00  4.01029628e+00
 -8.71494073e-02 -4.15737399e-01  5.38374922e+00  7.52202181e+00  1.19109673e+00
  1.47314998e+00  7.52202181e+00  1.19109673e+00  1.47314998e+00  7.52202181e+00
  1.19109673e+00  1.47314998e+00  5.68747569e+00 -2.18565489e+00  2.51136551e+00
  4.78532043e+00  5.35550733e-01  4.31851061e+00 -4.20108318e+00 -5.73151585e-01
  3.32905001e+00 -8.05858112e+00 -1.00531081e-01  9.74073310e-01 -3.84014549e+00
  3.08027707e-01 -5.95101705e+00  4.70211476e-02 -2.67204925e-01 -3.65537775e+00
 -8.50058806e+00  4.22356138e-01 -4.14954113e+00 -8.50058806e+00  4.22356138e-01
 -4.14954113e+00 -8.50058806e+00  4.22356138e-01 -4.14954113e+00  9.89022659e+00
  3.38452298e-01  2.64761477e+00  9.89022659e+00  3.38452298e-01  2.64761477e+00
  9.89022659e+00  3.38452298e-01  2.64761477e+00 -8.14494161e+00  1.37610091e+00
 -5.78434320e+00  1.03605794e+01 -1.52443972e+00  1.87074836e+00  9.66364843e+00
  9.44886552e-02  4.69475508e+00  7.30527022e+00  3.07326395e+00  1.82822952e+00
 -1.01533425e+01 -2.80621981e-01 -3.66425946e+00  1.13205603e+01  1.71927518e+00
  2.27911817e+00
Total Energy                               R     -6.213026258259241e+02
Alpha Orbital Energies                     R   N=          85
 -2.02897629e+01 -1.54418178e+01 -1.53749248e+01 -1.53722636e+01 -1.13101977e+01
 -1.12196579e+01 -1.12146199e+01 -1.12120303e+01 -1.12069986e+01 -1.11811933e+01
 -1.11652131e+01 -1.11611376e+01 -1.11560186e+01 -1.11529015e+01 -1.36293587e+00
 -1.23422273e+00 -1.19145596e+00 -1.18877498e+00 -1.10988579e+00 -1.00714412e+00
 -9.98446202e-01 -9.73010545e-01 -9.39373962e-01 -8.72907322e-01 -8.26782889e-01
 -8.05851063e-01 -7.43635653e-01 -6.94886656e-01 -6.77822035e-01 -6.69512442e-01
 -6.57800212e-01 -6.44391015e-01 -6.38827837e-01 -6.11630401e-01 -5.99660405e-01
 -5.91229333e-01 -5.72247692e-01 -5.69084858e-01 -5.54030434e-01 -5.41865269e-01
 -5.30853527e-01 -5.27326761e-01 -5.13758822e-01 -5.07766132e-01 -5.00065074e-01
 -4.77694066e-01 -4.37080699e-01 -3.82993666e-01 -3.68359167e-01 -3.50532149e-01
 -3.37521500e-01 -2.69816190e-01  1.91755728e-01  1.98654116e-01  2.54928500e-01
  4.37225005e-01  4.54733919e-01  5.15329721e-01  5.33673412e-01  5.48589546e-01
  5.62667280e-01  6.08694009e-01  6.26041691e-01  6.39673073e-01  6.45938580e-01
  6.65437788e-01  6.70449991e-01  6.80581989e-01  6.89002421e-01  6.93431598e-01
  6.99190153e-01  7.06531585e-01  7.28695517e-01  7.43510797e-01  7.61574523e-01
  7.67907506e-01  7.93427714e-01  8.06952517e-01  8.55418323e-01  8.82713523e-01
  8.90919572e-01  9.19853706e-01  9.57590795e-01  1.07092235e+00  1.11469754e+00
Alpha MO coefficients                      R   N=        7225
  4.64346934e-06  3.61610757e-05  7.88369493e-05 -6.71640105e-05  1.59851289e-04
  2.37309668e-05  3.06027962e-04  6.43958426e-04 -4.19537152e-04  1.14198409e-03
 -8.03522471e-04  1.48145270e-02  1.99065375e-03  6.56275044e-03 -1.28732996e-02
  7.92055373e-06  2.39270943e-04 -8.00472890e-04 -5.40347233e-04  6.59446539e-04
 -2.18985530e-05 -1.34622675e-04  3.42617686e-04  1.05116172e-04  2.19962706e-05
 -9.90384398e-01 -4.91380396e-02  1.62744887e-03  4.95202078e-03 -9.61936155e-03
  1.35996193e-06 -1.99707301e-05 -1.66315649e-05 -2.06487798e-06 -1.26655365e-05
  7.62314049e-07 -1.39936793e-05 -9.76721845e-06  8.84691697e-06  3.56977968e-07
 -2.42621059e-07 -7.35331029e-07  2.96772125e-06 -1.49381713e-06 -3.43218622e-06
 -3.40338682e-06  1.26856404e-04  3.97009092e-05 -6.76108647e-05  3.97054600e-05
  2.05913155e-06 -3.12231946e-04  4.41673850e-05  2.15602701e-04  3.75594524e-04
  1.08144396e-05  1.42330316e-04 -4.07189743e-07 -9.25980554e-06  2.23814006e-04
 -1.27738332e-04 -5.73271338e-05 -3.53384412e-05 -1.47170599e-04 -1.24344630e-04
  1.54192182e-05  1.47521085e-06 -3.16817305e-06  1.07133024e-03 -7.04750784e-09
 -1.42897399e-06  9.66453882e-07 -4.13347807e-07 -5.35788768e-07 -2.38129274e-06
  2.83052839e-05 -3.44632260e-05 -1.31567747e-06  1.29504669e-05  1.23337327e-06
  1.86795159e-06 -9.33400026e-06 -6.22047242e-06  5.88166297e-07  7.16536122e-06
 -5.47437135e-04  9.28845399e-03  8.04103406e-03 -1.07686706e-03  4.88373046e-03
 -9.89016408e-01 -5.85834062e-02 -2.93481184e-04 -7.32829108e-04  2.24255508e-04
 -5.79742925e-04  1.05032974e-02 -8.74886869e-03 -3.25897057e-03  3.20490231e-03
 -1.15831534e-06  2.05753646e-04  2.65204270e-04  2.39685753e-04 -4.86351928e-04
 -5.71254023e-04  9.33174950e-03  9.05273580e-04  3.46239631e-03 -7.74701497e-03
  5.09359217e-06  1.97619049e-04  9.98307681e-04  1.58755749e-04  6.37319391e-05
  8.54274506e-06  3.50029187e-04 -2.37760026e-04  2.00957483e-04 -7.98220890e-04
 -4.65814897e-06 -6.86236876e-05  5.58169145e-05 -5.07001230e-06  3.67745479e-05
 -1.01162249e-05 -1.66679470e-04  1.03524447e-04 -1.07737094e-05 -1.53608890e-04
 -1.07691497e-05 -1.44510770e-04 -7.77843398e-05  8.35203854e-06  1.79649247e-04
  7.91332272e-06  3.46965114e-04 -8.13858890e-04 -4.09238534e-05  1.87255391e-04
 -1.12914509e-04 -8.09929241e-05  1.49037582e-04  3.39851131e-04 -1.97485661e-05
 -1.48825858e-04  4.96861689e-05 -1.50725449e-04 -9.75596601e-05 -5.78398126e-05
  4.29308159e-05  1.01397926e-04  1.03254853e-04  1.23585681e-04  1.12891410e-04
  4.32341871e-05  2.60047720e-05 -1.48096831e-06  1.73548933e-05 -1.22868076e-06
  5.33723041e-05 -2.54840186e-05  2.73709891e-05 -7.99100189e-06  3.87065521e-06
 -1.47774096e-06 -9.31686295e-07 -1.36543996e-05  3.37591455e-06 -8.77645608e-06
 -5.02871049e-06 -7.61670312e-05 -5.21131151e-05  1.04875479e-05 -3.37145879e-05
 -1.19208195e-04  2.82180248e-05 -2.78224584e-05  2.54926921e-06 -1.75552221e-05
 -3.59394767e-07  5.55348801e-06 -5.88118289e-06 -1.92395349e-06  1.67047304e-07
 -3.55265354e-08  7.18073001e-07 -6.85478279e-07  5.14567023e-08 -3.86556527e-07
 -4.11210684e-07  4.89109108e-06 -2.37792639e-06  3.95687811e-06 -5.67058556e-06
  7.90526908e-08 -6.15121038e-07 -1.41968127e-07  7.92265001e-07  1.02633454e-06
 -1.27406673e-05 -1.16538502e-04  7.22920896e-05  1.00209034e-05 -2.15700418e-04
 -5.75626105e-04  1.03492365e-02 -8.70238716e-03  5.13300639e-04 -5.43024583e-03
  5.77503459e-06  3.57695163e-04  7.92674216e-04  1.25686526e-04 -2.00918227e-04
  2.19926802e-06  3.79458544e-04  1.62908964e-04 -1.65370908e-04  7.54081077e-04
 -1.23578240e-05 -1.20711573e-04 -1.46042214e-04  4.11566959e-05  1.58872914e-04
  1.65104183e-06  1.88299002e-06 -1.01487451e-06  1.41423213e-05  9.02894086e-07
 -1.46472278e-07 -1.21896675e-08  4.92434828e-08 -1.62740685e-07 -8.94602128e-08
  1.13342380e-04  1.53172110e-04  1.36697589e-05  1.11859644e-04 -9.88995816e-01
 -5.90322939e-02 -1.14676732e-03 -8.34578357e-05 -5.20995302e-04  5.88656893e-09
 -1.01793663e-07  6.12204588e-08 -4.07564094e-08  5.27777645e-08  1.24416315e-02
 -6.89311665e-10  4.72494096e-09 -1.80515024e-07  1.31594999e-02  1.36610270e-08
 -1.97655563e-06  5.22442363e-05  3.81610474e-05 -5.84772856e-06  2.63924479e-05
 -3.68213179e-04 -3.75506734e-05  1.54356466e-04  5.89414155e-06  5.26356142e-05
 -1.45625201e-05  1.20076240e-04  4.08156698e-05 -2.39552678e-04  2.19623476e-04
 -5.66886327e-04  9.51667892e-03  7.25826535e-03  4.28375688e-03 -2.70798918e-03
 -9.28890929e-06 -2.38249487e-05  1.55259668e-04  1.57202561e-04 -8.87009968e-05
 -4.06305803e-05  1.48069590e-04  1.97034214e-04  5.18821217e-05  4.60905298e-05
  1.17657838e-07 -2.37897292e-06  5.39656315e-07 -6.15630466e-07 -2.72297263e-06
 -2.21172963e-08 -4.01271158e-07 -6.02474691e-08  9.00975777e-08  5.46786432e-08
 -1.04436399e-07  8.20717031e-07  1.52892938e-06  1.08600896e-07 -2.60141993e-07
 -1.17835839e-07  2.43353890e-06  8.60328119e-07 -1.43497524e-06  1.99007373e-06
 -1.36070081e-07 -8.47358931e-07  2.03403855e-06  4.23265257e-06  5.64582722e-06
  2.76929198e-04  8.77496141e-05 -1.48142364e-05 -9.89165990e-01 -5.70031621e-02
  4.43906033e-04 -1.48009110e-03 -7.24649760e-03 -2.40131939e-04 -1.39528663e-04
  4.73298527e-06  4.53400052e-07  4.63745477e-07  9.72598558e-06 -1.41340421e-05
 -6.98426632e-07  1.29480878e-07 -4.57358096e-09  8.90446427e-08 -5.78709977e-04
  9.85607091e-03 -7.50810062e-03  2.86403213e-03 -3.54876359e-03  2.39149505e-07
 -4.59118452e-05 -1.17886900e-04  1.27399330e-02  2.25985051e-07 -2.56978056e-04
  2.17980115e-03  8.18260835e-04  1.15902185e-03  1.96387018e-04  1.31896211e-04
 -9.67169658e-04  8.85555608e-03  5.83141075e-03  2.32250189e-03 -2.46605215e-03
 -9.89225535e-01 -5.42250599e-02  7.60695571e-05 -2.07650498e-04 -6.07980329e-05
  1.02431334e-02  9.77310551e-03 -5.98491332e-03  1.07778230e-03 -5.08636908e-03
  1.79574535e-03  8.99463392e-04  3.99449734e-04  4.27205828e-04 -7.08402728e-04
 -6.61172078e-04  1.03915533e-02 -7.18267186e-04 -1.82607303e-03  3.60370046e-03
  1.56101707e-04  2.35774764e-04  1.05085286e-04 -6.92466593e-05 -1.09335837e-04
  2.94312864e-06 -2.18895774e-05 -9.37284687e-07  3.40280203e-07  5.46178591e-06
  1.68820170e-05 -1.31573016e-06  1.98048160e-05  7.91668431e-06 -7.58979922e-06
  1.02136848e-04  2.31374063e-04  8.69716392e-05 -5.04735050e-05  1.08374277e-04
  4.73507612e-04 -1.04751836e-05  4.62078766e-04  4.89531163e-05  3.53311878e-04
  2.72286875e-05  9.61757274e-05  8.08796681e-10 -5.34122153e-05  1.91314248e-05
 -1.36946862e-04  1.30939552e-05 -1.66854395e-04  5.90475309e-04  4.21892603e-04
 -3.48118268e-06  1.06214858e-05  9.76964255e-06  5.03318774e-04 -7.85341423e-07
  4.20393495e-06  5.55395710e-06  3.05765167e-07  1.84244409e-06  2.45907290e-04
  1.61657139e-04 -2.69035737e-04 -8.96370119e-05  7.32641928e-05  2.01529326e-06
 -4.18402091e-05  2.98414934e-05  1.61562307e-04  1.47189856e-06  7.30235423e-05
  9.60040130e-03  6.89429769e-04 -2.21867462e-04  3.46686725e-05 -1.36849944e-04
  1.56934843e-06 -7.64740092e-06  3.09008787e-06 -2.05041787e-06  4.32415912e-06
  2.27204145e-05 -6.03829086e-06  4.55736450e-06 -3.25746094e-06  5.66162127e-06
 -1.09934036e-05 -2.18335593e-06  8.99553500e-07  2.62817761e-07  5.90050039e-07
 -1.72064260e-04 -1.14332765e-05  6.04997807e-06 -3.85423209e-06  5.29856183e-06
  9.13282461e-07 -2.20153189e-06  6.21999526e-06  2.74665636e-07  7.54672637e-06
  1.89543857e-03  3.46092460e-04 -4.99475325e-04  4.40917862e-05  1.42385440e-05
 -9.88453699e-01 -6.11638417e-02 -2.33404150e-03  1.18035383e-03 -1.00975342e-03
  1.22544026e-02  1.31078135e-02 -1.71425696e-04  1.12787069e-03 -9.14273919e-03
  1.18071627e-02  1.32232808e-02 -8.26893341e-03  2.60732148e-04  4.15550593e-03
  1.67800316e-03  2.98398672e-04 -1.88157264e-04  8.04861140e-05 -4.51386595e-04
 -6.53687641e-07 -8.18246356e-06 -1.05851873e-06  7.69096179e-09  3.11563136e-08
  3.05531702e-08 -5.60013352e-08  4.41075537e-08  2.07862754e-07  2.05685748e-07
  8.85663688e-05  3.00437115e-04  2.74148226e-04  8.54790399e-05 -9.80807023e-04
  8.71997326e-03  5.41516498e-03 -5.87888332e-04  3.76580264e-03 -5.67310201e-08
 -2.58980242e-08  2.45649453e-08 -3.86330523e-09 -8.53452298e-09  1.24494146e-03
  5.44950070e-09  2.77225757e-09  2.94413184e-08  9.76166028e-04 -4.18448321e-09
  9.85322224e-01  6.05309418e-02 -2.48380963e-03  1.18466097e-04 -1.37274876e-03
  8.83502543e-04 -7.38855309e-03  5.40247515e-03 -9.55674819e-04  3.90582134e-03
  2.22650868e-03 -7.55583413e-04  9.83079981e-04 -2.55867110e-05  1.88602103e-04
 -2.97030092e-03 -3.69403257e-04  8.73965401e-05  1.11201684e-05  1.02404502e-04
 -7.72040323e-02 -5.53658261e-03  3.43341241e-04 -3.42139138e-04  8.99276572e-04
  5.15473773e-07  9.42436019e-05  3.12729728e-05 -7.64133581e-05  8.62957406e-05
 -1.61614499e-02 -1.32240857e-02 -8.14609757e-03  7.20828607e-05  4.08341561e-03
  9.52371538e-03  4.74486274e-04 -1.81896129e-04  1.20372192e-05 -1.18414483e-04
 -1.82805679e-03 -4.75920954e-04 -1.07661012e-04  4.26144814e-05 -2.78800935e-04
 -1.82019322e-03 -5.36624929e-04 -3.22119531e-04  1.58791334e-05 -6.69172362e-06
 -1.47714243e-02 -1.31628035e-02 -1.98778200e-04  9.56691323e-04 -9.09636556e-03
  8.05013047e-04  6.57510264e-04  9.51163195e-04 -3.24147763e-09  1.86555350e-05
 -1.52469347e-06 -1.27778199e-05  1.04032133e-05  4.92063299e-05  7.79201902e-05
 -1.65817219e-04 -6.03865118e-05 -6.58927736e-05 -2.55411851e-04  1.68881874e-05
 -1.57924516e-04 -9.84420288e-05  6.88140744e-06 -6.65504065e-05 -6.28082399e-08
 -1.88345337e-06  8.35338807e-07 -1.55568539e-06 -8.25940693e-07 -1.37954874e-05
  5.77338098e-07 -2.29999447e-07  5.84280759e-06 -1.42807418e-05  3.23644830e-07
  7.73358344e-02  4.11315324e-03 -8.60147935e-04  3.10667210e-04 -1.04017300e-03
  1.11975562e-03 -9.26957895e-03  9.78175603e-04  2.98924059e-03 -6.14134043e-03
  1.99301489e-03 -5.45254049e-04  9.67127455e-04  3.82210847e-04 -5.30541806e-04
 -1.67612213e-02 -1.23818026e-03  5.87729062e-04  2.69219189e-04 -1.60882337e-05
  9.85185166e-01  6.18813181e-02  1.30846297e-04 -2.40010007e-04  4.62323641e-04
  2.36863249e-05 -2.17862129e-04 -3.68411969e-05  5.23014019e-05 -1.05761993e-04
 -2.82399335e-03 -1.11793601e-03 -1.31496308e-03  1.25986949e-04  6.51769035e-05
  5.63194592e-04  4.94998020e-05 -1.62183098e-05 -6.30991493e-07 -5.15238277e-06
 -5.36790874e-04 -3.29170951e-04 -1.81160645e-04  8.44995592e-06 -7.31911134e-05
 -2.08862331e-04 -4.78389708e-05 -3.25352317e-05  9.84205104e-06 -2.07658175e-05
 -1.77038825e-03 -1.32937778e-03  5.65266069e-06  4.71184503e-05 -9.07866653e-04
 -1.26693150e-02 -1.25922605e-02 -1.26840549e-02  3.25600599e-06 -3.00342119e-05
  1.48028997e-05  2.42747081e-05  6.26544072e-06  4.36007945e-04 -2.54683233e-04
 -6.02554619e-04 -1.20766916e-05 -1.48476594e-05 -1.82532333e-05  2.00055797e-06
 -1.48834236e-05 -9.71881513e-06  1.37188897e-06 -9.20176477e-06 -1.84407319e-05
 -4.13008510e-06  5.85074218e-06  3.40108815e-06 -3.32544086e-06 -2.19909390e-06
 -3.04393346e-06  1.10801612e-05  1.10350943e-05 -1.79015044e-06 -3.20144947e-06
  4.27848589e-03  2.25557193e-04 -2.50308629e-04 -6.37936726e-05  5.81138455e-05
  7.26234487e-05 -4.38591966e-04 -1.18326345e-04 -1.06510563e-04  2.77288548e-04
  1.19708991e-02 -9.55885313e-03 -6.61686465e-03  6.54106538e-04 -4.93252474e-03
  9.88105719e-01  6.14877910e-02 -5.32613363e-04 -7.16995954e-04  1.90591480e-04
  1.65602781e-02  9.06150271e-04 -4.87944772e-04 -4.42078828e-04  3.09180367e-04
  3.69844531e-05 -2.54158188e-04  3.23220037e-04  5.77269782e-06  2.12731297e-04
 -2.67884526e-04 -1.52118051e-04 -9.51797939e-05  2.21464596e-05  5.23749603e-05
  2.53254472e-05  4.91185833e-06 -6.47533722e-07 -4.00304569e-07 -9.53209233e-07
 -1.94620819e-05 -3.95698616e-06 -3.27643979e-06 -2.16552121e-06 -1.75984754e-06
 -8.47278703e-05 -5.45691929e-05 -2.34055738e-05  1.12809227e-05 -2.24183378e-05
 -3.59938033e-04 -5.00115771e-05 -1.02851964e-04 -3.29412807e-06 -9.61096283e-05
 -9.27306155e-04 -4.29316890e-04 -1.13331092e-04  1.01462794e-03 -8.15747063e-03
  5.61281146e-03  3.38964998e-03 -1.78097297e-03 -1.25262817e-02 -1.24905575e-02
 -2.54609339e-05 -1.92310474e-06 -1.78417125e-06 -3.98501704e-05  1.83307243e-07
 -1.14021686e-06 -1.39649443e-06  8.52039628e-08 -4.50616092e-07 -8.78927226e-03
 -1.36684024e-03  1.32484398e-03  2.83370928e-04  1.00476487e-04 -4.64460927e-07
  1.55854029e-04 -2.63814753e-04 -1.28987084e-03 -3.65458452e-07 -2.49352154e-04
  3.94753439e-05 -1.78623036e-06 -1.05230565e-05 -1.17230502e-06 -3.65653471e-07
  4.91222081e-06 -2.06437975e-05 -2.66398768e-05  6.43228045e-08  1.08923581e-05
  4.01148097e-04 -3.49877680e-04 -2.39333491e-04 -2.63333082e-05 -1.97777149e-04
  9.06134277e-03 -2.96392485e-04 -1.36264971e-03 -1.86217088e-04 -1.97614333e-04
  1.71053899e-04 -3.16589935e-06 -3.11423424e-05 -1.96459647e-05  6.98205693e-06
  3.59537755e-06 -3.25652496e-06 -1.31564434e-05  5.20435754e-07  5.57999929e-06
 -2.00910181e-05 -4.40076767e-06 -2.56518444e-06  7.08118533e-07  1.47422593e-06
  1.46380761e-08  2.44639436e-07  3.66610097e-08 -6.76040787e-08 -4.21610974e-08
 -9.74912076e-07 -2.56181293e-08 -7.70060257e-08 -8.56241169e-08  3.77282239e-08
 -6.06446259e-06 -2.27744484e-06 -8.22294225e-07  4.79486712e-07 -9.35964407e-07
 -2.82568375e-05 -1.11730523e-06 -4.05355213e-06 -3.82717534e-07 -3.49088078e-06