      -----------------------------------------------------------      
     |                   =====================                   |     
     |                           x T B                           |     
     |                   =====================                   |     
     |                         S. Grimme                         |     
     |          Mulliken Center for Theoretical Chemistry        |     
     |                    University of Bonn                     |     
      -----------------------------------------------------------      

   * xtb version 6.5.0 (97a52f5) compiled by 'conda@d2599ee0d4f4' on 2022-05-15

   xtb is free software: you can redistribute it and/or modify it under
   the terms of the GNU Lesser General Public License as published by
   the Free Software Foundation, either version 3 of the License, or
   (at your option) any later version.
   
   xtb is distributed in the hope that it will be useful,
   but WITHOUT ANY WARRANTY; without even the implied warranty of
   MERCHANTABILITY or FITNESS FOR A PARTICULAR PURPOSE.  See the
   GNU Lesser General Public License for more details.
   
   Cite this work as:
   * C. Bannwarth, E. Caldeweyher, S. Ehlert, A. Hansen, P. Pracht,
     J. Seibert, S. Spicher, S. Grimme, WIREs Comput. Mol. Sci., 2020, 11,
     e01493. DOI: 10.1002/wcms.1493
   
   for GFN2-xTB:
   * C. Bannwarth, S. Ehlert and S. Grimme., J. Chem. Theory Comput., 2019,
     15, 1652-1671. DOI: 10.1021/acs.jctc.8b01176
   for GFN1-xTB:
   * S. Grimme, C. Bannwarth, P. Shushkov, J. Chem. Theory Comput., 2017,
     13, 1989-2009. DOI: 10.1021/acs.jctc.7b00118
   for GFN0-xTB:
   * P. Pracht, E. Caldeweyher, S. Ehlert, S. Grimme, ChemRxiv, 2019, preprint.
     DOI: 10.26434/chemrxiv.8326202.v1
   for GFN-FF:
   * S. Spicher and S. Grimme, Angew. Chem. Int. Ed., 2020, 59, 15665-15673.
     DOI: 10.1002/anie.202004239
   
   for ALPB and GBSA implicit solvation:
   * S. Ehlert, M. Stahn, S. Spicher, S. Grimme, J. Chem. Theory Comput.,
     2021, 17, 4250-4261. DOI: 10.1021/acs.jctc.1c00471
   
   for DFT-D4:
   * E. Caldeweyher, C. Bannwarth and S. Grimme, J. Chem. Phys., 2017,
     147, 034112. DOI: 10.1063/1.4993215
   * E. Caldeweyher, S. Ehlert, A. Hansen, H. Neugebauer, S. Spicher,
     C. Bannwarth and S. Grimme, J. Chem. Phys., 2019, 150, 154122.
     DOI: 10.1063/1.5090222
   * E. Caldeweyher, J.-M. Mewes, S. Ehlert and S. Grimme, Phys. Chem. Chem. Phys.
     2020, 22, 8499-8512. DOI: 10.1039/D0CP00502A
   
   for sTDA-xTB:
   * S. Grimme and C. Bannwarth, J. Chem. Phys., 2016, 145, 054103.
     DOI: 10.1063/1.4959605
   
   in the mass-spec context:
   * V. Asgeirsson, C. Bauer and S. Grimme, Chem. Sci., 2017, 8, 4879.
     DOI: 10.1039/c7sc00601b
   * J. Koopman and S. Grimme, ACS Omega 2019, 4, 12, 15120-15133.
     DOI: 10.1021/acsomega.9b02011
   
   for metadynamics refer to:
   * S. Grimme, J. Chem. Theory Comput., 2019, 155, 2847-2862
     DOI: 10.1021/acs.jctc.9b00143
   
   for SPH calculations refer to:
   * S. Spicher and S. Grimme, J. Chem. Theory Comput., 2021, 17, 1701-1714
     DOI: 10.1021/acs.jctc.0c01306
   
   with help from (in alphabetical order)
   P. Atkinson, C. Bannwarth, F. Bohle, G. Brandenburg, E. Caldeweyher
   M. Checinski, S. Dohm, S. Ehlert, S. Ehrlich, I. Gerasimov, C. Hölzer
   A. Katbashev, J. Koopman, C. Lavigne, S. Lehtola, F. März, M. Müller,
   F. Musil, H. Neugebauer, J. Pisarek, C. Plett, P. Pracht, F. Pultar,
   J. Seibert, P. Shushkov, S. Spicher, M. Stahn, M. Steiner, T. Strunk,
   J. Stückrath, T. Rose, and J. Unsleber
   
 * started run on 2023/11/18 at 08:14:49.910     

           -------------------------------------------------
          |                Calculation Setup                |
           -------------------------------------------------

          program call               : /home/liuchw/anaconda3/envs/xtbenv/bin/xtb --gfn 2 --chrg 0 --uhf 0 13_34_Index_0-opt-2-3-121_preQMOPTprefit_xyzformat.xyz --opt --input xtb-opt-2-3-121_constr.txt
          hostname                   : node165.bme.utexas.edu
          coordinate file            : 13_34_Index_0-opt-2-3-121_preQMOPTprefit_xyzformat.xyz
          omp threads                :                    64

   ID    Z sym.   atoms
    1    6 C      1-3, 5, 7, 8, 10
    2    8 O      4, 6
    3    1 H      9, 11-15
constraining angle 1 2 3 4 to  121.0009493°, actual value:  121.0009493°
constraining angle 2 3 4 13 to  180.0053231°, actual value: -179.9946769°

           -------------------------------------------------
          |                 G F N 2 - x T B                 |
           -------------------------------------------------

        Reference                      10.1021/acs.jctc.8b01176
      * Hamiltonian:
        H0-scaling (s, p, d)           1.850000    2.230000    2.230000
        zeta-weighting                 0.500000
      * Dispersion:
        s8                             2.700000
        a1                             0.520000
        a2                             5.000000
        s9                             5.000000
      * Repulsion:
        kExp                           1.500000    1.000000
        rExp                           1.000000
      * Coulomb:
        alpha                          2.000000
        third order                    shell-resolved
        anisotropic                    true
        a3                             3.000000
        a5                             4.000000
        cn-shift                       1.200000
        cn-exp                         4.000000
        max-rad                        5.000000

q/qsh data taken from xtbrestart
CAMM data taken from xtbrestart

          ...................................................
          :                      SETUP                      :
          :.................................................:
          :  # basis functions                  42          :
          :  # atomic orbitals                  42          :
          :  # shells                           24          :
          :  # electrons                        46          :
          :  max. iterations                   250          :
          :  Hamiltonian                  GFN2-xTB          :
          :  restarted?                       true          :
          :  GBSA solvation                  false          :
          :  PC potential                    false          :
          :  electronic temp.          300.0000000     K    :
          :  accuracy                    1.0000000          :
          :  -> integral cutoff          0.2500000E+02      :
          :  -> integral neglect         0.1000000E-07      :
          :  -> SCF convergence          0.1000000E-05 Eh   :
          :  -> wf. convergence          0.1000000E-03 e    :
          :  Broyden damping             0.4000000          :
          ...................................................

 iter      E             dE          RMSdq      gap      omega  full diag
   1    -26.4981773 -0.264982E+02  0.141E+00    4.02       0.0  T
   2    -26.4983532 -0.175928E-03  0.828E-01    4.02       1.0  T
   3    -26.4978153  0.537916E-03  0.241E-01    4.00       1.0  T
   4    -26.4984846 -0.669323E-03  0.381E-02    4.00       1.0  T
   5    -26.4984872 -0.251118E-05  0.216E-02    4.00       1.2  T
   6    -26.4984879 -0.731146E-06  0.599E-03    4.00       4.3  T
   7    -26.4984881 -0.172363E-06  0.164E-03    4.00      15.7  T
   8    -26.4984881 -0.854482E-08  0.913E-04    4.00      28.3  T
   9    -26.4984881 -0.724990E-08  0.316E-04    4.00      81.8  T

   *** convergence criteria satisfied after 9 iterations ***

         #    Occupation            Energy/Eh            Energy/eV
      -------------------------------------------------------------
         1        2.0000           -0.7449905             -20.2722
       ...           ...                  ...                  ...
        17        2.0000           -0.4854545             -13.2099
        18        2.0000           -0.4779709             -13.0062
        19        2.0000           -0.4551089             -12.3841
        20        2.0000           -0.4383663             -11.9286
        21        2.0000           -0.4208524             -11.4520
        22        2.0000           -0.4169597             -11.3461
        23        2.0000           -0.4143684             -11.2755 (HOMO)
        24                         -0.2673552              -7.2751 (LUMO)
        25                         -0.2421588              -6.5895
        26                         -0.2260964              -6.1524
        27                         -0.1209344              -3.2908
        28                          0.0479502               1.3048
       ...                                ...                  ...
        42                          0.6010697              16.3559
      -------------------------------------------------------------
                  HL-Gap            0.1470132 Eh            4.0004 eV
             Fermi-level           -0.3408618 Eh           -9.2753 eV

 SCC (total)                   0 d,  0 h,  0 min,  1.486 sec
 SCC setup                      ...        0 min,  0.025 sec (  1.651%)
 Dispersion                     ...        0 min,  0.058 sec (  3.935%)
 classical contributions        ...        0 min,  0.022 sec (  1.475%)
 integral evaluation            ...        0 min,  0.064 sec (  4.277%)
 iterations                     ...        0 min,  1.102 sec ( 74.188%)
 molecular gradient             ...        0 min,  0.215 sec ( 14.439%)
 printout                       ...        0 min,  0.000 sec (  0.014%)

         :::::::::::::::::::::::::::::::::::::::::::::::::::::
         ::                     SUMMARY                     ::
         :::::::::::::::::::::::::::::::::::::::::::::::::::::
         :: total energy             -26.163141997805 Eh    ::
         :: gradient norm              0.061079036389 Eh/a0 ::
         :: HOMO-LUMO gap              4.000433161440 eV    ::
         ::.................................................::
         :: SCC energy               -26.498488079478 Eh    ::
         :: -> isotropic ES            0.048388351741 Eh    ::
         :: -> anisotropic ES          0.001640606829 Eh    ::
         :: -> anisotropic XC          0.010561428627 Eh    ::
         :: -> dispersion             -0.011668077470 Eh    ::
         :: repulsion energy           0.335325686490 Eh    ::
         :: add. restraining           0.000000000000 Eh    ::
         :: total charge               0.000000000000 e     ::
         :::::::::::::::::::::::::::::::::::::::::::::::::::::

      ----------------------------------------------------------- 
     |                   =====================                   |
     |                        A N C O P T                        |
     |                   =====================                   |
     |               Approximate Normal Coordinate               |
     |                Rational Function Optimizer                |
      ----------------------------------------------------------- 

          ...................................................
          :                      SETUP                      :
          :.................................................:
          :   optimization level            normal          :
          :   max. optcycles                   200          :
          :   ANC micro-cycles                  20          :
          :   degrees of freedom                39          :
          :.................................................:
          :   RF solver                   davidson          :
          :   write xtbopt.log                true          :
          :   linear?                        false          :
          :   energy convergence         0.5000000E-05 Eh   :
          :   grad. convergence          0.1000000E-02 Eh/α :
          :   maximium RF displ.         1.0000000          :
          :   Hlow (freq-cutoff)         0.1000000E-01      :
          :   Hmax (freq-cutoff)         5.0000000          :
          :   S6 in model hess.         20.0000000          :
          ...................................................

generating ANC from model Hessian ...
Using Lindh-Hessian (1995)
 Shifting diagonal of input Hessian by    5.8484742832326233E-003
 Lowest  eigenvalues of input Hessian
    0.000000    0.000000    0.000000    0.000000    0.000000    0.000000
    0.010000    0.016673    0.018624    0.022685    0.027158    0.029392
    0.048483    0.060883    0.074906    0.092244    0.092304    0.096957
 Highest eigenvalues
    1.677730    1.813787    1.873546    2.177920    4.516599    5.151670


........................................................................
.............................. CYCLE    1 ..............................
........................................................................
   1    -26.4984881 -0.264985E+02  0.131E-04    4.00       0.0  T
   2    -26.4984881 -0.500791E-10  0.817E-05    4.00     316.2  T
   3    -26.4984881 -0.254552E-10  0.514E-05    4.00     502.2  T
     SCC iter.                  ...        0 min,  0.403 sec
     gradient                   ...        0 min,  0.225 sec
 * total energy  :   -26.1631420 Eh     change       -0.2171099E-09 Eh
   gradient norm :     0.0610788 Eh/α   predicted     0.0000000E+00 (-100.00%)
   displ. norm   :     0.1874736 α      lambda       -0.8568076E-02
   maximum displ.:     0.1249769 α      in ANC's #20, #19, #18, ...

........................................................................
.............................. CYCLE    2 ..............................
........................................................................
   1    -26.5415647 -0.265416E+02  0.249E-01    4.20       0.0  T
   2    -26.5416124 -0.477080E-04  0.150E-01    4.19       1.0  T
   3    -26.5415970  0.154200E-04  0.601E-02    4.20       1.0  T
   4    -26.5416233 -0.263316E-04  0.821E-03    4.19       3.1  T
   5    -26.5416237 -0.408729E-06  0.474E-03    4.19       5.4  T
   6    -26.5416239 -0.117415E-06  0.216E-03    4.19      11.9  T
   7    -26.5416239 -0.466252E-08  0.597E-04    4.19      43.2  T
   8    -26.5416239 -0.217798E-08  0.218E-04    4.19     118.2  T
     SCC iter.                  ...        0 min,  0.936 sec
     gradient                   ...        0 min,  0.204 sec
 * total energy  :   -26.1682984 Eh     change       -0.5156393E-02 Eh
   gradient norm :     0.0144417 Eh/α   predicted    -0.4434609E-02 ( -14.00%)
   displ. norm   :     0.0754302 α      lambda       -0.5958021E-03
   maximum displ.:     0.0326315 α      in ANC's #4, #20, #1, ...

........................................................................
.............................. CYCLE    3 ..............................
........................................................................
   1    -26.5511700 -0.265512E+02  0.829E-02    4.23       0.0  T
   2    -26.5511768 -0.687213E-05  0.503E-02    4.22       1.0  T
   3    -26.5511758  0.102705E-05  0.223E-02    4.23       1.2  T
   4    -26.5511786 -0.278937E-05  0.318E-03    4.22       8.1  T
   5    -26.5511787 -0.110289E-06  0.157E-03    4.22      16.4  T
   6    -26.5511787 -0.451776E-08  0.670E-04    4.22      38.5  T
   7    -26.5511787 -0.981743E-09  0.155E-04    4.22     166.3  T
     SCC iter.                  ...        0 min,  0.744 sec
     gradient                   ...        0 min,  0.184 sec
 * total energy  :   -26.1686455 Eh     change       -0.3471162E-03 Eh
   gradient norm :     0.0064468 Eh/α   predicted    -0.2995967E-03 ( -13.69%)
   displ. norm   :     0.0503368 α      lambda       -0.1097559E-03
   maximum displ.:     0.0306784 α      in ANC's #1, #4, #16, ...

........................................................................
.............................. CYCLE    4 ..............................
........................................................................
   1    -26.5516346 -0.265516E+02  0.418E-02    4.22       0.0  T
   2    -26.5516362 -0.155677E-05  0.252E-02    4.22       1.0  T
   3    -26.5516359  0.260591E-06  0.988E-03    4.22       2.6  T
   4    -26.5516365 -0.569158E-06  0.179E-03    4.22      14.4  T
   5    -26.5516365 -0.305117E-07  0.906E-04    4.22      28.5  T
   6    -26.5516365 -0.312244E-08  0.487E-04    4.22      53.0  T
     SCC iter.                  ...        0 min,  0.632 sec
     gradient                   ...        0 min,  0.208 sec
 * total energy  :   -26.1687232 Eh     change       -0.7767953E-04 Eh
   gradient norm :     0.0033319 Eh/α   predicted    -0.5501741E-04 ( -29.17%)
   displ. norm   :     0.0539046 α      lambda       -0.5381519E-04
   maximum displ.:     0.0408762 α      in ANC's #1, #4, #16, ...

........................................................................
.............................. CYCLE    5 ..............................
........................................................................
   1    -26.5505222 -0.265505E+02  0.396E-02    4.21       0.0  T
   2    -26.5505226 -0.427757E-06  0.236E-02    4.21       1.1  T
   3    -26.5505224  0.172068E-06  0.538E-03    4.21       4.8  T
   4    -26.5505227 -0.295093E-06  0.134E-03    4.21      19.3  T
   5    -26.5505227 -0.597320E-08  0.811E-04    4.21      31.8  T
   6    -26.5505227 -0.220965E-08  0.317E-04    4.21      81.4  T
     SCC iter.                  ...        0 min,  0.734 sec
     gradient                   ...        0 min,  0.199 sec
 * total energy  :   -26.1687536 Eh     change       -0.3039427E-04 Eh
   gradient norm :     0.0022368 Eh/α   predicted    -0.2698541E-04 ( -11.22%)
   displ. norm   :     0.0183836 α      lambda       -0.5837899E-05
   maximum displ.:     0.0172024 α      in ANC's #1, #7, #16, ...

........................................................................
.............................. CYCLE    6 ..............................
........................................................................
   1    -26.5502964 -0.265503E+02  0.127E-02    4.21       0.0  T
   2    -26.5502965 -0.674186E-07  0.745E-03    4.21       3.5  T
   3    -26.5502965  0.166389E-07  0.164E-03    4.21      15.7  T
   4    -26.5502965 -0.233404E-07  0.527E-04    4.21      49.0  T
   5    -26.5502965 -0.334037E-08  0.226E-04    4.21     114.2  T
     SCC iter.                  ...        0 min,  0.517 sec
     gradient                   ...        0 min,  0.173 sec
 * total energy  :   -26.1687573 Eh     change       -0.3753020E-05 Eh
   gradient norm :     0.0010069 Eh/α   predicted    -0.2919253E-05 ( -22.22%)
   displ. norm   :     0.0204155 α      lambda       -0.2220371E-05
   maximum displ.:     0.0192873 α      in ANC's #1, #2, #6, ...

........................................................................
.............................. CYCLE    7 ..............................
........................................................................
   1    -26.5503043 -0.265503E+02  0.139E-02    4.21       0.0  T
   2    -26.5503045 -0.172161E-06  0.809E-03    4.21       3.2  T
   3    -26.5503045  0.270431E-07  0.279E-03    4.21       9.2  T
   4    -26.5503045 -0.439265E-07  0.670E-04    4.21      38.5  T
   5    -26.5503045 -0.593962E-08  0.246E-04    4.21     104.8  T
     SCC iter.                  ...        0 min,  0.564 sec
     gradient                   ...        0 min,  0.163 sec
 * total energy  :   -26.1687590 Eh     change       -0.1633703E-05 Eh
   gradient norm :     0.0004273 Eh/α   predicted    -0.1111922E-05 ( -31.94%)
   displ. norm   :     0.0059523 α      lambda       -0.5157373E-06
   maximum displ.:     0.0054464 α      in ANC's #1, #9, #16, ...

   *** GEOMETRY OPTIMIZATION CONVERGED AFTER 7 ITERATIONS ***

------------------------------------------------------------------------
 total energy gain   :        -0.0056170 Eh       -3.5247 kcal/mol
 total RMSD          :         0.0820742 a0        0.0434 Å
 total power (kW/mol):        -2.1067647 (step)   -2.1419 (real)
------------------------------------------------------------------------

 ANCopt (total)                0 d,  0 h,  0 min,  6.885 sec
 optimizer setup                ...        0 min,  0.000 sec (  0.007%)
 model hessian                  ...        0 min,  0.002 sec (  0.033%)
 ANC generation                 ...        0 min,  0.001 sec (  0.009%)
 coordinate transformation      ...        0 min,  0.000 sec (  0.004%)
 single point calculation       ...        0 min,  6.772 sec ( 98.349%)
 optimization log               ...        0 min,  0.005 sec (  0.076%)
 hessian update                 ...        0 min,  0.102 sec (  1.479%)
 rational function              ...        0 min,  0.002 sec (  0.024%)

================
 final structure:
================
15
 xtb: 6.5.0 (97a52f5)
C            0.89750334991678       -0.76228199196004       -0.49251379665661
C           -0.20702422657647       -0.01457602984717       -0.10021139249332
C           -1.52170873237745       -0.69077222875935        0.06407818459621
O           -1.99970299604883       -0.55507065052999        1.30948857217899
C           -0.06507818209918        1.33667691009711        0.19293891548255
O           -2.09139766309286       -1.32538778487755       -0.78385409239954
C            2.13334890877138       -0.15258161300218       -0.61126894350124
C            2.27025612352624        1.19902561340455       -0.34023692904171
H            0.77713234948212       -1.81306648702197       -0.70919132024616
C            1.17146531378999        1.94222921232387        0.05880498856310
H           -0.92339953371333        1.90842603820006        0.51220073637560
H            1.27971012395472        2.99506246832060        0.27352474288916
H           -2.85643821351011       -1.00368267173195        1.39255687335504
H            2.99147698437574       -0.73340530462828       -0.91508038512366
H            3.23559241360125        1.67353752001226       -0.43769714397842

 Bond Distances (Angstroems)
 ---------------------------
C1-C2=1.3903         C1-C7=1.3832         C1-H9=1.0796         C2-C1=1.3903         C2-C3=1.4875         C2-C5=1.3900         
C3-C2=1.4875         C3-O4=1.3409         C3-O6=1.2026         O4-C3=1.3409         O4-H13=0.9706        C5-C2=1.3900         
C5-C10=1.3834        C5-H11=1.0796        O6-C3=1.2026         C7-C1=1.3832         C7-C8=1.3853         C7-H14=1.0798        
C8-C7=1.3853         C8-C10=1.3853        C8-H15=1.0801        H9-C1=1.0796         C10-C5=1.3834        C10-C8=1.3853        
C10-H12=1.0799       H11-C5=1.0796        H12-C10=1.0799       H13-O4=0.9706        H14-C7=1.0798        H15-C8=1.0801        
 C  H  Rav=1.0798 sigma=0.0002  Rmin=1.0796  Rmax=1.0801     5
 C  C  Rav=1.4007 sigma=0.0355  Rmin=1.3832  Rmax=1.4875     7
 O  H  Rav=0.9706 sigma=0.0000  Rmin=0.9706  Rmax=0.9706     1
 O  C  Rav=1.2717 sigma=0.0691  Rmin=1.2026  Rmax=1.3409     2

 selected bond angles (degree)
 --------------------
C7-C1-C2=119.80                H9-C1-C2=119.44                H9-C1-C7=120.76                C3-C2-C1=119.26                
C5-C2-C1=120.08                C5-C2-C3=120.59                O4-C3-C2=111.82                O6-C3-C2=125.50                
O6-C3-O4=122.64                H13-O4-C3=110.33               C10-C5-C2=119.76               H11-C5-C2=119.74               
H11-C5-C10=120.50              C8-C7-C1=120.10                H14-C7-C1=119.81               H14-C7-C8=120.09               
C10-C8-C7=120.09               H15-C8-C7=119.96               H15-C8-C10=119.95              C8-C10-C5=120.14               
H12-C10-C5=119.81              H12-C10-C8=120.05              

 selected dihedral angles (degree)
 ---------------------------------
C3-C2-C1-C7=181.86            C3-C2-C1-H9=  2.37            C5-C2-C1-C7=358.94            C5-C2-C1-H9=179.46            
O4-C3-C2-C1=121.08            O4-C3-C2-C5=304.01            O6-C3-C2-C1=303.33            O6-C3-C2-C5=126.27            
H13-O4-C3-C2=180.01           H13-O4-C3-O6=357.83           C10-C5-C2-C1=  1.71           C10-C5-C2-C3=178.75           
H11-C5-C2-C1=180.97           H11-C5-C2-C3=358.01           C8-C7-C1-C2=  0.00            C8-C7-C1-H9=179.48            
H14-C7-C1-C2=179.94           H14-C7-C1-H9=359.43           C10-C8-C7-C1=  0.41           C10-C8-C7-H14=180.46          
H15-C8-C7-C1=180.25           H15-C8-C7-H14=  0.31          C8-C10-C5-C2=358.70           C8-C10-C5-H11=179.44          
H12-C10-C5-C2=179.17          H12-C10-C5-H11=359.91         C5-C10-C8-C7=  0.24           C5-C10-C8-H15=180.40          
H12-C10-C8-C7=179.77          H12-C10-C8-H15=359.93         
           -------------------------------------------------
          |                Final Singlepoint                |
           -------------------------------------------------

          ...................................................
          :                      SETUP                      :
          :.................................................:
          :  # basis functions                  42          :
          :  # atomic orbitals                  42          :
          :  # shells                           24          :
          :  # electrons                        46          :
          :  max. iterations                   250          :
          :  Hamiltonian                  GFN2-xTB          :
          :  restarted?                      false          :
          :  GBSA solvation                  false          :
          :  PC potential                    false          :
          :  electronic temp.          300.0000000     K    :
          :  accuracy                    1.0000000          :
          :  -> integral cutoff          0.2500000E+02      :
          :  -> integral neglect         0.1000000E-07      :
          :  -> SCF convergence          0.1000000E-05 Eh   :
          :  -> wf. convergence          0.1000000E-03 e    :
          :  Broyden damping             0.4000000          :
          ...................................................

 iter      E             dE          RMSdq      gap      omega  full diag
   1    -26.5503045 -0.265503E+02  0.151E-04    4.21       0.0  T
   2    -26.5503045 -0.343974E-10  0.999E-05    4.21     258.5  T
   3    -26.5503045  0.129674E-11  0.640E-05    4.21     403.3  T

   *** convergence criteria satisfied after 3 iterations ***

         #    Occupation            Energy/Eh            Energy/eV
      -------------------------------------------------------------
         1        2.0000           -0.7476850             -20.3455
       ...           ...                  ...                  ...
        17        2.0000           -0.4905504             -13.3486
        18        2.0000           -0.4785924             -13.0232
        19        2.0000           -0.4538397             -12.3496
        20        2.0000           -0.4363282             -11.8731
        21        2.0000           -0.4212053             -11.4616
        22        2.0000           -0.4190643             -11.4033
        23        2.0000           -0.4153228             -11.3015 (HOMO)
        24                         -0.2607230              -7.0946 (LUMO)
        25                         -0.2370703              -6.4510
        26                         -0.2149873              -5.8501
        27                         -0.1061349              -2.8881
        28                          0.0570119               1.5514
       ...                                ...                  ...
        42                          0.6671407              18.1538
      -------------------------------------------------------------
                  HL-Gap            0.1545998 Eh            4.2069 eV
             Fermi-level           -0.3380229 Eh           -9.1981 eV

 SCC (total)                   0 d,  0 h,  0 min,  0.581 sec
 SCC setup                      ...        0 min,  0.011 sec (  1.833%)
 Dispersion                     ...        0 min,  0.027 sec (  4.677%)
 classical contributions        ...        0 min,  0.009 sec (  1.568%)
 integral evaluation            ...        0 min,  0.039 sec (  6.691%)
 iterations                     ...        0 min,  0.300 sec ( 51.585%)
 molecular gradient             ...        0 min,  0.195 sec ( 33.542%)
 printout                       ...        0 min,  0.000 sec (  0.042%)

         :::::::::::::::::::::::::::::::::::::::::::::::::::::
         ::                     SUMMARY                     ::
         :::::::::::::::::::::::::::::::::::::::::::::::::::::
         :: total energy             -26.168758968267 Eh    ::
         :: gradient norm              0.000426951349 Eh/a0 ::
         :: HOMO-LUMO gap              4.206875459021 eV    ::
         ::.................................................::
         :: SCC energy               -26.550304511929 Eh    ::
         :: -> isotropic ES            0.048360851719 Eh    ::
         :: -> anisotropic ES          0.001365410495 Eh    ::
         :: -> anisotropic XC          0.008586189179 Eh    ::
         :: -> dispersion             -0.011799095226 Eh    ::
         :: repulsion energy           0.381521728888 Eh    ::
         :: add. restraining           0.000004276923 Eh    ::
         :: total charge               0.000000000000 e     ::
         :::::::::::::::::::::::::::::::::::::::::::::::::::::

           -------------------------------------------------
          |                Property Printout                |
           -------------------------------------------------

    * Orbital Energies and Occupations

         #    Occupation            Energy/Eh            Energy/eV
      -------------------------------------------------------------
         1        2.0000           -0.7476850             -20.3455
       ...           ...                  ...                  ...
        11        2.0000           -0.5650417             -15.3756
        12        2.0000           -0.5341421             -14.5347
        13        2.0000           -0.5084237             -13.8349
        14        2.0000           -0.5049570             -13.7406
        15        2.0000           -0.4943540             -13.4521
        16        2.0000           -0.4910318             -13.3617
        17        2.0000           -0.4905504             -13.3486
        18        2.0000           -0.4785924             -13.0232
        19        2.0000           -0.4538397             -12.3496
        20        2.0000           -0.4363282             -11.8731
        21        2.0000           -0.4212053             -11.4616
        22        2.0000           -0.4190643             -11.4033
        23        2.0000           -0.4153228             -11.3015 (HOMO)
        24                         -0.2607230              -7.0946 (LUMO)
        25                         -0.2370703              -6.4510
        26                         -0.2149873              -5.8501
        27                         -0.1061349              -2.8881
        28                          0.0570119               1.5514
        29                          0.1153931               3.1400
        30                          0.1259828               3.4282
        31                          0.1603830               4.3642
        32                          0.1623790               4.4186
        33                          0.1808463               4.9211
        34                          0.1928682               5.2482
       ...                                ...                  ...
        42                          0.6671407              18.1538
      -------------------------------------------------------------
                  HL-Gap            0.1545998 Eh            4.2069 eV
             Fermi-level           -0.3380229 Eh           -9.1981 eV

     #   Z          covCN         q      C6AA      α(0)
     1   6 C        2.923    -0.020    28.504     8.755
     2   6 C        2.974    -0.011    28.281     8.723
     3   6 C        2.696     0.360    20.884     7.479
     4   8 O        1.660    -0.377    20.399     6.097
     5   6 C        2.922    -0.020    28.518     8.757
     6   8 O        0.856    -0.407    21.813     6.262
     7   6 C        2.920    -0.025    28.617     8.773
     8   6 C        2.920    -0.024    28.599     8.770
     9   1 H        0.926     0.048     2.347     2.396
    10   6 C        2.920    -0.025    28.633     8.775
    11   1 H        0.926     0.045     2.383     2.414
    12   1 H        0.926     0.042     2.424     2.435
    13   1 H        0.804     0.329     0.640     1.257
    14   1 H        0.926     0.043     2.410     2.428
    15   1 H        0.926     0.041     2.435     2.440

 Mol. C6AA /au·bohr⁶  :       2940.020315
 Mol. C8AA /au·bohr⁸  :      71466.879140
 Mol. α(0) /au        :         85.760400


Wiberg/Mayer (AO) data.
largest (>0.10) Wiberg bond orders for each atom

 ---------------------------------------------------------------------------
     #   Z sym  total        # sym  WBO       # sym  WBO       # sym  WBO
 ---------------------------------------------------------------------------
     1   6 C    3.991 --     7 C    1.446     2 C    1.399     9 H    0.969
                            10 C    0.111
     2   6 C    3.988 --     5 C    1.401     1 C    1.399     3 C    0.977
                             8 C    0.108
     3   6 C    3.911 --     6 O    1.762     4 O    1.126     2 C    0.977
     4   8 O    2.201 --     3 C    1.126    13 H    0.866     6 O    0.176
     5   6 C    3.991 --    10 C    1.446     2 C    1.401    11 H    0.970
                             7 C    0.111
     6   8 O    2.042 --     3 C    1.762     4 O    0.176
     7   6 C    3.992 --     1 C    1.446     8 C    1.438    14 H    0.970
                             5 C    0.111
     8   6 C    3.992 --    10 C    1.438     7 C    1.438    15 H    0.971
                             2 C    0.108
     9   1 H    0.998 --     1 C    0.969
    10   6 C    3.992 --     5 C    1.446     8 C    1.438    12 H    0.970
                             1 C    0.111
    11   1 H    0.998 --     5 C    0.970
    12   1 H    0.998 --    10 C    0.970
    13   1 H    0.891 --     4 O    0.866
    14   1 H    0.998 --     7 C    0.970
    15   1 H    0.998 --     8 C    0.971
 ---------------------------------------------------------------------------

Topologies differ in total number of bonds
Writing topology from bond orders to xtbtopo.mol

molecular dipole:
                 x           y           z       tot (Debye)
 q only:        0.521       0.463       0.526
   full:        0.388       0.432       0.613       2.146
molecular quadrupole (traceless):
                xx          xy          yy          xz          yz          zz
 q only:        2.957      -0.966      -0.082      -6.292      -2.646      -2.874
  q+dip:        5.794      -0.795       1.727      -8.360      -2.607      -7.521
   full:        4.534      -1.292       0.727      -7.588      -3.655      -5.260

           -------------------------------------------------
          |                Geometry Summary                 |
           -------------------------------------------------

      molecular mass/u    :      122.1216056
   center of mass at/Å    :       -0.0386496       0.0596783      -0.0509903
  moments of inertia/u·Å² :        0.1289738E+03   0.4311694E+03   0.5119854E+03
rotational constants/cm⁻¹ :        0.1307059E+00   0.3909747E-01   0.3292600E-01

 * 14 selected distances

     #   Z          #   Z                                           value/Å
     1   6 C        2   6 C                                       1.3903046 (max)
     3   6 C        4   8 O                                       1.3408731
     2   6 C        5   6 C                                       1.3899535
     3   6 C        6   8 O                                       1.2026104
     1   6 C        7   6 C                                       1.3831674
     7   6 C        8   6 C                                       1.3852958
     1   6 C        9   1 H                                       1.0796234
     5   6 C       10   6 C                                       1.3833747
     8   6 C       10   6 C                                       1.3852536
     5   6 C       11   1 H                                       1.0796022
    10   6 C       12   1 H                                       1.0799443
     4   8 O       13   1 H                                       0.9706433 (min)
     7   6 C       14   1 H                                       1.0798340
     8   6 C       15   1 H                                       1.0800622

 * 4 distinct bonds (by element types)

   Z      Z             #   av. dist./Å        max./Å        min./Å
   1 H    6 C           5     1.0798132     1.0800622     1.0796022
   6 C    6 C           6     1.3862249     1.3903046     1.3831674
   1 H    8 O           1     0.9706433     0.9706433     0.9706433
   6 C    8 O           2     1.2717418     1.3408731     1.2026104


optimized geometry written to: xtbopt.xyz


           -------------------------------------------------
          | TOTAL ENERGY              -26.168758968267 Eh   |
          | GRADIENT NORM               0.000426951349 Eh/α |
          | HOMO-LUMO GAP               4.206875459021 eV   |
           -------------------------------------------------
########################################################################
[WARNING] Runtime exception occurred
-1- restart_readRestart: Number of electron missmatch in restart file.
########################################################################

------------------------------------------------------------------------
 * finished run on 2023/11/18 at 08:14:59.079     
------------------------------------------------------------------------
 total:
 * wall-time:     0 d,  0 h,  0 min,  9.170 sec
 *  cpu-time:     0 d,  0 h,  5 min,  8.420 sec
 * ratio c/w:    33.635 speedup
 SCF:
 * wall-time:     0 d,  0 h,  0 min,  1.486 sec
 *  cpu-time:     0 d,  0 h,  0 min, 48.279 sec
 * ratio c/w:    32.490 speedup
 ANC optimizer:
 * wall-time:     0 d,  0 h,  0 min,  7.496 sec
 *  cpu-time:     0 d,  0 h,  4 min, 14.413 sec
 * ratio c/w:    33.941 speedup

