9
 energy: -11.390372721095 gnorm: 0.000122987690 xtb: 6.5.0 (97a52f5)
O            1.01806362938281       -0.64868126240934        0.30462850942346
C            0.18744821892807        0.47828530250374        0.09587485036127
C           -1.26014791527669        0.03667407523642        0.28123295494927
H            0.34306757886953        0.86192770996944       -0.92232897588888
H            0.43951796013622        1.26874609681880        0.81629845607294
H           -1.87400575461263        0.86402105827378        0.62500895158873
H           -1.28232375337203       -0.74174587937997        1.04037749013825
H           -1.66813500714871       -0.36964597162900       -0.63843177810015
H            1.93824803309343       -0.39199312938387        0.18886054145509
