
    -----------------------------------------------------------------------
          Psi4: An Open-Source Ab Initio Electronic Structure Package
                               Psi4 1.9.1 release

                         Git: Rev {} zzzzzzz 


    D. G. A. Smith, L. A. Burns, A. C. Simmonett, R. M. Parrish,
    M. C. Schieber, R. Galvelis, P. Kraus, H. Kruse, R. Di Remigio,
    A. Alenaizan, A. M. James, S. Lehtola, J. P. Misiewicz, M. Scheurer,
    R. A. Shaw, J. B. Schriber, Y. Xie, Z. L. Glick, D. A. Sirianni,
    J. S. O'Brien, J. M. Waldrop, A. Kumar, E. G. Hohenstein,
    B. P. Pritchard, B. R. Brooks, H. F. Schaefer III, A. Yu. Sokolov,
    K. Patkowski, A. E. DePrince III, U. Bozkaya, R. A. King,
    F. A. Evangelista, J. M. Turney, T. D. Crawford, C. D. Sherrill,
    J. Chem. Phys. 152(18) 184108 (2020). https://doi.org/10.1063/5.0006002

                            Additional Code Authors
    E. T. Seidl, C. L. Janssen, E. F. Valeev, M. L. Leininger,
    J. F. Gonthier, R. M. Richard, H. R. McAlexander, M. Saitow, X. Wang,
    P. Verma, M. H. Lechner, A. Jiang, S. Behnle, A. G. Heide,
    M. F. Herbst, and D. L. Poole

             Previous Authors, Complete List of Code Contributors,
                       and Citations for Specific Modules
    https://github.com/psi4/psi4/blob/master/codemeta.json
    https://github.com/psi4/psi4/graphs/contributors
    http://psicode.org/psi4manual/master/introduction.html#citing-psifour

    -----------------------------------------------------------------------


    Psi4 started on: Wednesday, 19 February 2025 10:45AM

    Process ID: 2295756
    Host:       bme-earth.bme.utexas.edu
    PSIDATADIR: /home/liuchw/anaconda3/envs/poltype2024/share/psi4
    Memory:     500.0 MiB
    Threads:    1
    
  ==> Input File <==

--------------------------------------------------------------------------
molecule { 
0 1
 O    0.803757    0.108781   -0.868584
 C    0.249810    0.248217    0.426307
 C   -1.256759    0.037368    0.317575
 H    0.468189    1.254859    0.809712
 H    0.691148   -0.494580    1.105406
 H   -1.449348   -0.669043   -0.485250
 H   -1.754739    0.968846    0.061250
 H   -1.666141   -0.339036    1.249427
 H    1.755817    0.242177   -0.824322
}
memory 4GB
set_num_threads(2)
psi4_io.set_default_path("/scratch/liuchw/Psi4-ethanol")
set freeze_core True
E, wfn = energy('wb97x-d/6-311+G*',return_wfn=True)
oeprop(wfn,"WIBERG_LOWDIN_INDICES")
clean()
--------------------------------------------------------------------------

  Memory set to   3.725 GiB by Python driver.
  Threads set to 2 by Python driver.

Scratch directory: /scratch/liuchw/Psi4-ethanol/
   => Libint2 <=

    Primary   basis highest AM E, G, H:  6, 6, 3
    Auxiliary basis highest AM E, G, H:  7, 7, 4
    Onebody   basis highest AM E, G, H:  -, -, -
    Solid Harmonics ordering:            Gaussian

*** tstart() called on bme-earth.bme.utexas.edu
*** at Wed Feb 19 10:45:34 2025

   => Loading Basis Set <=

    Name: 6-311+G*
    Role: ORBITAL
    Keyword: BASIS
    atoms 1   entry O          line   172 file /home/liuchw/anaconda3/envs/poltype2024/share/psi4/basis/6-311pgs.gbs 
    atoms 2-3 entry C          line   130 file /home/liuchw/anaconda3/envs/poltype2024/share/psi4/basis/6-311pgs.gbs 
    atoms 4-9 entry H          line    47 file /home/liuchw/anaconda3/envs/poltype2024/share/psi4/basis/6-311pgs.gbs 

   => WB97X-D: Empirical Dispersion <=

    Chai and Head-Gordon Dispersion Correction
    Chai, J.-D.; Head-Gordon, M. (2010), J. Chem. Phys., 132: 6615-6620

        s6 =       1.000000


         ---------------------------------------------------------
                                   SCF
               by Justin Turney, Rob Parrish, Andy Simmonett
                          and Daniel G. A. Smith
                              RKS Reference
                        2 Threads,   3814 MiB Core
         ---------------------------------------------------------

  ==> Geometry <==

    Molecular point group: c1
    Full point group: C1

    Geometry (in Angstrom), charge = 0, multiplicity = 1:

       Center              X                  Y                   Z               Mass       
    ------------   -----------------  -----------------  -----------------  -----------------
         O            0.829771062029    -0.024526438419    -0.802663007757    15.994914619570
         C            0.275824062029     0.114909561581     0.492227992243    12.000000000000
         C           -1.230744937971    -0.095939438419     0.383495992243    12.000000000000
         H            0.494203062029     1.121551561581     0.875632992243     1.007825032230
         H            0.717162062029    -0.627887438419     1.171326992243     1.007825032230
         H           -1.423333937971    -0.802350438419    -0.419329007757     1.007825032230
         H           -1.728724937971     0.835538561581     0.127170992243     1.007825032230
         H           -1.640126937971    -0.472343438419     1.315347992243     1.007825032230
         H            1.781831062029     0.108869561581    -0.758401007757     1.007825032230

  Running in c1 symmetry.

  Rotational constants: A =      1.18067  B =      0.31277  C =      0.27255 [cm^-1]
  Rotational constants: A =  35395.66049  B =   9376.51228  C =   8170.85731 [MHz]
  Nuclear repulsion =   81.922585632441965

  Charge       = 0
  Multiplicity = 1
  Electrons    = 26
  Nalpha       = 13
  Nbeta        = 13

  ==> Algorithm <==

  SCF Algorithm Type is DF.
  DIIS enabled.
  MOM disabled.
  Fractional occupation disabled.
  Guess Type is SAD.
  Energy threshold   = 1.00e-06
  Density threshold  = 1.00e-06
  Integral threshold = 1.00e-12

  ==> Primary Basis <==

  Basis Set: 6-311+G*
    Blend: 6-311+G*
    Number of shells: 48
    Number of basis functions: 84
    Number of Cartesian functions: 87
    Spherical Harmonics?: true
    Max angular momentum: 2

  ==> DFT Potential <==

   => LibXC <=

    Version 6.2.2
    S. Lehtola, C. Steigemann, M. J.T. Oliveira, and M. A.L. Marques.,  SoftwareX 7, 1–5 (2018) (10.1016/j.softx.2017.11.002)

   => Composite Functional: WB97X-D <= 

    wB97X-D Hyb-GGA Exchange-Correlation Functional

    J.-D. Chai and M. Head-Gordon.,  Phys. Chem. Chem. Phys. 10, 6615-6620 (2008) (10.1039/B810189B)

    Deriv               =              1
    GGA                 =           TRUE
    Meta                =          FALSE

    Exchange Hybrid     =           TRUE
    MP2 Hybrid          =          FALSE

   => Exchange-Correlation Functionals <=

    1.0000   wB97X-D range-separated functional

   => Exact (HF) Exchange <=

    0.7780            HF,LR [omega = 0.2000]
    0.2220               HF 

   => LibXC Density Thresholds  <==

    XC_HYB_GGA_XC_WB97X_D:  1.00E-14 

   => Molecular Quadrature <=

    Radial Scheme          =       TREUTLER
    Pruning Scheme         =           NONE
    Nuclear Scheme         =       TREUTLER

    Blocking Scheme        =         OCTREE
    BS radius alpha        =              1
    Pruning alpha          =              1
    Radial Points          =             75
    Spherical Points       =            302
    Total Points           =         195502
    Total Blocks           =           1483
    Max Points             =            256
    Max Functions          =             84
    Weights Tolerance      =       1.00E-15

   => Loading Basis Set <=

    Name: (6-311+G* AUX)
    Role: JKFIT
    Keyword: DF_BASIS_SCF
    atoms 1   entry O          line   324 file /home/liuchw/anaconda3/envs/poltype2024/share/psi4/basis/heavy-aug-cc-pvtz-jkfit.gbs 
    atoms 2-3 entry C          line   200 file /home/liuchw/anaconda3/envs/poltype2024/share/psi4/basis/heavy-aug-cc-pvtz-jkfit.gbs 
    atoms 4-9 entry H          line   116 file /home/liuchw/anaconda3/envs/poltype2024/share/psi4/basis/heavy-aug-cc-pvtz-jkfit.gbs 

  ==> Integral Setup <==

  DFHelper Memory: AOs need 0.081 GiB; user supplied 2.375 GiB. 
  Using in-core AOs.

  ==> MemDFJK: Density-Fitted J/K Matrices <==

    J tasked:                   Yes
    K tasked:                   Yes
    wK tasked:                  Yes
    Omega:                2.000E-01
    OpenMP threads:               2
    Memory [MiB]:              2431
    Algorithm:                 Core
    Schwarz Cutoff:           1E-12
    Mask sparsity (%):       0.2834
    Fitting Condition:        1E-10

   => Auxiliary Basis Set <=

  Basis Set: (6-311+G* AUX)
    Blend: HEAVY-AUG-CC-PVTZ-JKFIT
    Number of shells: 150
    Number of basis functions: 492
    Number of Cartesian functions: 603
    Spherical Harmonics?: true
    Max angular momentum: 4

  Cached 100.0% of DFT collocation blocks in 0.419 [GiB].

  Minimum eigenvalue in the overlap matrix is 1.3293226640E-04.
  Reciprocal condition number of the overlap matrix is 1.5170400179E-05.
    Using symmetric orthogonalization.

  ==> Pre-Iterations <==

  SCF Guess: Superposition of Atomic Densities via on-the-fly atomic UHF (no occupation information).

   -------------------------
    Irrep   Nso     Nmo    
   -------------------------
     A         84      84 
   -------------------------
    Total      84      84
   -------------------------

  ==> Iterations <==

                           Total Energy        Delta E     RMS |[F,P]|

   @DF-RKS iter SAD:  -154.39859086966356   -1.54399e+02   0.00000e+00 
   @DF-RKS iter   1:  -154.77669774137880   -3.78107e-01   8.81640e-03 DIIS/ADIIS
   @DF-RKS iter   2:  -154.82522595464397   -4.85282e-02   8.50402e-03 DIIS/ADIIS
   @DF-RKS iter   3:  -155.02150629946703   -1.96280e-01   1.09543e-03 DIIS/ADIIS
   @DF-RKS iter   4:  -155.02440254530674   -2.89625e-03   3.31467e-04 DIIS/ADIIS
   @DF-RKS iter   5:  -155.02474133764977   -3.38792e-04   4.50959e-05 DIIS
   @DF-RKS iter   6:  -155.02475085484457   -9.51719e-06   1.37326e-05 DIIS
   @DF-RKS iter   7:  -155.02475153338406   -6.78539e-07   4.41616e-06 DIIS
   @DF-RKS iter   8:  -155.02475161389572   -8.05117e-08   6.91820e-07 DIIS
  Energy and wave function converged.


  ==> Post-Iterations <==

   Electrons on quadrature grid:
      Ntotal   =   25.9999953835 ; deviation = -4.616e-06 

    Orbital Energies [Eh]
    ---------------------

    Doubly Occupied:                                                      

       1A    -19.245516     2A    -10.328599     3A    -10.266577  
       4A     -1.128694     5A     -0.849193     6A     -0.709688  
       7A     -0.613306     8A     -0.558282     9A     -0.489161  
      10A     -0.471303    11A     -0.452871    12A     -0.416382  
      13A     -0.358509  

    Virtual:                                                              

      14A      0.064132    15A      0.085024    16A      0.098688  
      17A      0.102837    18A      0.129941    19A      0.134044  
      20A      0.137968    21A      0.180942    22A      0.211463  
      23A      0.220803    24A      0.240560    25A      0.254607  
      26A      0.274073    27A      0.295076    28A      0.299971  
      29A      0.310539    30A      0.317959    31A      0.331646  
      32A      0.383688    33A      0.416773    34A      0.485052  
      35A      0.504905    36A      0.533901    37A      0.576949  
      38A      0.599751    39A      0.636234    40A      0.695049  
      41A      0.702466    42A      0.710926    43A      0.729755  
      44A      0.757699    45A      0.799721    46A      0.956389  
      47A      1.065350    48A      1.098623    49A      1.141199  
      50A      1.163615    51A      1.283084    52A      1.403284  
      53A      1.597614    54A      1.623388    55A      1.662055  
      56A      1.705575    57A      1.717712    58A      1.804047  
      59A      1.833405    60A      1.880494    61A      2.086604  
      62A      2.290924    63A      2.506366    64A      2.555131  
      65A      2.592955    66A      2.602157    67A      2.622403  
      68A      2.885238    69A      2.945507    70A      3.003326  
      71A      3.097734    72A      3.156634    73A      3.237466  
      74A      3.279231    75A      3.331463    76A      3.457528  
      77A      3.833746    78A      4.075651    79A      5.103138  
      80A      5.240694    81A      5.546453    82A     23.594178  
      83A     23.790846    84A     49.999536  

    Final Occupation by Irrep:
              A 
    DOCC [    13 ]
    NA   [    13 ]
    NB   [    13 ]

  @DF-RKS Final Energy:  -155.02475161389572

   => Energetics <=

    Nuclear Repulsion Energy =             81.9225856324419652
    One-Electron Energy =                -372.0587535281568989
    Two-Electron Energy =                 149.9797745581936965
    DFT Exchange-Correlation Energy =     -14.8659655418486683
    Empirical Dispersion Energy =          -0.0023927345257867
    VV10 Nonlocal Energy =                  0.0000000000000000
    Total Energy =                       -155.0247516138957167

Computation Completed


Properties will be evaluated at   0.000000,   0.000000,   0.000000 [a0]

Properties computed using the SCF density matrix


 Multipole Moments:

 ------------------------------------------------------------------------------------
     Multipole            Electronic (a.u.)      Nuclear  (a.u.)        Total (a.u.)
 ------------------------------------------------------------------------------------

 L = 1.  Multiply by 2.5417464519 to convert [e a0] to [Debye]
 Dipole X            :          2.0595105           -1.6825108            0.3769997
 Dipole Y            :         -0.0115281            0.1530444            0.1415163
 Dipole Z            :         -1.5697670            2.1633373            0.5935703
 Magnitude           :                                                    0.7172735

 ------------------------------------------------------------------------------------

*** tstop() called on bme-earth.bme.utexas.edu at Wed Feb 19 10:45:36 2025
Module time:
	user time   =       4.91 seconds =       0.08 minutes
	system time =       0.17 seconds =       0.00 minutes
	total time  =          2 seconds =       0.03 minutes
Total time:
	user time   =       4.91 seconds =       0.08 minutes
	system time =       0.17 seconds =       0.00 minutes
	total time  =          2 seconds =       0.03 minutes


Properties will be evaluated at   0.000000,   0.000000,   0.000000 [a0]
OEProp: No title given, name of density matrix used for the following properties is 'SCF density'


  Wiberg Bond Indices using Orthogonal Lowdin Orbitals:

  Irrep: 1 Size: 9 x 9

                 1                   2                   3                   4                   5

    1     0.00000000000000     1.35643263170833     0.12776227454726     0.05523612819423     0.05674895743920
    2     1.35643263170833     0.00000000000000     1.20285316091643     0.87853346815623     0.87812897991748
    3     0.12776227454726     1.20285316091643     0.00000000000000     0.04109918600026     0.04111965192629
    4     0.05523612819423     0.87853346815623     0.04109918600026     0.00000000000000     0.00941240537695
    5     0.05674895743920     0.87812897991748     0.04111965192629     0.00941240537695     0.00000000000000
    6     0.02223558631811     0.04189511964046     0.90428513315248     0.00749696495110     0.00141310058475
    7     0.00594758314711     0.04296472019065     0.91689162263465     0.00755960152529     0.00792238289304
    8     0.00837911154802     0.05233153430387     0.91486739189209     0.00079545700359     0.00574497250205
    9     0.86156243272150     0.04001252524840     0.01342917810867     0.00381160769842     0.00379115597717

                 6                   7                   8                   9

    1     0.02223558631811     0.00594758314711     0.00837911154802     0.86156243272150
    2     0.04189511964046     0.04296472019065     0.05233153430387     0.04001252524840
    3     0.90428513315248     0.91689162263465     0.91486739189209     0.01342917810867
    4     0.00749696495110     0.00755960152529     0.00079545700359     0.00381160769842
    5     0.00141310058475     0.00792238289304     0.00574497250205     0.00379115597717
    6     0.00000000000000     0.00935141557414     0.01029300188868     0.00100953799856
    7     0.00935141557414     0.00000000000000     0.00981436733115     0.00008304654604
    8     0.01029300188868     0.00981436733115     0.00000000000000     0.00046197237647
    9     0.00100953799856     0.00008304654604     0.00046197237647     0.00000000000000



  Atomic Valences: 

 #  #
 Irrep: 1
      1:    2.494304705623752
      2:    4.493152140081837
      3:    4.162307599178129
      4:    1.003944818906075
      5:    1.004281606616924
      6:    0.997979860108282
      7:    1.000534739842081
      8:    1.002687808845907
      9:    0.924161456675237


    Psi4 stopped on: Wednesday, 19 February 2025 10:45AM
    Psi4 wall time for execution: 0:00:02.73

*** Psi4 exiting successfully. Buy a developer a beer!
