9
 energy: -11.392472628290 gnorm: 0.000852659253 xtb: 6.5.0 (97a52f5)
O            1.04068834986033       -0.01388096736973       -0.70210829204424
C            0.23166159870173        0.55426418300810        0.30758881851827
C           -1.19046157202853        0.00170934618103        0.28844285284535
H            0.23138357008129        1.63235050804245        0.12109651213494
H            0.67930141103800        0.39281625696532        1.29691287197505
H           -1.63847110582367        0.17097986075610       -0.68692994695292
H           -1.79168233728377        0.49650363656623        1.04632609104762
H           -1.18515684216868       -1.06835036703440        0.48623045570986
H            1.46446993762330       -0.80880245711510       -0.36603637323394
