      -----------------------------------------------------------      
     |                   =====================                   |     
     |                           x T B                           |     
     |                   =====================                   |     
     |                         S. Grimme                         |     
     |          Mulliken Center for Theoretical Chemistry        |     
     |                    University of Bonn                     |     
      -----------------------------------------------------------      

   * xtb version 6.5.0 (97a52f5) compiled by 'conda@d2599ee0d4f4' on 2022-05-15

   xtb is free software: you can redistribute it and/or modify it under
   the terms of the GNU Lesser General Public License as published by
   the Free Software Foundation, either version 3 of the License, or
   (at your option) any later version.
   
   xtb is distributed in the hope that it will be useful,
   but WITHOUT ANY WARRANTY; without even the implied warranty of
   MERCHANTABILITY or FITNESS FOR A PARTICULAR PURPOSE.  See the
   GNU Lesser General Public License for more details.
   
   Cite this work as:
   * C. Bannwarth, E. Caldeweyher, S. Ehlert, A. Hansen, P. Pracht,
     J. Seibert, S. Spicher, S. Grimme, WIREs Comput. Mol. Sci., 2020, 11,
     e01493. DOI: 10.1002/wcms.1493
   
   for GFN2-xTB:
   * C. Bannwarth, S. Ehlert and S. Grimme., J. Chem. Theory Comput., 2019,
     15, 1652-1671. DOI: 10.1021/acs.jctc.8b01176
   for GFN1-xTB:
   * S. Grimme, C. Bannwarth, P. Shushkov, J. Chem. Theory Comput., 2017,
     13, 1989-2009. DOI: 10.1021/acs.jctc.7b00118
   for GFN0-xTB:
   * P. Pracht, E. Caldeweyher, S. Ehlert, S. Grimme, ChemRxiv, 2019, preprint.
     DOI: 10.26434/chemrxiv.8326202.v1
   for GFN-FF:
   * S. Spicher and S. Grimme, Angew. Chem. Int. Ed., 2020, 59, 15665-15673.
     DOI: 10.1002/anie.202004239
   
   for ALPB and GBSA implicit solvation:
   * S. Ehlert, M. Stahn, S. Spicher, S. Grimme, J. Chem. Theory Comput.,
     2021, 17, 4250-4261. DOI: 10.1021/acs.jctc.1c00471
   
   for DFT-D4:
   * E. Caldeweyher, C. Bannwarth and S. Grimme, J. Chem. Phys., 2017,
     147, 034112. DOI: 10.1063/1.4993215
   * E. Caldeweyher, S. Ehlert, A. Hansen, H. Neugebauer, S. Spicher,
     C. Bannwarth and S. Grimme, J. Chem. Phys., 2019, 150, 154122.
     DOI: 10.1063/1.5090222
   * E. Caldeweyher, J.-M. Mewes, S. Ehlert and S. Grimme, Phys. Chem. Chem. Phys.
     2020, 22, 8499-8512. DOI: 10.1039/D0CP00502A
   
   for sTDA-xTB:
   * S. Grimme and C. Bannwarth, J. Chem. Phys., 2016, 145, 054103.
     DOI: 10.1063/1.4959605
   
   in the mass-spec context:
   * V. Asgeirsson, C. Bauer and S. Grimme, Chem. Sci., 2017, 8, 4879.
     DOI: 10.1039/c7sc00601b
   * J. Koopman and S. Grimme, ACS Omega 2019, 4, 12, 15120-15133.
     DOI: 10.1021/acsomega.9b02011
   
   for metadynamics refer to:
   * S. Grimme, J. Chem. Theory Comput., 2019, 155, 2847-2862
     DOI: 10.1021/acs.jctc.9b00143
   
   for SPH calculations refer to:
   * S. Spicher and S. Grimme, J. Chem. Theory Comput., 2021, 17, 1701-1714
     DOI: 10.1021/acs.jctc.0c01306
   
   with help from (in alphabetical order)
   P. Atkinson, C. Bannwarth, F. Bohle, G. Brandenburg, E. Caldeweyher
   M. Checinski, S. Dohm, S. Ehlert, S. Ehrlich, I. Gerasimov, C. Hölzer
   A. Katbashev, J. Koopman, C. Lavigne, S. Lehtola, F. März, M. Müller,
   F. Musil, H. Neugebauer, J. Pisarek, C. Plett, P. Pracht, F. Pultar,
   J. Seibert, P. Shushkov, S. Spicher, M. Stahn, M. Steiner, T. Strunk,
   J. Stückrath, T. Rose, and J. Unsleber
   
 * started run on 2025/02/19 at 10:41:25.364     

           -------------------------------------------------
          |                Calculation Setup                |
           -------------------------------------------------

          program call               : /home/liuchw/anaconda3/envs/xtbenv/bin/xtb --gfn 2 --chrg 0 --uhf 0 ethanol-opt-2-3-121_preQMOPTprefit_xyzformat.xyz --opt --input xtb-opt-2-3-121_constr.txt
          hostname                   : bme-earth.bme.utexas.edu
          coordinate file            : ethanol-opt-2-3-121_preQMOPTprefit_xyzformat.xyz
          omp threads                :                    24

   ID    Z sym.   atoms
    1    8 O      1
    2    6 C      2, 3
    3    1 H      4-9
constraining angle 4 2 3 6 to  120.9734000°, actual value:  120.9733633°
constraining angle 9 1 2 4 to   59.6705000°, actual value:   59.6704707°

           -------------------------------------------------
          |                 G F N 2 - x T B                 |
           -------------------------------------------------

        Reference                      10.1021/acs.jctc.8b01176
      * Hamiltonian:
        H0-scaling (s, p, d)           1.850000    2.230000    2.230000
        zeta-weighting                 0.500000
      * Dispersion:
        s8                             2.700000
        a1                             0.520000
        a2                             5.000000
        s9                             5.000000
      * Repulsion:
        kExp                           1.500000    1.000000
        rExp                           1.000000
      * Coulomb:
        alpha                          2.000000
        third order                    shell-resolved
        anisotropic                    true
        a3                             3.000000
        a5                             4.000000
        cn-shift                       1.200000
        cn-exp                         4.000000
        max-rad                        5.000000

q/qsh data taken from xtbrestart
CAMM data taken from xtbrestart

          ...................................................
          :                      SETUP                      :
          :.................................................:
          :  # basis functions                  18          :
          :  # atomic orbitals                  18          :
          :  # shells                           12          :
          :  # electrons                        20          :
          :  max. iterations                   250          :
          :  Hamiltonian                  GFN2-xTB          :
          :  restarted?                       true          :
          :  GBSA solvation                  false          :
          :  PC potential                    false          :
          :  electronic temp.          300.0000000     K    :
          :  accuracy                    1.0000000          :
          :  -> integral cutoff          0.2500000E+02      :
          :  -> integral neglect         0.1000000E-07      :
          :  -> SCF convergence          0.1000000E-05 Eh   :
          :  -> wf. convergence          0.1000000E-03 e    :
          :  Broyden damping             0.4000000          :
          ...................................................

 iter      E             dE          RMSdq      gap      omega  full diag
   1    -11.5029272 -0.115029E+02  0.757E-01   11.99       0.0  T
   2    -11.5029501 -0.229006E-04  0.459E-01   11.99       1.0  T
   3    -11.5029549 -0.481788E-05  0.260E-02   11.99       1.3  T
   4    -11.5029568 -0.188450E-05  0.115E-02   11.99       2.9  T
   5    -11.5029568 -0.540927E-07  0.261E-03   11.99      12.8  T
   6    -11.5029568 -0.279936E-08  0.939E-04   11.99      35.5  T
   7    -11.5029568 -0.331543E-09  0.208E-04   11.99     160.1  T

   *** convergence criteria satisfied after 7 iterations ***

         #    Occupation            Energy/Eh            Energy/eV
      -------------------------------------------------------------
         1        2.0000           -0.6823026             -18.5664
       ...           ...                  ...                  ...
         4        2.0000           -0.5657045             -15.3936
         5        2.0000           -0.5286492             -14.3853
         6        2.0000           -0.5052610             -13.7489
         7        2.0000           -0.4623810             -12.5820
         8        2.0000           -0.4596742             -12.5084
         9        2.0000           -0.4540425             -12.3551
        10        2.0000           -0.4073071             -11.0834 (HOMO)
        11                          0.0334100               0.9091 (LUMO)
        12                          0.1175241               3.1980
        13                          0.1185230               3.2252
        14                          0.1213672               3.3026
        15                          0.1784316               4.8554
       ...                                ...                  ...
        18                          0.2783954               7.5755
      -------------------------------------------------------------
                  HL-Gap            0.4407171 Eh           11.9925 eV
             Fermi-level           -0.1869485 Eh           -5.0871 eV

 SCC (total)                   0 d,  0 h,  0 min,  0.338 sec
 SCC setup                      ...        0 min,  0.005 sec (  1.361%)
 Dispersion                     ...        0 min,  0.018 sec (  5.435%)
 classical contributions        ...        0 min,  0.009 sec (  2.745%)
 integral evaluation            ...        0 min,  0.028 sec (  8.170%)
 iterations                     ...        0 min,  0.201 sec ( 59.499%)
 molecular gradient             ...        0 min,  0.077 sec ( 22.764%)
 printout                       ...        0 min,  0.000 sec (  0.019%)

         :::::::::::::::::::::::::::::::::::::::::::::::::::::
         ::                     SUMMARY                     ::
         :::::::::::::::::::::::::::::::::::::::::::::::::::::
         :: total energy             -11.387670802384 Eh    ::
         :: gradient norm              0.027028007218 Eh/a0 ::
         :: HOMO-LUMO gap             11.992522888699 eV    ::
         ::.................................................::
         :: SCC energy               -11.502956814147 Eh    ::
         :: -> isotropic ES            0.025699118451 Eh    ::
         :: -> anisotropic ES          0.003237799987 Eh    ::
         :: -> anisotropic XC          0.002680855132 Eh    ::
         :: -> dispersion             -0.002763708322 Eh    ::
         :: repulsion energy           0.115285513756 Eh    ::
         :: add. restraining           0.000000000002 Eh    ::
         :: total charge               0.000000000000 e     ::
         :::::::::::::::::::::::::::::::::::::::::::::::::::::

      ----------------------------------------------------------- 
     |                   =====================                   |
     |                        A N C O P T                        |
     |                   =====================                   |
     |               Approximate Normal Coordinate               |
     |                Rational Function Optimizer                |
      ----------------------------------------------------------- 

          ...................................................
          :                      SETUP                      :
          :.................................................:
          :   optimization level            normal          :
          :   max. optcycles                   200          :
          :   ANC micro-cycles                  20          :
          :   degrees of freedom                21          :
          :.................................................:
          :   RF solver                   davidson          :
          :   write xtbopt.log                true          :
          :   linear?                        false          :
          :   energy convergence         0.5000000E-05 Eh   :
          :   grad. convergence          0.1000000E-02 Eh/α :
          :   maximium RF displ.         1.0000000          :
          :   Hlow (freq-cutoff)         0.1000000E-01      :
          :   Hmax (freq-cutoff)         5.0000000          :
          :   S6 in model hess.         20.0000000          :
          ...................................................

generating ANC from model Hessian ...
Using Lindh-Hessian (1995)
 Shifting diagonal of input Hessian by    0.0000000000000000     
 Lowest  eigenvalues of input Hessian
    0.000000    0.000000    0.000000    0.000000    0.000000    0.000000
    0.021690    0.024997    0.049138    0.054226    0.071964    0.077178
    0.084287    0.105515    0.127530    0.141850    0.224641    0.380463
 Highest eigenvalues
    1.075888    1.163979    1.178742    1.351357    5.939877    9.716800


........................................................................
.............................. CYCLE    1 ..............................
........................................................................
   1    -11.5029568 -0.115030E+02  0.403E-05   11.99       0.0  T
   2    -11.5029568 -0.232703E-12  0.237E-05   11.99    1403.7  T
   3    -11.5029568 -0.905942E-13  0.289E-06   11.99   11543.6  T
     SCC iter.                  ...        0 min,  0.086 sec
     gradient                   ...        0 min,  0.081 sec
 * total energy  :   -11.3876708 Eh     change       -0.3015543E-10 Eh
   gradient norm :     0.0270275 Eh/α   predicted     0.0000000E+00 (-100.00%)
   displ. norm   :     0.1195519 α      lambda       -0.1545374E-02
   maximum displ.:     0.0695529 α      in ANC's #5, #3, #4, ...

........................................................................
.............................. CYCLE    2 ..............................
........................................................................
   1    -11.5074470 -0.115074E+02  0.206E-01   12.23       0.0  T
   2    -11.5074523 -0.530872E-05  0.122E-01   12.23       1.0  T
   3    -11.5074525 -0.224425E-06  0.133E-02   12.23       2.5  T
   4    -11.5074531 -0.563332E-06  0.371E-03   12.23       9.0  T
   5    -11.5074531 -0.510769E-08  0.152E-03   12.23      22.0  T
   6    -11.5074531 -0.888640E-09  0.432E-04   12.23      77.1  T
   7    -11.5074531 -0.793232E-10  0.566E-05   12.23     588.8  T
     SCC iter.                  ...        0 min,  0.198 sec
     gradient                   ...        0 min,  0.075 sec
 * total energy  :   -11.3885254 Eh     change       -0.8545495E-03 Eh
   gradient norm :     0.0079313 Eh/α   predicted    -0.7837329E-03 (  -8.29%)
   displ. norm   :     0.0443609 α      lambda       -0.1255527E-03
   maximum displ.:     0.0292894 α      in ANC's #1, #2, #4, ...

........................................................................
.............................. CYCLE    3 ..............................
........................................................................
   1    -11.5090228 -0.115090E+02  0.418E-02   12.37       0.0  T
   2    -11.5090232 -0.434897E-06  0.248E-02   12.37       1.3  T
   3    -11.5090232 -0.245299E-07  0.412E-03   12.37       8.1  T
   4    -11.5090232 -0.337367E-07  0.110E-03   12.37      30.3  T
   5    -11.5090232 -0.734213E-09  0.494E-04   12.37      67.4  T
   6    -11.5090232 -0.859277E-10  0.147E-04   12.37     226.3  T
     SCC iter.                  ...        0 min,  0.171 sec
     gradient                   ...        0 min,  0.075 sec
 * total energy  :   -11.3885978 Eh     change       -0.7243308E-04 Eh
   gradient norm :     0.0030406 Eh/α   predicted    -0.6289802E-04 ( -13.16%)
   displ. norm   :     0.0110632 α      lambda       -0.1424904E-04
   maximum displ.:     0.0060743 α      in ANC's #1, #7, #5, ...

........................................................................
.............................. CYCLE    4 ..............................
........................................................................
   1    -11.5092250 -0.115092E+02  0.113E-02   12.40       0.0  T
   2    -11.5092251 -0.597499E-07  0.665E-03   12.40       5.0  T
   3    -11.5092251 -0.308793E-08  0.185E-03   12.40      18.0  T
   4    -11.5092251 -0.453799E-08  0.382E-04   12.40      87.2  T
   5    -11.5092251 -0.771188E-10  0.154E-04   12.40     216.8  T
     SCC iter.                  ...        0 min,  0.145 sec
     gradient                   ...        0 min,  0.073 sec
 * total energy  :   -11.3886062 Eh     change       -0.8435456E-05 Eh
   gradient norm :     0.0014970 Eh/α   predicted    -0.7124218E-05 ( -15.54%)
   displ. norm   :     0.0064623 α      lambda       -0.2230911E-05
   maximum displ.:     0.0044799 α      in ANC's #7, #3, #5, ...

........................................................................
.............................. CYCLE    5 ..............................
........................................................................
   1    -11.5090419 -0.115090E+02  0.743E-03   12.41       0.0  T
   2    -11.5090419 -0.180004E-07  0.434E-03   12.41       7.7  T
   3    -11.5090419 -0.704430E-09  0.904E-04   12.41      36.9  T
   4    -11.5090419 -0.142544E-08  0.204E-04   12.41     163.1  T
     SCC iter.                  ...        0 min,  0.107 sec
     gradient                   ...        0 min,  0.073 sec
 * total energy  :   -11.3886068 Eh     change       -0.5364381E-06 Eh
   gradient norm :     0.0028938 Eh/α   predicted    -0.1116089E-05 ( 108.06%)
   displ. norm   :     0.0018866 α      lambda       -0.1066358E-05
   maximum displ.:     0.0016675 α      in ANC's #1, #7, #5, ...

........................................................................
.............................. CYCLE    6 ..............................
........................................................................
   1    -11.5090070 -0.115090E+02  0.155E-03   12.41       0.0  T
   2    -11.5090070 -0.452662E-09  0.917E-04   12.41      36.4  T
   3    -11.5090070 -0.564278E-10  0.889E-05   12.41     374.9  T
     SCC iter.                  ...        0 min,  0.089 sec
     gradient                   ...        0 min,  0.073 sec
 * total energy  :   -11.3886073 Eh     change       -0.5883027E-06 Eh
   gradient norm :     0.0002387 Eh/α   predicted    -0.5346041E-06 (  -9.13%)
   displ. norm   :     0.0025756 α      lambda       -0.1985226E-06
   maximum displ.:     0.0014930 α      in ANC's #7, #1, #4, ...

   *** GEOMETRY OPTIMIZATION CONVERGED AFTER 6 ITERATIONS ***

------------------------------------------------------------------------
 total energy gain   :        -0.0009365 Eh       -0.5877 kcal/mol
 total RMSD          :         0.0457567 a0        0.0242 Å
 total power (kW/mol):        -0.4098155 (step)   -1.8598 (real)
------------------------------------------------------------------------

 ANCopt (total)                0 d,  0 h,  0 min,  1.322 sec
 optimizer setup                ...        0 min,  0.000 sec (  0.012%)
 model hessian                  ...        0 min,  0.003 sec (  0.217%)
 ANC generation                 ...        0 min,  0.000 sec (  0.011%)
 coordinate transformation      ...        0 min,  0.000 sec (  0.001%)
 single point calculation       ...        0 min,  1.317 sec ( 99.599%)
 optimization log               ...        0 min,  0.002 sec (  0.126%)
 hessian update                 ...        0 min,  0.000 sec (  0.003%)
 rational function              ...        0 min,  0.000 sec (  0.017%)

================
 final structure:
================
9
 xtb: 6.5.0 (97a52f5)
O            0.83794804630494       -0.08603813708710       -0.81345586599382
C            0.24302052091496        0.30995322988056        0.40696121350035
C           -1.26052037139916        0.03868658604438        0.31517811796238
H            0.43232287809497        1.37814982935093        0.58434539576378
H            0.68712759604013       -0.25407957009382        1.23924727082244
H           -1.46462845224746       -0.39723931708592       -0.65898292524251
H           -1.83499737890766        0.95518768000020        0.40985108724189
H           -1.58521692328691       -0.65818901416062        1.08171340275355
H            1.78667808448617        0.07115671315138       -0.77333470680806

 Bond Distances (Angstroems)
 ---------------------------
O1-C2=1.4143         O1-H9=0.9625         C2-O1=1.4143         C2-C3=1.5306         C2-H4=1.0992         C2-H5=1.0991         
C3-C2=1.5306         C3-H6=1.0866         C3-H7=1.0858         C3-H8=1.0857         H4-C2=1.0992         H5-C2=1.0991         
H6-C3=1.0866         H7-C3=1.0858         H8-C3=1.0857         H9-O1=0.9625         
 C  H  Rav=1.0913 sigma=0.0065  Rmin=1.0857  Rmax=1.0992     5
 C  C  Rav=1.5306 sigma=0.0000  Rmin=1.5306  Rmax=1.5306     1
 O  H  Rav=0.9625 sigma=0.0000  Rmin=0.9625  Rmax=0.9625     1
 O  C  Rav=1.4143 sigma=0.0000  Rmin=1.4143  Rmax=1.4143     1

 selected bond angles (degree)
 --------------------
H9-O1-C2=109.45                C3-C2-O1=108.17                H4-C2-O1=109.81                H4-C2-C3=110.55                
H5-C2-O1=109.86                H5-C2-C3=110.57                H5-C2-H4=107.87                H6-C3-C2=108.02                
H7-C3-C2=111.40                H7-C3-H6=108.51                H8-C3-C2=111.42                H8-C3-H6=108.62                
H8-C3-H7=108.78                

 selected dihedral angles (degree)
 ---------------------------------
C3-C2-O1-H9=180.40            H4-C2-O1-H9= 59.67            H5-C2-O1-H9=301.18            H6-C3-C2-O1=  0.71            
H6-C3-C2-H4=120.97            H6-C3-C2-H5=240.37            H7-C3-C2-O1=241.63            H7-C3-C2-H4=  1.89            
H7-C3-C2-H5=121.29            H8-C3-C2-O1=119.94            H8-C3-C2-H4=240.21            H8-C3-C2-H5=359.60            
           -------------------------------------------------
          |                Final Singlepoint                |
           -------------------------------------------------

          ...................................................
          :                      SETUP                      :
          :.................................................:
          :  # basis functions                  18          :
          :  # atomic orbitals                  18          :
          :  # shells                           12          :
          :  # electrons                        20          :
          :  max. iterations                   250          :
          :  Hamiltonian                  GFN2-xTB          :
          :  restarted?                      false          :
          :  GBSA solvation                  false          :
          :  PC potential                    false          :
          :  electronic temp.          300.0000000     K    :
          :  accuracy                    1.0000000          :
          :  -> integral cutoff          0.2500000E+02      :
          :  -> integral neglect         0.1000000E-07      :
          :  -> SCF convergence          0.1000000E-05 Eh   :
          :  -> wf. convergence          0.1000000E-03 e    :
          :  Broyden damping             0.4000000          :
          ...................................................

 iter      E             dE          RMSdq      gap      omega  full diag
   1    -11.5090070 -0.115090E+02  0.351E-05   12.41       0.0  T
   2    -11.5090070 -0.666134E-12  0.211E-05   12.41    1582.7  T
   3    -11.5090070 -0.223821E-12  0.537E-06   12.41    6205.2  T

   *** convergence criteria satisfied after 3 iterations ***

         #    Occupation            Energy/Eh            Energy/eV
      -------------------------------------------------------------
         1        2.0000           -0.6850180             -18.6403
       ...           ...                  ...                  ...
         4        2.0000           -0.5670639             -15.4306
         5        2.0000           -0.5300601             -14.4237
         6        2.0000           -0.5043978             -13.7254
         7        2.0000           -0.4636642             -12.6169
         8        2.0000           -0.4605320             -12.5317
         9        2.0000           -0.4507229             -12.2648
        10        2.0000           -0.4062572             -11.0548 (HOMO)
        11                          0.0498038               1.3552 (LUMO)
        12                          0.1143025               3.1103
        13                          0.1333000               3.6273
        14                          0.1338450               3.6421
        15                          0.1879856               5.1153
       ...                                ...                  ...
        18                          0.2903400               7.9006
      -------------------------------------------------------------
                  HL-Gap            0.4560610 Eh           12.4101 eV
             Fermi-level           -0.1782267 Eh           -4.8498 eV

 SCC (total)                   0 d,  0 h,  0 min,  0.159 sec
 SCC setup                      ...        0 min,  0.000 sec (  0.024%)
 Dispersion                     ...        0 min,  0.000 sec (  0.020%)
 classical contributions        ...        0 min,  0.000 sec (  0.008%)
 integral evaluation            ...        0 min,  0.000 sec (  0.072%)
 iterations                     ...        0 min,  0.084 sec ( 52.886%)
 molecular gradient             ...        0 min,  0.074 sec ( 46.945%)
 printout                       ...        0 min,  0.000 sec (  0.035%)

         :::::::::::::::::::::::::::::::::::::::::::::::::::::
         ::                     SUMMARY                     ::
         :::::::::::::::::::::::::::::::::::::::::::::::::::::
         :: total energy             -11.388607345210 Eh    ::
         :: gradient norm              0.000238590245 Eh/a0 ::
         :: HOMO-LUMO gap             12.410052807211 eV    ::
         ::.................................................::
         :: SCC energy               -11.509007028938 Eh    ::
         :: -> isotropic ES            0.025598261347 Eh    ::
         :: -> anisotropic ES          0.002747728450 Eh    ::
         :: -> anisotropic XC          0.002214482965 Eh    ::
         :: -> dispersion             -0.002767609812 Eh    ::
         :: repulsion energy           0.120399202606 Eh    ::
         :: add. restraining           0.000000004336 Eh    ::
         :: total charge              -0.000000000000 e     ::
         :::::::::::::::::::::::::::::::::::::::::::::::::::::

           -------------------------------------------------
          |                Property Printout                |
           -------------------------------------------------

    * Orbital Energies and Occupations

         #    Occupation            Energy/Eh            Energy/eV
      -------------------------------------------------------------
         1        2.0000           -0.6850180             -18.6403
         2        2.0000           -0.6251788             -17.0120
         3        2.0000           -0.5794886             -15.7687
         4        2.0000           -0.5670639             -15.4306
         5        2.0000           -0.5300601             -14.4237
         6        2.0000           -0.5043978             -13.7254
         7        2.0000           -0.4636642             -12.6169
         8        2.0000           -0.4605320             -12.5317
         9        2.0000           -0.4507229             -12.2648
        10        2.0000           -0.4062572             -11.0548 (HOMO)
        11                          0.0498038               1.3552 (LUMO)
        12                          0.1143025               3.1103
        13                          0.1333000               3.6273
        14                          0.1338450               3.6421
        15                          0.1879856               5.1153
        16                          0.1929971               5.2517
        17                          0.2869145               7.8073
        18                          0.2903400               7.9006
      -------------------------------------------------------------
                  HL-Gap            0.4560610 Eh           12.4101 eV
             Fermi-level           -0.1782267 Eh           -4.8498 eV

     #   Z          covCN         q      C6AA      α(0)
     1   8 O        1.655    -0.442    21.686     6.286
     2   6 C        3.671     0.091    19.296     6.297
     3   6 C        3.750    -0.114    22.744     6.801
     4   1 H        0.923     0.015     2.803     2.618
     5   1 H        0.923     0.015     2.805     2.619
     6   1 H        0.925     0.069     2.092     2.262
     7   1 H        0.925     0.042     2.425     2.435
     8   1 H        0.925     0.042     2.426     2.436
     9   1 H        0.805     0.281     0.781     1.388

 Mol. C6AA /au·bohr⁶  :        508.578616
 Mol. C8AA /au·bohr⁸  :      10105.384831
 Mol. α(0) /au        :         33.142612


Wiberg/Mayer (AO) data.
largest (>0.10) Wiberg bond orders for each atom

 ---------------------------------------------------------------------------
     #   Z sym  total        # sym  WBO       # sym  WBO       # sym  WBO
 ---------------------------------------------------------------------------
     1   8 O    1.951 --     2 C    0.993     9 H    0.907
     2   6 C    3.957 --     3 C    1.012     1 O    0.993     5 H    0.975
                             4 H    0.975
     3   6 C    3.993 --     2 C    1.012     7 H    0.990     8 H    0.990
                             6 H    0.982
     4   1 H    1.000 --     2 C    0.975
     5   1 H    1.000 --     2 C    0.975
     6   1 H    0.995 --     3 C    0.982
     7   1 H    0.998 --     3 C    0.990
     8   1 H    0.998 --     3 C    0.990
     9   1 H    0.921 --     1 O    0.907
 ---------------------------------------------------------------------------

Topologies differ in total number of bonds
Writing topology from bond orders to xtbtopo.mol

molecular dipole:
                 x           y           z       tot (Debye)
 q only:        0.132       0.159       0.356
   full:        0.331       0.250       0.508       1.667
molecular quadrupole (traceless):
                xx          xy          yy          xz          yz          zz
 q only:        2.736       0.521      -1.073      -0.275      -0.127      -1.663
  q+dip:        3.102       0.705      -0.445       0.225      -0.724      -2.656
   full:        3.508       0.745      -0.977      -0.078      -0.464      -2.531

           -------------------------------------------------
          |                Geometry Summary                 |
           -------------------------------------------------

      molecular mass/u    :       46.0685212
   center of mass at/Å    :       -0.0175538       0.0849722      -0.0530426
  moments of inertia/u·Å² :        0.1425974E+02   0.5426517E+02   0.6220031E+02
rotational constants/cm⁻¹ :        0.1182184E+01   0.3106529E+00   0.2710217E+00

 * 8 selected distances

     #   Z          #   Z                                           value/Å
     1   8 O        2   6 C                                       1.4142723
     2   6 C        3   6 C                                       1.5305703 (max)
     2   6 C        4   1 H                                       1.0992473
     2   6 C        5   1 H                                       1.0991198
     3   6 C        6   1 H                                       1.0865917
     3   6 C        7   1 H                                       1.0857998
     3   6 C        8   1 H                                       1.0856519
     1   8 O        9   1 H                                       0.9625013 (min)

 * 4 distinct bonds (by element types)

   Z      Z             #   av. dist./Å        max./Å        min./Å
   1 H    6 C           5     1.0912821     1.0992473     1.0856519
   6 C    6 C           1     1.5305703     1.5305703     1.5305703
   1 H    8 O           1     0.9625013     0.9625013     0.9625013
   6 C    8 O           1     1.4142723     1.4142723     1.4142723


optimized geometry written to: xtbopt.xyz


           -------------------------------------------------
          | TOTAL ENERGY              -11.388607345210 Eh   |
          | GRADIENT NORM               0.000238590245 Eh/α |
          | HOMO-LUMO GAP              12.410052807211 eV   |
           -------------------------------------------------
########################################################################
[WARNING] Runtime exception occurred
-1- restart_readRestart: Number of electron missmatch in restart file.
########################################################################

------------------------------------------------------------------------
 * finished run on 2025/02/19 at 10:41:27.289     
------------------------------------------------------------------------
 total:
 * wall-time:     0 d,  0 h,  0 min,  1.925 sec
 *  cpu-time:     0 d,  0 h,  0 min, 45.302 sec
 * ratio c/w:    23.532 speedup
 SCF:
 * wall-time:     0 d,  0 h,  0 min,  0.338 sec
 *  cpu-time:     0 d,  0 h,  0 min,  7.894 sec
 * ratio c/w:    23.358 speedup
 ANC optimizer:
 * wall-time:     0 d,  0 h,  0 min,  1.489 sec
 *  cpu-time:     0 d,  0 h,  0 min, 35.249 sec
 * ratio c/w:    23.673 speedup

