
    -----------------------------------------------------------------------
          Psi4: An Open-Source Ab Initio Electronic Structure Package
                               Psi4 1.9.1 release

                         Git: Rev {} zzzzzzz 


    D. G. A. Smith, L. A. Burns, A. C. Simmonett, R. M. Parrish,
    M. C. Schieber, R. Galvelis, P. Kraus, H. Kruse, R. Di Remigio,
    A. Alenaizan, A. M. James, S. Lehtola, J. P. Misiewicz, M. Scheurer,
    R. A. Shaw, J. B. Schriber, Y. Xie, Z. L. Glick, D. A. Sirianni,
    J. S. O'Brien, J. M. Waldrop, A. Kumar, E. G. Hohenstein,
    B. P. Pritchard, B. R. Brooks, H. F. Schaefer III, A. Yu. Sokolov,
    K. Patkowski, A. E. DePrince III, U. Bozkaya, R. A. King,
    F. A. Evangelista, J. M. Turney, T. D. Crawford, C. D. Sherrill,
    J. Chem. Phys. 152(18) 184108 (2020). https://doi.org/10.1063/5.0006002

                            Additional Code Authors
    E. T. Seidl, C. L. Janssen, E. F. Valeev, M. L. Leininger,
    J. F. Gonthier, R. M. Richard, H. R. McAlexander, M. Saitow, X. Wang,
    P. Verma, M. H. Lechner, A. Jiang, S. Behnle, A. G. Heide,
    M. F. Herbst, and D. L. Poole

             Previous Authors, Complete List of Code Contributors,
                       and Citations for Specific Modules
    https://github.com/psi4/psi4/blob/master/codemeta.json
    https://github.com/psi4/psi4/graphs/contributors
    http://psicode.org/psi4manual/master/introduction.html#citing-psifour

    -----------------------------------------------------------------------


    Psi4 started on: Wednesday, 19 February 2025 10:45AM

    Process ID: 2295734
    Host:       bme-earth.bme.utexas.edu
    PSIDATADIR: /home/liuchw/anaconda3/envs/poltype2024/share/psi4
    Memory:     500.0 MiB
    Threads:    1
    
  ==> Input File <==

--------------------------------------------------------------------------
molecule { 
0 1
 O    1.131038   -0.479764   -0.241021
 C    0.276386    0.373481    0.493003
 C   -1.196665    0.038167    0.259242
 H    0.448150    1.423181    0.226653
 H    0.528132    0.227542    1.546715
 H   -1.455440    0.175506   -0.788801
 H   -1.826042    0.683837    0.865485
 H   -1.386205   -0.997612    0.527359
 H    1.322379   -0.086749   -1.097111
}
memory 4GB
set_num_threads(2)
psi4_io.set_default_path("/scratch/liuchw/Psi4-ethanol")
set freeze_core True
E, wfn = energy('wb97x-d/6-311+G*',return_wfn=True)
oeprop(wfn,"WIBERG_LOWDIN_INDICES")
clean()
--------------------------------------------------------------------------

  Memory set to   3.725 GiB by Python driver.
  Threads set to 2 by Python driver.

Scratch directory: /scratch/liuchw/Psi4-ethanol/
   => Libint2 <=

    Primary   basis highest AM E, G, H:  6, 6, 3
    Auxiliary basis highest AM E, G, H:  7, 7, 4
    Onebody   basis highest AM E, G, H:  -, -, -
    Solid Harmonics ordering:            Gaussian

*** tstart() called on bme-earth.bme.utexas.edu
*** at Wed Feb 19 10:45:26 2025

   => Loading Basis Set <=

    Name: 6-311+G*
    Role: ORBITAL
    Keyword: BASIS
    atoms 1   entry O          line   172 file /home/liuchw/anaconda3/envs/poltype2024/share/psi4/basis/6-311pgs.gbs 
    atoms 2-3 entry C          line   130 file /home/liuchw/anaconda3/envs/poltype2024/share/psi4/basis/6-311pgs.gbs 
    atoms 4-9 entry H          line    47 file /home/liuchw/anaconda3/envs/poltype2024/share/psi4/basis/6-311pgs.gbs 

   => WB97X-D: Empirical Dispersion <=

    Chai and Head-Gordon Dispersion Correction
    Chai, J.-D.; Head-Gordon, M. (2010), J. Chem. Phys., 132: 6615-6620

        s6 =       1.000000


         ---------------------------------------------------------
                                   SCF
               by Justin Turney, Rob Parrish, Andy Simmonett
                          and Daniel G. A. Smith
                              RKS Reference
                        2 Threads,   3814 MiB Core
         ---------------------------------------------------------

  ==> Geometry <==

    Molecular point group: c1
    Full point group: C1

    Geometry (in Angstrom), charge = 0, multiplicity = 1:

       Center              X                  Y                   Z               Mass       
    ------------   -----------------  -----------------  -----------------  -----------------
         O            1.029826970525    -0.451590792089    -0.381374743240    15.994914619570
         C            0.175174970525     0.401654207911     0.352649256760    12.000000000000
         C           -1.297876029475     0.066340207911     0.118888256760    12.000000000000
         H            0.346938970525     1.451354207911     0.086299256760     1.007825032230
         H            0.426920970525     0.255715207911     1.406361256760     1.007825032230
         H           -1.556651029475     0.203679207911    -0.929154743240     1.007825032230
         H           -1.927253029475     0.712010207911     0.725131256760     1.007825032230
         H           -1.487416029475    -0.969438792089     0.387005256760     1.007825032230
         H            1.221167970525    -0.058575792089    -1.237464743240     1.007825032230

  Running in c1 symmetry.

  Rotational constants: A =      1.16247  B =      0.30532  C =      0.27245 [cm^-1]
  Rotational constants: A =  34850.06614  B =   9153.20013  C =   8167.80203 [MHz]
  Nuclear repulsion =   81.758703011943666

  Charge       = 0
  Multiplicity = 1
  Electrons    = 26
  Nalpha       = 13
  Nbeta        = 13

  ==> Algorithm <==

  SCF Algorithm Type is DF.
  DIIS enabled.
  MOM disabled.
  Fractional occupation disabled.
  Guess Type is SAD.
  Energy threshold   = 1.00e-06
  Density threshold  = 1.00e-06
  Integral threshold = 1.00e-12

  ==> Primary Basis <==

  Basis Set: 6-311+G*
    Blend: 6-311+G*
    Number of shells: 48
    Number of basis functions: 84
    Number of Cartesian functions: 87
    Spherical Harmonics?: true
    Max angular momentum: 2

  ==> DFT Potential <==

   => LibXC <=

    Version 6.2.2
    S. Lehtola, C. Steigemann, M. J.T. Oliveira, and M. A.L. Marques.,  SoftwareX 7, 1–5 (2018) (10.1016/j.softx.2017.11.002)

   => Composite Functional: WB97X-D <= 

    wB97X-D Hyb-GGA Exchange-Correlation Functional

    J.-D. Chai and M. Head-Gordon.,  Phys. Chem. Chem. Phys. 10, 6615-6620 (2008) (10.1039/B810189B)

    Deriv               =              1
    GGA                 =           TRUE
    Meta                =          FALSE

    Exchange Hybrid     =           TRUE
    MP2 Hybrid          =          FALSE

   => Exchange-Correlation Functionals <=

    1.0000   wB97X-D range-separated functional

   => Exact (HF) Exchange <=

    0.7780            HF,LR [omega = 0.2000]
    0.2220               HF 

   => LibXC Density Thresholds  <==

    XC_HYB_GGA_XC_WB97X_D:  1.00E-14 

   => Molecular Quadrature <=

    Radial Scheme          =       TREUTLER
    Pruning Scheme         =           NONE
    Nuclear Scheme         =       TREUTLER

    Blocking Scheme        =         OCTREE
    BS radius alpha        =              1
    Pruning alpha          =              1
    Radial Points          =             75
    Spherical Points       =            302
    Total Points           =         195400
    Total Blocks           =           1528
    Max Points             =            256
    Max Functions          =             84
    Weights Tolerance      =       1.00E-15

   => Loading Basis Set <=

    Name: (6-311+G* AUX)
    Role: JKFIT
    Keyword: DF_BASIS_SCF
    atoms 1   entry O          line   324 file /home/liuchw/anaconda3/envs/poltype2024/share/psi4/basis/heavy-aug-cc-pvtz-jkfit.gbs 
    atoms 2-3 entry C          line   200 file /home/liuchw/anaconda3/envs/poltype2024/share/psi4/basis/heavy-aug-cc-pvtz-jkfit.gbs 
    atoms 4-9 entry H          line   116 file /home/liuchw/anaconda3/envs/poltype2024/share/psi4/basis/heavy-aug-cc-pvtz-jkfit.gbs 

  ==> Integral Setup <==

  DFHelper Memory: AOs need 0.081 GiB; user supplied 2.377 GiB. 
  Using in-core AOs.

  ==> MemDFJK: Density-Fitted J/K Matrices <==

    J tasked:                   Yes
    K tasked:                   Yes
    wK tasked:                  Yes
    Omega:                2.000E-01
    OpenMP threads:               2
    Memory [MiB]:              2433
    Algorithm:                 Core
    Schwarz Cutoff:           1E-12
    Mask sparsity (%):       0.2834
    Fitting Condition:        1E-10

   => Auxiliary Basis Set <=

  Basis Set: (6-311+G* AUX)
    Blend: HEAVY-AUG-CC-PVTZ-JKFIT
    Number of shells: 150
    Number of basis functions: 492
    Number of Cartesian functions: 603
    Spherical Harmonics?: true
    Max angular momentum: 4

  Cached 100.0% of DFT collocation blocks in 0.417 [GiB].

  Minimum eigenvalue in the overlap matrix is 1.2838787178E-04.
  Reciprocal condition number of the overlap matrix is 1.4560864448E-05.
    Using symmetric orthogonalization.

  ==> Pre-Iterations <==

  SCF Guess: Superposition of Atomic Densities via on-the-fly atomic UHF (no occupation information).

   -------------------------
    Irrep   Nso     Nmo    
   -------------------------
     A         84      84 
   -------------------------
    Total      84      84
   -------------------------

  ==> Iterations <==

                           Total Energy        Delta E     RMS |[F,P]|

   @DF-RKS iter SAD:  -154.39697288068297   -1.54397e+02   0.00000e+00 
   @DF-RKS iter   1:  -154.78236025026379   -3.85387e-01   8.72724e-03 ADIIS/DIIS
   @DF-RKS iter   2:  -154.84137513743767   -5.90149e-02   8.18311e-03 ADIIS/DIIS
   @DF-RKS iter   3:  -155.02265131710041   -1.81276e-01   1.09216e-03 ADIIS/DIIS
   @DF-RKS iter   4:  -155.02550493917329   -2.85362e-03   3.30090e-04 ADIIS/DIIS
   @DF-RKS iter   5:  -155.02584247696970   -3.37538e-04   4.57709e-05 DIIS
   @DF-RKS iter   6:  -155.02585237373452   -9.89676e-06   1.23158e-05 DIIS
   @DF-RKS iter   7:  -155.02585295330036   -5.79566e-07   4.52528e-06 DIIS
   @DF-RKS iter   8:  -155.02585303960410   -8.63037e-08   7.95871e-07 DIIS
  Energy and wave function converged.


  ==> Post-Iterations <==

   Electrons on quadrature grid:
      Ntotal   =   26.0000195090 ; deviation = 1.951e-05 

    Orbital Energies [Eh]
    ---------------------

    Doubly Occupied:                                                      

       1A    -19.245790     2A    -10.328898     3A    -10.268617  
       4A     -1.129640     5A     -0.849221     6A     -0.719359  
       7A     -0.609188     8A     -0.548347     9A     -0.505412  
      10A     -0.475489    11A     -0.458221    12A     -0.411035  
      13A     -0.359354  

    Virtual:                                                              

      14A      0.064501    15A      0.086395    16A      0.091229  
      17A      0.103662    18A      0.127581    19A      0.134928  
      20A      0.137978    21A      0.180161    22A      0.211118  
      23A      0.227336    24A      0.247781    25A      0.251191  
      26A      0.255232    27A      0.291576    28A      0.295578  
      29A      0.309733    30A      0.317752    31A      0.339905  
      32A      0.375276    33A      0.396655    34A      0.479193  
      35A      0.516008    36A      0.531650    37A      0.568737  
      38A      0.616902    39A      0.632968    40A      0.690615  
      41A      0.699343    42A      0.712721    43A      0.725620  
      44A      0.771827    45A      0.800629    46A      0.976284  
      47A      1.031262    48A      1.117490    49A      1.155536  
      50A      1.159208    51A      1.301900    52A      1.354980  
      53A      1.578142    54A      1.619045    55A      1.657359  
      56A      1.690362    57A      1.712036    58A      1.771587  
      59A      1.829097    60A      1.905109    61A      2.088245  
      62A      2.300369    63A      2.550741    64A      2.558618  
      65A      2.572592    66A      2.588661    67A      2.597010  
      68A      2.880212    69A      2.946629    70A      3.010460  
      71A      3.066764    72A      3.184699    73A      3.252497  
      74A      3.289368    75A      3.347616    76A      3.446767  
      77A      3.804318    78A      4.081657    79A      5.134670  
      80A      5.210641    81A      5.535289    82A     23.601429  
      83A     23.777225    84A     49.995578  

    Final Occupation by Irrep:
              A 
    DOCC [    13 ]
    NA   [    13 ]
    NB   [    13 ]

  @DF-RKS Final Energy:  -155.02585303960410

   => Energetics <=

    Nuclear Repulsion Energy =             81.7587030119436662
    One-Electron Energy =                -371.6913180290632681
    Two-Electron Energy =                 149.7761220563756126
    DFT Exchange-Correlation Energy =     -14.8668500444608895
    Empirical Dispersion Energy =          -0.0025100343992320
    VV10 Nonlocal Energy =                  0.0000000000000000
    Total Energy =                       -155.0258530396041010

Computation Completed


Properties will be evaluated at   0.000000,   0.000000,   0.000000 [a0]

Properties computed using the SCF density matrix


 Multipole Moments:

 ------------------------------------------------------------------------------------
     Multipole            Electronic (a.u.)      Nuclear  (a.u.)        Total (a.u.)
 ------------------------------------------------------------------------------------

 L = 1.  Multiply by 2.5417464519 to convert [e a0] to [Debye]
 Dipole X            :          2.5149625           -2.7852348           -0.2702723
 Dipole Y            :         -0.8345405            1.4928542            0.6583137
 Dipole Z            :         -0.6748107            0.4089456           -0.2658651
 Magnitude           :                                                    0.7596764

 ------------------------------------------------------------------------------------

*** tstop() called on bme-earth.bme.utexas.edu at Wed Feb 19 10:45:29 2025
Module time:
	user time   =       4.96 seconds =       0.08 minutes
	system time =       0.19 seconds =       0.00 minutes
	total time  =          3 seconds =       0.05 minutes
Total time:
	user time   =       4.96 seconds =       0.08 minutes
	system time =       0.19 seconds =       0.00 minutes
	total time  =          3 seconds =       0.05 minutes


Properties will be evaluated at   0.000000,   0.000000,   0.000000 [a0]
OEProp: No title given, name of density matrix used for the following properties is 'SCF density'


  Wiberg Bond Indices using Orthogonal Lowdin Orbitals:

  Irrep: 1 Size: 9 x 9

                 1                   2                   3                   4                   5

    1     0.00000000000000     1.36617400459790     0.13495152099006     0.04943240236302     0.05084978457725
    2     1.36617400459790     0.00000000000000     1.21334072926993     0.87689342076162     0.87501632877893
    3     0.13495152099006     1.21334072926993     0.00000000000000     0.04336743215845     0.04060312557343
    4     0.04943240236302     0.87689342076162     0.04336743215845     0.00000000000000     0.00887392072369
    5     0.05084978457725     0.87501632877893     0.04060312557343     0.00887392072369     0.00000000000000
    6     0.01228560497301     0.04371357395002     0.91271452299077     0.00470320657310     0.00986129543303
    7     0.01131351458007     0.05509010589856     0.91112510350556     0.00270828705352     0.00266069975782
    8     0.01219214217921     0.04191962156081     0.91241263376107     0.00962178587361     0.00452958832385
    9     0.86009869098251     0.03721876486273     0.00681477855762     0.00746236608120     0.00801735390857

                 6                   7                   8                   9

    1     0.01228560497301     0.01131351458007     0.01219214217921     0.86009869098251
    2     0.04371357395002     0.05509010589856     0.04191962156081     0.03721876486273
    3     0.91271452299077     0.91112510350556     0.91241263376107     0.00681477855762
    4     0.00470320657310     0.00270828705352     0.00962178587361     0.00746236608120
    5     0.00986129543303     0.00266069975782     0.00452958832385     0.00801735390857
    6     0.00000000000000     0.00991533683250     0.00891713429774     0.00034756758573
    7     0.00991533683250     0.00000000000000     0.01007053030822     0.00015423987351
    8     0.00891713429774     0.01007053030822     0.00000000000000     0.00012061935316
    9     0.00034756758573     0.00015423987351     0.00012061935316     0.00000000000000



  Atomic Valences: 

 #  #
 Irrep: 1
      1:    2.497297665243032
      2:    4.509366549680495
      3:    4.175329846806882
      4:    1.003062821588205
      5:    1.000412097076575
      6:    1.002458242635895
      7:    1.003037817809764
      8:    0.999784055657668
      9:    0.920234381205038


    Psi4 stopped on: Wednesday, 19 February 2025 10:45AM
    Psi4 wall time for execution: 0:00:02.80

*** Psi4 exiting successfully. Buy a developer a beer!
