9
 energy: -11.392260192228 gnorm: 0.000512043502 xtb: 6.5.0 (97a52f5)
O            1.25829482252007       -0.04314326976956       -0.39476573140920
C            0.28068497667133        0.60091323667689        0.39948481785214
C           -1.09207142271750       -0.04659570102724        0.30147025634387
H            0.22402393224506        1.65019040050056        0.08113105036662
H            0.63031801344780        0.58140947850170        1.43969648163484
H           -1.44976794641430       -0.02719654246953       -0.72716977039684
H           -1.80270517557048        0.49096649770276        0.92346970798508
H           -1.05027051125488       -1.08087206519235        0.63997045733072
H            0.84322532107290       -0.76808304492323       -0.87176627970723
