9
 energy: -11.390972278782 gnorm: 0.000359137970 xtb: 6.5.0 (97a52f5)
O            0.95434077805504       -0.49480143090176       -0.46938636185648
C            0.23132801522842        0.36822750437576        0.38853029301439
C           -1.25079097604635        0.03802916577466        0.29392254354700
H            0.40355458552680        1.41818574119061        0.12119070445193
H            0.57764603028700        0.22627636666886        1.42417103823176
H           -1.60043436921367        0.18807936951354       -0.72403942451404
H           -1.81885791704837        0.67327433842715        0.96765797739231
H           -1.40915989644196       -1.00277245325291        0.56147301796111
H            1.75410673965308       -0.05690960179591       -0.77199778822798
