9
 energy: -11.390286108917 gnorm: 0.000366029599 xtb: 6.5.0 (97a52f5)
O            0.99019176958493       -0.66836009179219       -0.06076419733714
C            0.19879953418473        0.47254284498382        0.19380525002303
C           -1.25833307096611        0.03714166379958        0.30838128821339
H            0.30925116060417        1.21191740355762       -0.61334193919255
H            0.52252665878268        0.95892597352966        1.12641769171127
H           -1.92396684668345        0.83420755673646       -0.00887212350327
H           -1.50053768854597       -0.26600233837185        1.32175640259667
H           -1.41039614819027       -0.81490429041684       -0.35021051604135
H            1.91419763122927       -0.40787870202625       -0.12565086647006
