
    -----------------------------------------------------------------------
          Psi4: An Open-Source Ab Initio Electronic Structure Package
                               Psi4 1.9.1 release

                         Git: Rev {} zzzzzzz 


    D. G. A. Smith, L. A. Burns, A. C. Simmonett, R. M. Parrish,
    M. C. Schieber, R. Galvelis, P. Kraus, H. Kruse, R. Di Remigio,
    A. Alenaizan, A. M. James, S. Lehtola, J. P. Misiewicz, M. Scheurer,
    R. A. Shaw, J. B. Schriber, Y. Xie, Z. L. Glick, D. A. Sirianni,
    J. S. O'Brien, J. M. Waldrop, A. Kumar, E. G. Hohenstein,
    B. P. Pritchard, B. R. Brooks, H. F. Schaefer III, A. Yu. Sokolov,
    K. Patkowski, A. E. DePrince III, U. Bozkaya, R. A. King,
    F. A. Evangelista, J. M. Turney, T. D. Crawford, C. D. Sherrill,
    J. Chem. Phys. 152(18) 184108 (2020). https://doi.org/10.1063/5.0006002

                            Additional Code Authors
    E. T. Seidl, C. L. Janssen, E. F. Valeev, M. L. Leininger,
    J. F. Gonthier, R. M. Richard, H. R. McAlexander, M. Saitow, X. Wang,
    P. Verma, M. H. Lechner, A. Jiang, S. Behnle, A. G. Heide,
    M. F. Herbst, and D. L. Poole

             Previous Authors, Complete List of Code Contributors,
                       and Citations for Specific Modules
    https://github.com/psi4/psi4/blob/master/codemeta.json
    https://github.com/psi4/psi4/graphs/contributors
    http://psicode.org/psi4manual/master/introduction.html#citing-psifour

    -----------------------------------------------------------------------


    Psi4 started on: Wednesday, 19 February 2025 10:45AM

    Process ID: 2295687
    Host:       bme-earth.bme.utexas.edu
    PSIDATADIR: /home/liuchw/anaconda3/envs/poltype2024/share/psi4
    Memory:     500.0 MiB
    Threads:    1
    
  ==> Input File <==

--------------------------------------------------------------------------
molecule { 
0 1
 O    0.962530   -0.137484   -0.725505
 C    0.219992    0.502631    0.299063
 C   -1.225642    0.017633    0.296784
 H    0.251597    1.583206    0.108865
 H    0.669258    0.320584    1.280967
 H   -1.673217    0.207474   -0.674558
 H   -1.794621    0.540931    1.060420
 H   -1.264564   -1.051172    0.492779
 H    1.696398   -0.626214   -0.347291
}
memory 4GB
set_num_threads(2)
psi4_io.set_default_path("/scratch/liuchw/Psi4-ethanol")
set freeze_core True
E, wfn = energy('wb97x-d/6-311+G*',return_wfn=True)
oeprop(wfn,"WIBERG_LOWDIN_INDICES")
clean()
--------------------------------------------------------------------------

  Memory set to   3.725 GiB by Python driver.
  Threads set to 2 by Python driver.

Scratch directory: /scratch/liuchw/Psi4-ethanol/
   => Libint2 <=

    Primary   basis highest AM E, G, H:  6, 6, 3
    Auxiliary basis highest AM E, G, H:  7, 7, 4
    Onebody   basis highest AM E, G, H:  -, -, -
    Solid Harmonics ordering:            Gaussian

*** tstart() called on bme-earth.bme.utexas.edu
*** at Wed Feb 19 10:45:11 2025

   => Loading Basis Set <=

    Name: 6-311+G*
    Role: ORBITAL
    Keyword: BASIS
    atoms 1   entry O          line   172 file /home/liuchw/anaconda3/envs/poltype2024/share/psi4/basis/6-311pgs.gbs 
    atoms 2-3 entry C          line   130 file /home/liuchw/anaconda3/envs/poltype2024/share/psi4/basis/6-311pgs.gbs 
    atoms 4-9 entry H          line    47 file /home/liuchw/anaconda3/envs/poltype2024/share/psi4/basis/6-311pgs.gbs 

   => WB97X-D: Empirical Dispersion <=

    Chai and Head-Gordon Dispersion Correction
    Chai, J.-D.; Head-Gordon, M. (2010), J. Chem. Phys., 132: 6615-6620

        s6 =       1.000000


         ---------------------------------------------------------
                                   SCF
               by Justin Turney, Rob Parrish, Andy Simmonett
                          and Daniel G. A. Smith
                              RKS Reference
                        2 Threads,   3814 MiB Core
         ---------------------------------------------------------

  ==> Geometry <==

    Molecular point group: c1
    Full point group: C1

    Geometry (in Angstrom), charge = 0, multiplicity = 1:

       Center              X                  Y                   Z               Mass       
    ------------   -----------------  -----------------  -----------------  -----------------
         O            0.936551793762    -0.246657685530    -0.670815398911    15.994914619570
         C            0.194013793762     0.393457314470     0.353752601089    12.000000000000
         C           -1.251620206238    -0.091540685530     0.351473601089    12.000000000000
         H            0.225618793762     1.474032314470     0.163554601089     1.007825032230
         H            0.643279793762     0.211410314470     1.335656601089     1.007825032230
         H           -1.699195206238     0.098300314470    -0.619868398911     1.007825032230
         H           -1.820599206238     0.431757314470     1.115109601089     1.007825032230
         H           -1.290542206238    -1.160345685530     0.547468601089     1.007825032230
         H            1.670419793762    -0.735387685530    -0.292601398911     1.007825032230

  Running in c1 symmetry.

  Rotational constants: A =      1.17446  B =      0.30567  C =      0.27156 [cm^-1]
  Rotational constants: A =  35209.38278  B =   9163.67752  C =   8141.13041 [MHz]
  Nuclear repulsion =   81.713883490566985

  Charge       = 0
  Multiplicity = 1
  Electrons    = 26
  Nalpha       = 13
  Nbeta        = 13

  ==> Algorithm <==

  SCF Algorithm Type is DF.
  DIIS enabled.
  MOM disabled.
  Fractional occupation disabled.
  Guess Type is SAD.
  Energy threshold   = 1.00e-06
  Density threshold  = 1.00e-06
  Integral threshold = 1.00e-12

  ==> Primary Basis <==

  Basis Set: 6-311+G*
    Blend: 6-311+G*
    Number of shells: 48
    Number of basis functions: 84
    Number of Cartesian functions: 87
    Spherical Harmonics?: true
    Max angular momentum: 2

  ==> DFT Potential <==

   => LibXC <=

    Version 6.2.2
    S. Lehtola, C. Steigemann, M. J.T. Oliveira, and M. A.L. Marques.,  SoftwareX 7, 1–5 (2018) (10.1016/j.softx.2017.11.002)

   => Composite Functional: WB97X-D <= 

    wB97X-D Hyb-GGA Exchange-Correlation Functional

    J.-D. Chai and M. Head-Gordon.,  Phys. Chem. Chem. Phys. 10, 6615-6620 (2008) (10.1039/B810189B)

    Deriv               =              1
    GGA                 =           TRUE
    Meta                =          FALSE

    Exchange Hybrid     =           TRUE
    MP2 Hybrid          =          FALSE

   => Exchange-Correlation Functionals <=

    1.0000   wB97X-D range-separated functional

   => Exact (HF) Exchange <=

    0.7780            HF,LR [omega = 0.2000]
    0.2220               HF 

   => LibXC Density Thresholds  <==

    XC_HYB_GGA_XC_WB97X_D:  1.00E-14 

   => Molecular Quadrature <=

    Radial Scheme          =       TREUTLER
    Pruning Scheme         =           NONE
    Nuclear Scheme         =       TREUTLER

    Blocking Scheme        =         OCTREE
    BS radius alpha        =              1
    Pruning alpha          =              1
    Radial Points          =             75
    Spherical Points       =            302
    Total Points           =         195443
    Total Blocks           =           1502
    Max Points             =            256
    Max Functions          =             84
    Weights Tolerance      =       1.00E-15

   => Loading Basis Set <=

    Name: (6-311+G* AUX)
    Role: JKFIT
    Keyword: DF_BASIS_SCF
    atoms 1   entry O          line   324 file /home/liuchw/anaconda3/envs/poltype2024/share/psi4/basis/heavy-aug-cc-pvtz-jkfit.gbs 
    atoms 2-3 entry C          line   200 file /home/liuchw/anaconda3/envs/poltype2024/share/psi4/basis/heavy-aug-cc-pvtz-jkfit.gbs 
    atoms 4-9 entry H          line   116 file /home/liuchw/anaconda3/envs/poltype2024/share/psi4/basis/heavy-aug-cc-pvtz-jkfit.gbs 

  ==> Integral Setup <==

  DFHelper Memory: AOs need 0.081 GiB; user supplied 2.377 GiB. 
  Using in-core AOs.

  ==> MemDFJK: Density-Fitted J/K Matrices <==

    J tasked:                   Yes
    K tasked:                   Yes
    wK tasked:                  Yes
    Omega:                2.000E-01
    OpenMP threads:               2
    Memory [MiB]:              2434
    Algorithm:                 Core
    Schwarz Cutoff:           1E-12
    Mask sparsity (%):       0.2551
    Fitting Condition:        1E-10

   => Auxiliary Basis Set <=

  Basis Set: (6-311+G* AUX)
    Blend: HEAVY-AUG-CC-PVTZ-JKFIT
    Number of shells: 150
    Number of basis functions: 492
    Number of Cartesian functions: 603
    Spherical Harmonics?: true
    Max angular momentum: 4

  Cached 100.0% of DFT collocation blocks in 0.417 [GiB].

  Minimum eigenvalue in the overlap matrix is 1.5464894985E-04.
  Reciprocal condition number of the overlap matrix is 1.7614428589E-05.
    Using symmetric orthogonalization.

  ==> Pre-Iterations <==

  SCF Guess: Superposition of Atomic Densities via on-the-fly atomic UHF (no occupation information).

   -------------------------
    Irrep   Nso     Nmo    
   -------------------------
     A         84      84 
   -------------------------
    Total      84      84
   -------------------------

  ==> Iterations <==

                           Total Energy        Delta E     RMS |[F,P]|

   @DF-RKS iter SAD:  -154.39183244196425   -1.54392e+02   0.00000e+00 
   @DF-RKS iter   1:  -154.77947504374364   -3.87643e-01   8.77670e-03 ADIIS/DIIS
   @DF-RKS iter   2:  -154.83339983821571   -5.39248e-02   8.33898e-03 ADIIS/DIIS
   @DF-RKS iter   3:  -155.02198814360480   -1.88588e-01   1.10483e-03 ADIIS/DIIS
   @DF-RKS iter   4:  -155.02492030702092   -2.93216e-03   3.29265e-04 ADIIS/DIIS
   @DF-RKS iter   5:  -155.02525706377637   -3.36757e-04   4.55408e-05 DIIS
   @DF-RKS iter   6:  -155.02526675862092   -9.69484e-06   1.32895e-05 DIIS
   @DF-RKS iter   7:  -155.02526739774973   -6.39129e-07   4.45350e-06 DIIS
   @DF-RKS iter   8:  -155.02526748061729   -8.28676e-08   7.39252e-07 DIIS
  Energy and wave function converged.


  ==> Post-Iterations <==

   Electrons on quadrature grid:
      Ntotal   =   26.0000073379 ; deviation = 7.338e-06 

    Orbital Energies [Eh]
    ---------------------

    Doubly Occupied:                                                      

       1A    -19.244876     2A    -10.329040     3A    -10.267024  
       4A     -1.127696     5A     -0.849733     6A     -0.714529  
       7A     -0.613306     8A     -0.551055     9A     -0.492600  
      10A     -0.479075    11A     -0.455536    12A     -0.411462  
      13A     -0.358670  

    Virtual:                                                              

      14A      0.064031    15A      0.085700    16A      0.092890  
      17A      0.103516    18A      0.129049    19A      0.135058  
      20A      0.138039    21A      0.182119    22A      0.215691  
      23A      0.230913    24A      0.237546    25A      0.248902  
      26A      0.255295    27A      0.291126    28A      0.297242  
      29A      0.309588    30A      0.322586    31A      0.332991  
      32A      0.362661    33A      0.390960    34A      0.486473  
      35A      0.517148    36A      0.530540    37A      0.567117  
      38A      0.610116    39A      0.627426    40A      0.692653  
      41A      0.703599    42A      0.715463    43A      0.738124  
      44A      0.765877    45A      0.794583    46A      0.964874  
      47A      1.031546    48A      1.122236    49A      1.150886  
      50A      1.155842    51A      1.307857    52A      1.335130  
      53A      1.579343    54A      1.627458    55A      1.652934  
      56A      1.694108    57A      1.715211    58A      1.778764  
      59A      1.832317    60A      1.900299    61A      2.087962  
      62A      2.287451    63A      2.557099    64A      2.561062  
      65A      2.578159    66A      2.583586    67A      2.589868  
      68A      2.896859    69A      2.943855    70A      3.009589  
      71A      3.059418    72A      3.175300    73A      3.242871  
      74A      3.299695    75A      3.339427    76A      3.478042  
      77A      3.803498    78A      4.078628    79A      5.125369  
      80A      5.212063    81A      5.533571    82A     23.596485  
      83A     23.781147    84A     49.995768  

    Final Occupation by Irrep:
              A 
    DOCC [    13 ]
    NA   [    13 ]
    NB   [    13 ]

  @DF-RKS Final Energy:  -155.02526748061729

   => Energetics <=

    Nuclear Repulsion Energy =             81.7138834905669853
    One-Electron Energy =                -371.6291160917652974
    Two-Electron Energy =                 149.7583994856751417
    DFT Exchange-Correlation Energy =     -14.8659875373184889
    Empirical Dispersion Energy =          -0.0024468277756038
    VV10 Nonlocal Energy =                  0.0000000000000000
    Total Energy =                       -155.0252674806172877

Computation Completed


Properties will be evaluated at   0.000000,   0.000000,   0.000000 [a0]

Properties computed using the SCF density matrix


 Multipole Moments:

 ------------------------------------------------------------------------------------
     Multipole            Electronic (a.u.)      Nuclear  (a.u.)        Total (a.u.)
 ------------------------------------------------------------------------------------

 L = 1.  Multiply by 2.5417464519 to convert [e a0] to [Debye]
 Dipole X            :          2.2882421           -2.1245102            0.1637320
 Dipole Y            :         -0.3718452            0.2985865           -0.0732586
 Dipole Z            :         -1.3651979            2.1054452            0.7402474
 Magnitude           :                                                    0.7616700

 ------------------------------------------------------------------------------------

*** tstop() called on bme-earth.bme.utexas.edu at Wed Feb 19 10:45:14 2025
Module time:
	user time   =       4.96 seconds =       0.08 minutes
	system time =       0.21 seconds =       0.00 minutes
	total time  =          3 seconds =       0.05 minutes
Total time:
	user time   =       4.96 seconds =       0.08 minutes
	system time =       0.21 seconds =       0.00 minutes
	total time  =          3 seconds =       0.05 minutes


Properties will be evaluated at   0.000000,   0.000000,   0.000000 [a0]
OEProp: No title given, name of density matrix used for the following properties is 'SCF density'


  Wiberg Bond Indices using Orthogonal Lowdin Orbitals:

  Irrep: 1 Size: 9 x 9

                 1                   2                   3                   4                   5

    1     0.00000000000000     1.35518301231572     0.13192532483767     0.05457790029014     0.04703799623351
    2     1.35518301231572     0.00000000000000     1.21363594457500     0.87683248062877     0.87872663560614
    3     0.13192532483767     1.21363594457500     0.00000000000000     0.04111842355878     0.04260885360988
    4     0.05457790029014     0.87683248062877     0.04111842355878     0.00000000000000     0.00887304103512
    5     0.04703799623351     0.87872663560614     0.04260885360988     0.00887304103512     0.00000000000000
    6     0.01223389250952     0.04233989333522     0.91093087613312     0.00472881582855     0.00985931992757
    7     0.01085039800323     0.05534271922886     0.91131111795765     0.00266422411025     0.00271396465768
    8     0.01214049864367     0.04312408475959     0.91243152274728     0.00991570324495     0.00454068697412
    9     0.86213302542541     0.03793413344510     0.00765798483533     0.00337798289350     0.00867807540720

                 6                   7                   8                   9

    1     0.01223389250952     0.01085039800323     0.01214049864367     0.86213302542541
    2     0.04233989333522     0.05534271922886     0.04312408475959     0.03793413344510
    3     0.91093087613312     0.91131111795765     0.91243152274728     0.00765798483533
    4     0.00472881582855     0.00266422411025     0.00991570324495     0.00337798289350
    5     0.00985931992757     0.00271396465768     0.00454068697412     0.00867807540720
    6     0.00000000000000     0.00992413640836     0.00899211326747     0.00026494142237
    7     0.00992413640836     0.00000000000000     0.01000311740916     0.00021270018470
    8     0.00899211326747     0.01000311740916     0.00000000000000     0.00010472102425
    9     0.00026494142237     0.00021270018470     0.00010472102425     0.00000000000000



  Atomic Valences: 

 #  #
 Irrep: 1
      1:    2.486082048258873
      2:    4.503118903894406
      3:    4.171620048254701
      4:    1.002088571590059
      5:    1.003038573451216
      6:    0.999273988832185
      7:    1.003022377959903
      8:    1.001252448070492
      9:    0.920363564637867


    Psi4 stopped on: Wednesday, 19 February 2025 10:45AM
    Psi4 wall time for execution: 0:00:02.98

*** Psi4 exiting successfully. Buy a developer a beer!
