9
 energy: -11.393553748337 gnorm: 0.000156725083 xtb: 6.5.0 (97a52f5)
O            1.25890020895175       -0.27743552190074       -0.21517139322258
C            0.30388510785183        0.44265430019878        0.53326928236685
C           -1.13007166456067        0.04892071875708        0.20988164564995
H            0.44872618594053        1.52257961692359        0.37534309304050
H            0.52725378525791        0.22880778433740        1.58282619311835
H           -1.35955440395217        0.26553499110654       -0.83310630533440
H           -1.82007519336228        0.60561918412203        0.83783963511626
H           -1.27747805581692       -1.01462986639747        0.38594178630623
H            0.89014502969000       -0.46446019714720       -1.08530092704115
