      -----------------------------------------------------------      
     |                   =====================                   |     
     |                           x T B                           |     
     |                   =====================                   |     
     |                         S. Grimme                         |     
     |          Mulliken Center for Theoretical Chemistry        |     
     |                    University of Bonn                     |     
      -----------------------------------------------------------      

   * xtb version 6.5.0 (97a52f5) compiled by 'conda@d2599ee0d4f4' on 2022-05-15

   xtb is free software: you can redistribute it and/or modify it under
   the terms of the GNU Lesser General Public License as published by
   the Free Software Foundation, either version 3 of the License, or
   (at your option) any later version.
   
   xtb is distributed in the hope that it will be useful,
   but WITHOUT ANY WARRANTY; without even the implied warranty of
   MERCHANTABILITY or FITNESS FOR A PARTICULAR PURPOSE.  See the
   GNU Lesser General Public License for more details.
   
   Cite this work as:
   * C. Bannwarth, E. Caldeweyher, S. Ehlert, A. Hansen, P. Pracht,
     J. Seibert, S. Spicher, S. Grimme, WIREs Comput. Mol. Sci., 2020, 11,
     e01493. DOI: 10.1002/wcms.1493
   
   for GFN2-xTB:
   * C. Bannwarth, S. Ehlert and S. Grimme., J. Chem. Theory Comput., 2019,
     15, 1652-1671. DOI: 10.1021/acs.jctc.8b01176
   for GFN1-xTB:
   * S. Grimme, C. Bannwarth, P. Shushkov, J. Chem. Theory Comput., 2017,
     13, 1989-2009. DOI: 10.1021/acs.jctc.7b00118
   for GFN0-xTB:
   * P. Pracht, E. Caldeweyher, S. Ehlert, S. Grimme, ChemRxiv, 2019, preprint.
     DOI: 10.26434/chemrxiv.8326202.v1
   for GFN-FF:
   * S. Spicher and S. Grimme, Angew. Chem. Int. Ed., 2020, 59, 15665-15673.
     DOI: 10.1002/anie.202004239
   
   for ALPB and GBSA implicit solvation:
   * S. Ehlert, M. Stahn, S. Spicher, S. Grimme, J. Chem. Theory Comput.,
     2021, 17, 4250-4261. DOI: 10.1021/acs.jctc.1c00471
   
   for DFT-D4:
   * E. Caldeweyher, C. Bannwarth and S. Grimme, J. Chem. Phys., 2017,
     147, 034112. DOI: 10.1063/1.4993215
   * E. Caldeweyher, S. Ehlert, A. Hansen, H. Neugebauer, S. Spicher,
     C. Bannwarth and S. Grimme, J. Chem. Phys., 2019, 150, 154122.
     DOI: 10.1063/1.5090222
   * E. Caldeweyher, J.-M. Mewes, S. Ehlert and S. Grimme, Phys. Chem. Chem. Phys.
     2020, 22, 8499-8512. DOI: 10.1039/D0CP00502A
   
   for sTDA-xTB:
   * S. Grimme and C. Bannwarth, J. Chem. Phys., 2016, 145, 054103.
     DOI: 10.1063/1.4959605
   
   in the mass-spec context:
   * V. Asgeirsson, C. Bauer and S. Grimme, Chem. Sci., 2017, 8, 4879.
     DOI: 10.1039/c7sc00601b
   * J. Koopman and S. Grimme, ACS Omega 2019, 4, 12, 15120-15133.
     DOI: 10.1021/acsomega.9b02011
   
   for metadynamics refer to:
   * S. Grimme, J. Chem. Theory Comput., 2019, 155, 2847-2862
     DOI: 10.1021/acs.jctc.9b00143
   
   for SPH calculations refer to:
   * S. Spicher and S. Grimme, J. Chem. Theory Comput., 2021, 17, 1701-1714
     DOI: 10.1021/acs.jctc.0c01306
   
   with help from (in alphabetical order)
   P. Atkinson, C. Bannwarth, F. Bohle, G. Brandenburg, E. Caldeweyher
   M. Checinski, S. Dohm, S. Ehlert, S. Ehrlich, I. Gerasimov, C. Hölzer
   A. Katbashev, J. Koopman, C. Lavigne, S. Lehtola, F. März, M. Müller,
   F. Musil, H. Neugebauer, J. Pisarek, C. Plett, P. Pracht, F. Pultar,
   J. Seibert, P. Shushkov, S. Spicher, M. Stahn, M. Steiner, T. Strunk,
   J. Stückrath, T. Rose, and J. Unsleber
   
 * started run on 2025/02/19 at 10:40:06.972     

           -------------------------------------------------
          |                Calculation Setup                |
           -------------------------------------------------

          program call               : /home/liuchw/anaconda3/envs/xtbenv/bin/xtb --gfn 2 --chrg 0 --uhf 0 ethanol-opt-1-2-030_preQMOPTprefit_xyzformat.xyz --opt --input xtb-opt-1-2-030_constr.txt
          hostname                   : bme-earth.bme.utexas.edu
          coordinate file            : ethanol-opt-1-2-030_preQMOPTprefit_xyzformat.xyz
          omp threads                :                    24

   ID    Z sym.   atoms
    1    8 O      1
    2    6 C      2, 3
    3    1 H      4-9
constraining angle 9 1 2 4 to   29.6754000°, actual value:   29.6753808°
constraining angle 4 2 3 6 to   60.9769000°, actual value:   60.9769407°

           -------------------------------------------------
          |                 G F N 2 - x T B                 |
           -------------------------------------------------

        Reference                      10.1021/acs.jctc.8b01176
      * Hamiltonian:
        H0-scaling (s, p, d)           1.850000    2.230000    2.230000
        zeta-weighting                 0.500000
      * Dispersion:
        s8                             2.700000
        a1                             0.520000
        a2                             5.000000
        s9                             5.000000
      * Repulsion:
        kExp                           1.500000    1.000000
        rExp                           1.000000
      * Coulomb:
        alpha                          2.000000
        third order                    shell-resolved
        anisotropic                    true
        a3                             3.000000
        a5                             4.000000
        cn-shift                       1.200000
        cn-exp                         4.000000
        max-rad                        5.000000

q/qsh data taken from xtbrestart
CAMM data taken from xtbrestart

          ...................................................
          :                      SETUP                      :
          :.................................................:
          :  # basis functions                  18          :
          :  # atomic orbitals                  18          :
          :  # shells                           12          :
          :  # electrons                        20          :
          :  max. iterations                   250          :
          :  Hamiltonian                  GFN2-xTB          :
          :  restarted?                       true          :
          :  GBSA solvation                  false          :
          :  PC potential                    false          :
          :  electronic temp.          300.0000000     K    :
          :  accuracy                    1.0000000          :
          :  -> integral cutoff          0.2500000E+02      :
          :  -> integral neglect         0.1000000E-07      :
          :  -> SCF convergence          0.1000000E-05 Eh   :
          :  -> wf. convergence          0.1000000E-03 e    :
          :  Broyden damping             0.4000000          :
          ...................................................

 iter      E             dE          RMSdq      gap      omega  full diag
   1    -11.5048424 -0.115048E+02  0.134E+00   12.02       0.0  T
   2    -11.5059638 -0.112139E-02  0.836E-01   12.00       1.0  T
   3    -11.5063663 -0.402513E-03  0.210E-01   12.02       1.0  T
   4    -11.5064003 -0.340476E-04  0.906E-02   12.05       1.0  T
   5    -11.5064048 -0.448146E-05  0.365E-02   12.06       1.0  T
   6    -11.5064057 -0.838236E-06  0.843E-03   12.06       4.0  T
   7    -11.5064058 -0.927495E-07  0.226E-03   12.06      14.7  T
   8    -11.5064058 -0.565738E-08  0.487E-04   12.06      68.5  T
   9    -11.5064058 -0.109072E-09  0.124E-04   12.06     269.5  T

   *** convergence criteria satisfied after 9 iterations ***

         #    Occupation            Energy/Eh            Energy/eV
      -------------------------------------------------------------
         1        2.0000           -0.6820282             -18.5589
       ...           ...                  ...                  ...
         4        2.0000           -0.5662389             -15.4081
         5        2.0000           -0.5278925             -14.3647
         6        2.0000           -0.5041484             -13.7186
         7        2.0000           -0.4703535             -12.7990
         8        2.0000           -0.4596109             -12.5067
         9        2.0000           -0.4474315             -12.1752
        10        2.0000           -0.4091352             -11.1331 (HOMO)
        11                          0.0341515               0.9293 (LUMO)
        12                          0.1105025               3.0069
        13                          0.1288677               3.5067
        14                          0.1470165               4.0005
        15                          0.1776527               4.8342
       ...                                ...                  ...
        18                          0.2706942               7.3660
      -------------------------------------------------------------
                  HL-Gap            0.4432867 Eh           12.0624 eV
             Fermi-level           -0.1874919 Eh           -5.1019 eV

 SCC (total)                   0 d,  0 h,  0 min,  0.387 sec
 SCC setup                      ...        0 min,  0.009 sec (  2.363%)
 Dispersion                     ...        0 min,  0.023 sec (  5.881%)
 classical contributions        ...        0 min,  0.005 sec (  1.220%)
 integral evaluation            ...        0 min,  0.023 sec (  5.892%)
 iterations                     ...        0 min,  0.253 sec ( 65.532%)
 molecular gradient             ...        0 min,  0.074 sec ( 19.086%)
 printout                       ...        0 min,  0.000 sec (  0.018%)

         :::::::::::::::::::::::::::::::::::::::::::::::::::::
         ::                     SUMMARY                     ::
         :::::::::::::::::::::::::::::::::::::::::::::::::::::
         :: total energy             -11.390241939544 Eh    ::
         :: gradient norm              0.025828513223 Eh/a0 ::
         :: HOMO-LUMO gap             12.062445623606 eV    ::
         ::.................................................::
         :: SCC energy               -11.506405760245 Eh    ::
         :: -> isotropic ES            0.025977114945 Eh    ::
         :: -> anisotropic ES          0.003375278092 Eh    ::
         :: -> anisotropic XC          0.002584956553 Eh    ::
         :: -> dispersion             -0.002772170716 Eh    ::
         :: repulsion energy           0.116163334260 Eh    ::
         :: add. restraining           0.000000000002 Eh    ::
         :: total charge               0.000000000000 e     ::
         :::::::::::::::::::::::::::::::::::::::::::::::::::::

      ----------------------------------------------------------- 
     |                   =====================                   |
     |                        A N C O P T                        |
     |                   =====================                   |
     |               Approximate Normal Coordinate               |
     |                Rational Function Optimizer                |
      ----------------------------------------------------------- 

          ...................................................
          :                      SETUP                      :
          :.................................................:
          :   optimization level            normal          :
          :   max. optcycles                   200          :
          :   ANC micro-cycles                  20          :
          :   degrees of freedom                21          :
          :.................................................:
          :   RF solver                   davidson          :
          :   write xtbopt.log                true          :
          :   linear?                        false          :
          :   energy convergence         0.5000000E-05 Eh   :
          :   grad. convergence          0.1000000E-02 Eh/α :
          :   maximium RF displ.         1.0000000          :
          :   Hlow (freq-cutoff)         0.1000000E-01      :
          :   Hmax (freq-cutoff)         5.0000000          :
          :   S6 in model hess.         20.0000000          :
          ...................................................

generating ANC from model Hessian ...
Using Lindh-Hessian (1995)
 Shifting diagonal of input Hessian by    0.0000000000000000     
 Lowest  eigenvalues of input Hessian
    0.000000    0.000000    0.000000    0.000000    0.000000    0.000000
    0.023055    0.024963    0.046120    0.053435    0.075339    0.079164
    0.089297    0.101945    0.131310    0.133025    0.220585    0.375544
 Highest eigenvalues
    1.099668    1.127339    1.200071    1.347981    7.109828   11.021897


........................................................................
.............................. CYCLE    1 ..............................
........................................................................
   1    -11.5064058 -0.115064E+02  0.359E-05   12.06       0.0  T
   2    -11.5064058 -0.580869E-12  0.200E-05   12.06    1666.3  T
   3    -11.5064058 -0.186517E-12  0.440E-06   12.06    7578.5  T
     SCC iter.                  ...        0 min,  0.084 sec
     gradient                   ...        0 min,  0.073 sec
 * total energy  :   -11.3902419 Eh     change       -0.1269029E-10 Eh
   gradient norm :     0.0258287 Eh/α   predicted     0.0000000E+00 (-100.00%)
   displ. norm   :     0.0958326 α      lambda       -0.1144304E-02
   maximum displ.:     0.0537348 α      in ANC's #1, #2, #7, ...

........................................................................
.............................. CYCLE    2 ..............................
........................................................................
   1    -11.5108654 -0.115109E+02  0.128E-01   12.24       0.0  T
   2    -11.5108692 -0.382333E-05  0.750E-02   12.24       1.0  T
   3    -11.5108693 -0.145443E-06  0.134E-02   12.24       2.5  T
   4    -11.5108697 -0.343680E-06  0.299E-03   12.24      11.1  T
   5    -11.5108697 -0.369393E-08  0.126E-03   12.24      26.4  T
   6    -11.5108697 -0.558922E-09  0.323E-04   12.24     103.3  T
   7    -11.5108697 -0.748681E-10  0.918E-05   12.24     363.1  T
     SCC iter.                  ...        0 min,  0.201 sec
     gradient                   ...        0 min,  0.074 sec
 * total energy  :   -11.3908938 Eh     change       -0.6519078E-03 Eh
   gradient norm :     0.0084639 Eh/α   predicted    -0.5774054E-03 ( -11.43%)
   displ. norm   :     0.0249811 α      lambda       -0.1159666E-03
   maximum displ.:     0.0160493 α      in ANC's #4, #17, #1, ...

........................................................................
.............................. CYCLE    3 ..............................
........................................................................
   1    -11.5124360 -0.115124E+02  0.368E-02   12.38       0.0  T
   2    -11.5124365 -0.533568E-06  0.214E-02   12.38       1.6  T
   3    -11.5124365 -0.203277E-07  0.522E-03   12.38       6.4  T
   4    -11.5124365 -0.389714E-07  0.101E-03   12.38      33.1  T
   5    -11.5124365 -0.326594E-09  0.478E-04   12.38      69.7  T
   6    -11.5124365 -0.722959E-10  0.888E-05   12.38     375.5  T
     SCC iter.                  ...        0 min,  0.170 sec
     gradient                   ...        0 min,  0.084 sec
 * total energy  :   -11.3909609 Eh     change       -0.6704433E-04 Eh
   gradient norm :     0.0045062 Eh/α   predicted    -0.5801867E-04 ( -13.46%)
   displ. norm   :     0.0133830 α      lambda       -0.1798105E-04
   maximum displ.:     0.0065575 α      in ANC's #1, #2, #4, ...

........................................................................
.............................. CYCLE    4 ..............................
........................................................................
   1    -11.5125166 -0.115125E+02  0.160E-02   12.42       0.0  T
   2    -11.5125167 -0.120015E-06  0.939E-03   12.42       3.6  T
   3    -11.5125167 -0.449680E-08  0.250E-03   12.42      13.3  T
   4    -11.5125167 -0.797737E-08  0.484E-04   12.42      68.9  T
   5    -11.5125167 -0.237394E-09  0.186E-04   12.42     179.0  T
     SCC iter.                  ...        0 min,  0.142 sec
     gradient                   ...        0 min,  0.084 sec
 * total energy  :   -11.3909698 Eh     change       -0.8877847E-05 Eh
   gradient norm :     0.0049508 Eh/α   predicted    -0.8993862E-05 (   1.31%)
   displ. norm   :     0.0065071 α      lambda       -0.6176831E-05
   maximum displ.:     0.0034555 α      in ANC's #1, #2, #7, ...

........................................................................
.............................. CYCLE    5 ..............................
........................................................................
   1    -11.5123273 -0.115123E+02  0.796E-03   12.43       0.0  T
   2    -11.5123274 -0.247602E-07  0.463E-03   12.43       7.2  T
   3    -11.5123274 -0.102762E-08  0.971E-04   12.43      34.3  T
   4    -11.5123274 -0.146711E-08  0.232E-04   12.43     143.5  T
     SCC iter.                  ...        0 min,  0.114 sec
     gradient                   ...        0 min,  0.084 sec
 * total energy  :   -11.3909716 Eh     change       -0.1795586E-05 Eh
   gradient norm :     0.0031926 Eh/α   predicted    -0.3088315E-05 (  71.99%)
   displ. norm   :     0.0017119 α      lambda       -0.1379005E-05
   maximum displ.:     0.0010089 α      in ANC's #4, #7, #1, ...

........................................................................
.............................. CYCLE    6 ..............................
........................................................................
   1    -11.5122521 -0.115123E+02  0.255E-03   12.43       0.0  T
   2    -11.5122521 -0.201791E-08  0.149E-03   12.43      22.3  T
   3    -11.5122521 -0.208882E-09  0.239E-04   12.43     139.6  T
   4    -11.5122521 -0.383711E-10  0.755E-05   12.43     441.6  T
     SCC iter.                  ...        0 min,  0.118 sec
     gradient                   ...        0 min,  0.079 sec
 * total energy  :   -11.3909723 Eh     change       -0.7137019E-06 Eh
   gradient norm :     0.0003589 Eh/α   predicted    -0.6880452E-06 (  -3.59%)
   displ. norm   :     0.0005327 α      lambda       -0.5007434E-07
   maximum displ.:     0.0003066 α      in ANC's #7, #4, #18, ...

   *** GEOMETRY OPTIMIZATION CONVERGED AFTER 6 ITERATIONS ***

------------------------------------------------------------------------
 total energy gain   :        -0.0007303 Eh       -0.4583 kcal/mol
 total RMSD          :         0.0339007 a0        0.0179 Å
 total power (kW/mol):        -0.3195842 (step)   -1.3097 (real)
------------------------------------------------------------------------

 ANCopt (total)                0 d,  0 h,  0 min,  1.464 sec
 optimizer setup                ...        0 min,  0.000 sec (  0.011%)
 model hessian                  ...        0 min,  0.001 sec (  0.042%)
 ANC generation                 ...        0 min,  0.000 sec (  0.012%)
 coordinate transformation      ...        0 min,  0.000 sec (  0.001%)
 single point calculation       ...        0 min,  1.443 sec ( 98.582%)
 optimization log               ...        0 min,  0.001 sec (  0.077%)
 hessian update                 ...        0 min,  0.018 sec (  1.244%)
 rational function              ...        0 min,  0.000 sec (  0.016%)

================
 final structure:
================
9
 xtb: 6.5.0 (97a52f5)
O            0.95434077805504       -0.49480143090176       -0.46938636185648
C            0.23132801522842        0.36822750437576        0.38853029301439
C           -1.25079097604635        0.03802916577466        0.29392254354700
H            0.40355458552680        1.41818574119061        0.12119070445193
H            0.57764603028700        0.22627636666886        1.42417103823176
H           -1.60043436921367        0.18807936951354       -0.72403942451404
H           -1.81885791704837        0.67327433842715        0.96765797739231
H           -1.40915989644196       -1.00277245325291        0.56147301796111
H            1.75410673965308       -0.05690960179591       -0.77199778822798

 Bond Distances (Angstroems)
 ---------------------------
O1-C2=1.4155         O1-H9=0.9607         C2-O1=1.4155         C2-C3=1.5214         C2-H4=1.0971         C2-H5=1.1012         
C3-C2=1.5214         C3-H6=1.0867         C3-H7=1.0863         C3-H8=1.0862         H4-C2=1.0971         H5-C2=1.1012         
H6-C3=1.0867         H7-C3=1.0863         H8-C3=1.0862         H9-O1=0.9607         
 C  H  Rav=1.0915 sigma=0.0064  Rmin=1.0862  Rmax=1.1012     5
 C  C  Rav=1.5214 sigma=0.0000  Rmin=1.5214  Rmax=1.5214     1
 O  H  Rav=0.9607 sigma=0.0000  Rmin=0.9607  Rmax=0.9607     1
 O  C  Rav=1.4155 sigma=0.0000  Rmin=1.4155  Rmax=1.4155     1

 selected bond angles (degree)
 --------------------
H9-O1-C2=109.77                C3-C2-O1=109.12                H4-C2-O1=110.83                H4-C2-C3=110.21                
H5-C2-O1=109.32                H5-C2-C3=109.69                H5-C2-H4=107.65                H6-C3-C2=109.98                
H7-C3-C2=110.12                H7-C3-H6=109.39                H8-C3-C2=109.55                H8-C3-H6=108.43                
H8-C3-H7=109.35                

 selected dihedral angles (degree)
 ---------------------------------
C3-C2-O1-H9=151.25            H4-C2-O1-H9= 29.70            H5-C2-O1-H9=271.21            H6-C3-C2-O1=299.05            
H6-C3-C2-H4= 60.97            H6-C3-C2-H5=179.32            H7-C3-C2-O1=178.43            H7-C3-C2-H4=300.35            
H7-C3-C2-H5= 58.70            H8-C3-C2-O1= 58.13            H8-C3-C2-H4=180.05            H8-C3-C2-H5=298.40            
           -------------------------------------------------
          |                Final Singlepoint                |
           -------------------------------------------------

          ...................................................
          :                      SETUP                      :
          :.................................................:
          :  # basis functions                  18          :
          :  # atomic orbitals                  18          :
          :  # shells                           12          :
          :  # electrons                        20          :
          :  max. iterations                   250          :
          :  Hamiltonian                  GFN2-xTB          :
          :  restarted?                      false          :
          :  GBSA solvation                  false          :
          :  PC potential                    false          :
          :  electronic temp.          300.0000000     K    :
          :  accuracy                    1.0000000          :
          :  -> integral cutoff          0.2500000E+02      :
          :  -> integral neglect         0.1000000E-07      :
          :  -> SCF convergence          0.1000000E-05 Eh   :
          :  -> wf. convergence          0.1000000E-03 e    :
          :  Broyden damping             0.4000000          :
          ...................................................

 iter      E             dE          RMSdq      gap      omega  full diag
   1    -11.5122521 -0.115123E+02  0.368E-05   12.43       0.0  T
   2    -11.5122521 -0.728306E-12  0.242E-05   12.43    1375.3  T
   3    -11.5122521 -0.266454E-12  0.568E-06   12.43    5865.2  T

   *** convergence criteria satisfied after 3 iterations ***

         #    Occupation            Energy/Eh            Energy/eV
      -------------------------------------------------------------
         1        2.0000           -0.6845458             -18.6274
       ...           ...                  ...                  ...
         4        2.0000           -0.5677290             -15.4487
         5        2.0000           -0.5289875             -14.3945
         6        2.0000           -0.5041471             -13.7185
         7        2.0000           -0.4707765             -12.8105
         8        2.0000           -0.4609477             -12.5430
         9        2.0000           -0.4460789             -12.1384
        10        2.0000           -0.4074307             -11.0868 (HOMO)
        11                          0.0492119               1.3391 (LUMO)
        12                          0.1258710               3.4251
        13                          0.1282651               3.4903
        14                          0.1534981               4.1769
        15                          0.1818199               4.9476
       ...                                ...                  ...
        18                          0.2840045               7.7282
      -------------------------------------------------------------
                  HL-Gap            0.4566426 Eh           12.4259 eV
             Fermi-level           -0.1791094 Eh           -4.8738 eV

 SCC (total)                   0 d,  0 h,  0 min,  0.163 sec
 SCC setup                      ...        0 min,  0.000 sec (  0.023%)
 Dispersion                     ...        0 min,  0.000 sec (  0.020%)
 classical contributions        ...        0 min,  0.000 sec (  0.007%)
 integral evaluation            ...        0 min,  0.000 sec (  0.071%)
 iterations                     ...        0 min,  0.084 sec ( 51.379%)
 molecular gradient             ...        0 min,  0.079 sec ( 48.455%)
 printout                       ...        0 min,  0.000 sec (  0.036%)

         :::::::::::::::::::::::::::::::::::::::::::::::::::::
         ::                     SUMMARY                     ::
         :::::::::::::::::::::::::::::::::::::::::::::::::::::
         :: total energy             -11.390972278782 Eh    ::
         :: gradient norm              0.000359137970 Eh/a0 ::
         :: HOMO-LUMO gap             12.425877816586 eV    ::
         ::.................................................::
         :: SCC energy               -11.512252066644 Eh    ::
         :: -> isotropic ES            0.025869901920 Eh    ::
         :: -> anisotropic ES          0.002981030828 Eh    ::
         :: -> anisotropic XC          0.002142948785 Eh    ::
         :: -> dispersion             -0.002774089604 Eh    ::
         :: repulsion energy           0.121278704718 Eh    ::
         :: add. restraining           0.000000612135 Eh    ::
         :: total charge              -0.000000000000 e     ::
         :::::::::::::::::::::::::::::::::::::::::::::::::::::

           -------------------------------------------------
          |                Property Printout                |
           -------------------------------------------------

    * Orbital Energies and Occupations

         #    Occupation            Energy/Eh            Energy/eV
      -------------------------------------------------------------
         1        2.0000           -0.6845458             -18.6274
         2        2.0000           -0.6258089             -17.0291
         3        2.0000           -0.5800024             -15.7827
         4        2.0000           -0.5677290             -15.4487
         5        2.0000           -0.5289875             -14.3945
         6        2.0000           -0.5041471             -13.7185
         7        2.0000           -0.4707765             -12.8105
         8        2.0000           -0.4609477             -12.5430
         9        2.0000           -0.4460789             -12.1384
        10        2.0000           -0.4074307             -11.0868 (HOMO)
        11                          0.0492119               1.3391 (LUMO)
        12                          0.1258710               3.4251
        13                          0.1282651               3.4903
        14                          0.1534981               4.1769
        15                          0.1818199               4.9476
        16                          0.2124890               5.7821
        17                          0.2593704               7.0578
        18                          0.2840045               7.7282
      -------------------------------------------------------------
                  HL-Gap            0.4566426 Eh           12.4259 eV
             Fermi-level           -0.1791094 Eh           -4.8738 eV

     #   Z          covCN         q      C6AA      α(0)
     1   8 O        1.655    -0.443    21.710     6.290
     2   6 C        3.672     0.091    19.298     6.296
     3   6 C        3.751    -0.112    22.697     6.794
     4   1 H        0.924     0.013     2.838     2.635
     5   1 H        0.923     0.020     2.727     2.583
     6   1 H        0.925     0.051     2.306     2.374
     7   1 H        0.925     0.039     2.464     2.455
     8   1 H        0.925     0.056     2.244     2.343
     9   1 H        0.805     0.284     0.771     1.379

 Mol. C6AA /au·bohr⁶  :        508.783681
 Mol. C8AA /au·bohr⁸  :      10107.272014
 Mol. α(0) /au        :         33.149268


Wiberg/Mayer (AO) data.
largest (>0.10) Wiberg bond orders for each atom

 ---------------------------------------------------------------------------
     #   Z sym  total        # sym  WBO       # sym  WBO       # sym  WBO
 ---------------------------------------------------------------------------
     1   8 O    1.950 --     2 C    0.992     9 H    0.907
     2   6 C    3.958 --     3 C    1.017     1 O    0.992     4 H    0.977
                             5 H    0.971
     3   6 C    3.994 --     2 C    1.017     6 H    0.987     7 H    0.986
                             8 H    0.986
     4   1 H    1.000 --     2 C    0.977
     5   1 H    1.000 --     2 C    0.971
     6   1 H    0.997 --     3 C    0.987
     7   1 H    0.998 --     3 C    0.986
     8   1 H    0.997 --     3 C    0.986
     9   1 H    0.919 --     1 O    0.907
 ---------------------------------------------------------------------------

Topologies differ in total number of bonds
Writing topology from bond orders to xtbtopo.mol

molecular dipole:
                 x           y           z       tot (Debye)
 q only:        0.040       0.445       0.103
   full:        0.186       0.662       0.128       1.778
molecular quadrupole (traceless):
                xx          xy          yy          xz          yz          zz
 q only:        2.061       1.183      -1.540      -0.926      -0.445      -0.521
  q+dip:        2.082       1.969      -1.769      -0.699      -1.371      -0.313
   full:        2.440       1.889      -1.899      -1.062      -1.010      -0.541

           -------------------------------------------------
          |                Geometry Summary                 |
           -------------------------------------------------

      molecular mass/u    :       46.0685212
   center of mass at/Å    :        0.0198534      -0.0342852       0.0494448
  moments of inertia/u·Å² :        0.1423081E+02   0.5441134E+02   0.6199063E+02
rotational constants/cm⁻¹ :        0.1184587E+01   0.3098184E+00   0.2719384E+00

 * 8 selected distances

     #   Z          #   Z                                           value/Å
     1   8 O        2   6 C                                       1.4154815
     2   6 C        3   6 C                                       1.5214002 (max)
     2   6 C        4   1 H                                       1.0970620
     2   6 C        5   1 H                                       1.1011986
     3   6 C        6   1 H                                       1.0867439
     3   6 C        7   1 H                                       1.0863499
     3   6 C        8   1 H                                       1.0862468
     1   8 O        9   1 H                                       0.9607022 (min)

 * 4 distinct bonds (by element types)

   Z      Z             #   av. dist./Å        max./Å        min./Å
   1 H    6 C           5     1.0915202     1.1011986     1.0862468
   6 C    6 C           1     1.5214002     1.5214002     1.5214002
   1 H    8 O           1     0.9607022     0.9607022     0.9607022
   6 C    8 O           1     1.4154815     1.4154815     1.4154815


optimized geometry written to: xtbopt.xyz


           -------------------------------------------------
          | TOTAL ENERGY              -11.390972278782 Eh   |
          | GRADIENT NORM               0.000359137970 Eh/α |
          | HOMO-LUMO GAP              12.425877816586 eV   |
           -------------------------------------------------
########################################################################
[WARNING] Runtime exception occurred
-1- restart_readRestart: Number of electron missmatch in restart file.
########################################################################

------------------------------------------------------------------------
 * finished run on 2025/02/19 at 10:40:09.092     
------------------------------------------------------------------------
 total:
 * wall-time:     0 d,  0 h,  0 min,  2.120 sec
 *  cpu-time:     0 d,  0 h,  0 min, 49.733 sec
 * ratio c/w:    23.463 speedup
 SCF:
 * wall-time:     0 d,  0 h,  0 min,  0.387 sec
 *  cpu-time:     0 d,  0 h,  0 min,  9.095 sec
 * ratio c/w:    23.525 speedup
 ANC optimizer:
 * wall-time:     0 d,  0 h,  0 min,  1.640 sec
 *  cpu-time:     0 d,  0 h,  0 min, 38.526 sec
 * ratio c/w:    23.497 speedup

