9
 energy: -11.388607345210 gnorm: 0.000238590245 xtb: 6.5.0 (97a52f5)
O            0.83794804630494       -0.08603813708710       -0.81345586599382
C            0.24302052091496        0.30995322988056        0.40696121350035
C           -1.26052037139916        0.03868658604438        0.31517811796238
H            0.43232287809497        1.37814982935093        0.58434539576378
H            0.68712759604013       -0.25407957009382        1.23924727082244
H           -1.46462845224746       -0.39723931708592       -0.65898292524251
H           -1.83499737890766        0.95518768000020        0.40985108724189
H           -1.58521692328691       -0.65818901416062        1.08171340275355
H            1.78667808448617        0.07115671315138       -0.77333470680806
