      -----------------------------------------------------------      
     |                   =====================                   |     
     |                           x T B                           |     
     |                   =====================                   |     
     |                         S. Grimme                         |     
     |          Mulliken Center for Theoretical Chemistry        |     
     |                    University of Bonn                     |     
      -----------------------------------------------------------      

   * xtb version 6.5.0 (97a52f5) compiled by 'conda@d2599ee0d4f4' on 2022-05-15

   xtb is free software: you can redistribute it and/or modify it under
   the terms of the GNU Lesser General Public License as published by
   the Free Software Foundation, either version 3 of the License, or
   (at your option) any later version.
   
   xtb is distributed in the hope that it will be useful,
   but WITHOUT ANY WARRANTY; without even the implied warranty of
   MERCHANTABILITY or FITNESS FOR A PARTICULAR PURPOSE.  See the
   GNU Lesser General Public License for more details.
   
   Cite this work as:
   * C. Bannwarth, E. Caldeweyher, S. Ehlert, A. Hansen, P. Pracht,
     J. Seibert, S. Spicher, S. Grimme, WIREs Comput. Mol. Sci., 2020, 11,
     e01493. DOI: 10.1002/wcms.1493
   
   for GFN2-xTB:
   * C. Bannwarth, S. Ehlert and S. Grimme., J. Chem. Theory Comput., 2019,
     15, 1652-1671. DOI: 10.1021/acs.jctc.8b01176
   for GFN1-xTB:
   * S. Grimme, C. Bannwarth, P. Shushkov, J. Chem. Theory Comput., 2017,
     13, 1989-2009. DOI: 10.1021/acs.jctc.7b00118
   for GFN0-xTB:
   * P. Pracht, E. Caldeweyher, S. Ehlert, S. Grimme, ChemRxiv, 2019, preprint.
     DOI: 10.26434/chemrxiv.8326202.v1
   for GFN-FF:
   * S. Spicher and S. Grimme, Angew. Chem. Int. Ed., 2020, 59, 15665-15673.
     DOI: 10.1002/anie.202004239
   
   for ALPB and GBSA implicit solvation:
   * S. Ehlert, M. Stahn, S. Spicher, S. Grimme, J. Chem. Theory Comput.,
     2021, 17, 4250-4261. DOI: 10.1021/acs.jctc.1c00471
   
   for DFT-D4:
   * E. Caldeweyher, C. Bannwarth and S. Grimme, J. Chem. Phys., 2017,
     147, 034112. DOI: 10.1063/1.4993215
   * E. Caldeweyher, S. Ehlert, A. Hansen, H. Neugebauer, S. Spicher,
     C. Bannwarth and S. Grimme, J. Chem. Phys., 2019, 150, 154122.
     DOI: 10.1063/1.5090222
   * E. Caldeweyher, J.-M. Mewes, S. Ehlert and S. Grimme, Phys. Chem. Chem. Phys.
     2020, 22, 8499-8512. DOI: 10.1039/D0CP00502A
   
   for sTDA-xTB:
   * S. Grimme and C. Bannwarth, J. Chem. Phys., 2016, 145, 054103.
     DOI: 10.1063/1.4959605
   
   in the mass-spec context:
   * V. Asgeirsson, C. Bauer and S. Grimme, Chem. Sci., 2017, 8, 4879.
     DOI: 10.1039/c7sc00601b
   * J. Koopman and S. Grimme, ACS Omega 2019, 4, 12, 15120-15133.
     DOI: 10.1021/acsomega.9b02011
   
   for metadynamics refer to:
   * S. Grimme, J. Chem. Theory Comput., 2019, 155, 2847-2862
     DOI: 10.1021/acs.jctc.9b00143
   
   for SPH calculations refer to:
   * S. Spicher and S. Grimme, J. Chem. Theory Comput., 2021, 17, 1701-1714
     DOI: 10.1021/acs.jctc.0c01306
   
   with help from (in alphabetical order)
   P. Atkinson, C. Bannwarth, F. Bohle, G. Brandenburg, E. Caldeweyher
   M. Checinski, S. Dohm, S. Ehlert, S. Ehrlich, I. Gerasimov, C. Hölzer
   A. Katbashev, J. Koopman, C. Lavigne, S. Lehtola, F. März, M. Müller,
   F. Musil, H. Neugebauer, J. Pisarek, C. Plett, P. Pracht, F. Pultar,
   J. Seibert, P. Shushkov, S. Spicher, M. Stahn, M. Steiner, T. Strunk,
   J. Stückrath, T. Rose, and J. Unsleber
   
 * started run on 2025/02/19 at 10:39:37.767     

           -------------------------------------------------
          |                Calculation Setup                |
           -------------------------------------------------

          program call               : /home/liuchw/anaconda3/envs/xtbenv/bin/xtb --gfn 2 --chrg 0 --uhf 0 ethanol-opt-1-2-090_preQMOPTprefit_xyzformat.xyz --opt --input xtb-opt-1-2-090_constr.txt
          hostname                   : bme-earth.bme.utexas.edu
          coordinate file            : ethanol-opt-1-2-090_preQMOPTprefit_xyzformat.xyz
          omp threads                :                    24

   ID    Z sym.   atoms
    1    8 O      1
    2    6 C      2, 3
    3    1 H      4-9
constraining angle 9 1 2 4 to   89.6652000°, actual value:   89.6652413°
constraining angle 4 2 3 6 to   60.9742000°, actual value:   60.9742370°

           -------------------------------------------------
          |                 G F N 2 - x T B                 |
           -------------------------------------------------

        Reference                      10.1021/acs.jctc.8b01176
      * Hamiltonian:
        H0-scaling (s, p, d)           1.850000    2.230000    2.230000
        zeta-weighting                 0.500000
      * Dispersion:
        s8                             2.700000
        a1                             0.520000
        a2                             5.000000
        s9                             5.000000
      * Repulsion:
        kExp                           1.500000    1.000000
        rExp                           1.000000
      * Coulomb:
        alpha                          2.000000
        third order                    shell-resolved
        anisotropic                    true
        a3                             3.000000
        a5                             4.000000
        cn-shift                       1.200000
        cn-exp                         4.000000
        max-rad                        5.000000

q/qsh data taken from xtbrestart
CAMM data taken from xtbrestart

          ...................................................
          :                      SETUP                      :
          :.................................................:
          :  # basis functions                  18          :
          :  # atomic orbitals                  18          :
          :  # shells                           12          :
          :  # electrons                        20          :
          :  max. iterations                   250          :
          :  Hamiltonian                  GFN2-xTB          :
          :  restarted?                       true          :
          :  GBSA solvation                  false          :
          :  PC potential                    false          :
          :  electronic temp.          300.0000000     K    :
          :  accuracy                    1.0000000          :
          :  -> integral cutoff          0.2500000E+02      :
          :  -> integral neglect         0.1000000E-07      :
          :  -> SCF convergence          0.1000000E-05 Eh   :
          :  -> wf. convergence          0.1000000E-03 e    :
          :  Broyden damping             0.4000000          :
          ...................................................

 iter      E             dE          RMSdq      gap      omega  full diag
   1    -11.5062796 -0.115063E+02  0.521E-01   12.06       0.0  T
   2    -11.5063077 -0.280404E-04  0.323E-01   12.06       1.0  T
   3    -11.5063190 -0.112816E-04  0.284E-02   12.06       1.2  T
   4    -11.5063205 -0.153004E-05  0.147E-02   12.06       2.3  T
   5    -11.5063206 -0.648050E-07  0.368E-03   12.06       9.0  T
   6    -11.5063206 -0.818539E-08  0.671E-04   12.06      49.7  T
   7    -11.5063206 -0.278561E-09  0.278E-04   12.06     119.9  T

   *** convergence criteria satisfied after 7 iterations ***

         #    Occupation            Energy/Eh            Energy/eV
      -------------------------------------------------------------
         1        2.0000           -0.6820060             -18.5583
       ...           ...                  ...                  ...
         4        2.0000           -0.5662205             -15.4076
         5        2.0000           -0.5279038             -14.3650
         6        2.0000           -0.5041247             -13.7179
         7        2.0000           -0.4703846             -12.7998
         8        2.0000           -0.4596183             -12.5069
         9        2.0000           -0.4473079             -12.1719
        10        2.0000           -0.4091963             -11.1348 (HOMO)
        11                          0.0340417               0.9263 (LUMO)
        12                          0.1100795               2.9954
        13                          0.1291297               3.5138
        14                          0.1471177               4.0033
        15                          0.1773267               4.8253
       ...                                ...                  ...
        18                          0.2706316               7.3643
      -------------------------------------------------------------
                  HL-Gap            0.4432380 Eh           12.0611 eV
             Fermi-level           -0.1875773 Eh           -5.1042 eV

 SCC (total)                   0 d,  0 h,  0 min,  0.334 sec
 SCC setup                      ...        0 min,  0.005 sec (  1.390%)
 Dispersion                     ...        0 min,  0.014 sec (  4.102%)
 classical contributions        ...        0 min,  0.014 sec (  4.102%)
 integral evaluation            ...        0 min,  0.027 sec (  8.187%)
 iterations                     ...        0 min,  0.201 sec ( 60.320%)
 molecular gradient             ...        0 min,  0.073 sec ( 21.872%)
 printout                       ...        0 min,  0.000 sec (  0.018%)

         :::::::::::::::::::::::::::::::::::::::::::::::::::::
         ::                     SUMMARY                     ::
         :::::::::::::::::::::::::::::::::::::::::::::::::::::
         :: total energy             -11.390225341107 Eh    ::
         :: gradient norm              0.025963520191 Eh/a0 ::
         :: HOMO-LUMO gap             12.061119747708 eV    ::
         ::.................................................::
         :: SCC energy               -11.506320561662 Eh    ::
         :: -> isotropic ES            0.025972134119 Eh    ::
         :: -> anisotropic ES          0.003381617887 Eh    ::
         :: -> anisotropic XC          0.002595917450 Eh    ::
         :: -> dispersion             -0.002772221502 Eh    ::
         :: repulsion energy           0.116094733930 Eh    ::
         :: add. restraining           0.000000000002 Eh    ::
         :: total charge              -0.000000000000 e     ::
         :::::::::::::::::::::::::::::::::::::::::::::::::::::

      ----------------------------------------------------------- 
     |                   =====================                   |
     |                        A N C O P T                        |
     |                   =====================                   |
     |               Approximate Normal Coordinate               |
     |                Rational Function Optimizer                |
      ----------------------------------------------------------- 

          ...................................................
          :                      SETUP                      :
          :.................................................:
          :   optimization level            normal          :
          :   max. optcycles                   200          :
          :   ANC micro-cycles                  20          :
          :   degrees of freedom                21          :
          :.................................................:
          :   RF solver                   davidson          :
          :   write xtbopt.log                true          :
          :   linear?                        false          :
          :   energy convergence         0.5000000E-05 Eh   :
          :   grad. convergence          0.1000000E-02 Eh/α :
          :   maximium RF displ.         1.0000000          :
          :   Hlow (freq-cutoff)         0.1000000E-01      :
          :   Hmax (freq-cutoff)         5.0000000          :
          :   S6 in model hess.         20.0000000          :
          ...................................................

generating ANC from model Hessian ...
Using Lindh-Hessian (1995)
 Shifting diagonal of input Hessian by    0.0000000000000000     
 Lowest  eigenvalues of input Hessian
    0.000000    0.000000    0.000000    0.000000    0.000000    0.000000
    0.023151    0.027158    0.045673    0.056504    0.072153    0.077307
    0.081267    0.106259    0.132615    0.146247    0.223994    0.379422
 Highest eigenvalues
    1.101366    1.110712    1.195380    1.340853    6.531485    9.986334


........................................................................
.............................. CYCLE    1 ..............................
........................................................................
   1    -11.5063206 -0.115063E+02  0.822E-05   12.06       0.0  T
   2    -11.5063206 -0.246558E-11  0.524E-05   12.06     635.6  T
   3    -11.5063206 -0.171951E-11  0.917E-06   12.06    3635.9  T
     SCC iter.                  ...        0 min,  0.089 sec
     gradient                   ...        0 min,  0.084 sec
 * total energy  :   -11.3902253 Eh     change       -0.7483791E-10 Eh
   gradient norm :     0.0259642 Eh/α   predicted     0.0000000E+00 (-100.00%)
   displ. norm   :     0.0881879 α      lambda       -0.1121484E-02
   maximum displ.:     0.0495118 α      in ANC's #1, #5, #8, ...

........................................................................
.............................. CYCLE    2 ..............................
........................................................................
   1    -11.5108175 -0.115108E+02  0.128E-01   12.26       0.0  T
   2    -11.5108221 -0.461879E-05  0.744E-02   12.26       1.0  T
   3    -11.5108222 -0.137376E-06  0.146E-02   12.26       2.3  T
   4    -11.5108226 -0.371028E-06  0.298E-03   12.26      11.2  T
   5    -11.5108226 -0.332681E-08  0.140E-03   12.26      23.8  T
   6    -11.5108226 -0.654035E-09  0.312E-04   12.26     106.9  T
   7    -11.5108226 -0.580709E-10  0.822E-05   12.26     405.4  T
     SCC iter.                  ...        0 min,  0.196 sec
     gradient                   ...        0 min,  0.084 sec
 * total energy  :   -11.3908806 Eh     change       -0.6552400E-03 Eh
   gradient norm :     0.0088286 Eh/α   predicted    -0.5651040E-03 ( -13.76%)
   displ. norm   :     0.0262766 α      lambda       -0.1263297E-03
   maximum displ.:     0.0144555 α      in ANC's #1, #4, #5, ...

........................................................................
.............................. CYCLE    3 ..............................
........................................................................
   1    -11.5124333 -0.115124E+02  0.390E-02   12.40       0.0  T
   2    -11.5124339 -0.544501E-06  0.229E-02   12.40       1.5  T
   3    -11.5124339 -0.172641E-07  0.512E-03   12.40       6.5  T
   4    -11.5124339 -0.428964E-07  0.975E-04   12.40      34.2  T
   5    -11.5124339 -0.297497E-09  0.484E-04   12.40      68.9  T
     SCC iter.                  ...        0 min,  0.147 sec
     gradient                   ...        0 min,  0.073 sec
 * total energy  :   -11.3909521 Eh     change       -0.7156224E-04 Eh
   gradient norm :     0.0036615 Eh/α   predicted    -0.6320739E-04 ( -11.67%)
   displ. norm   :     0.0096591 α      lambda       -0.1397001E-04
   maximum displ.:     0.0052094 α      in ANC's #4, #7, #1, ...

........................................................................
.............................. CYCLE    4 ..............................
........................................................................
   1    -11.5124587 -0.115125E+02  0.125E-02   12.43       0.0  T
   2    -11.5124587 -0.605521E-07  0.739E-03   12.43       4.5  T
   3    -11.5124587 -0.261433E-08  0.169E-03   12.43      19.7  T
   4    -11.5124587 -0.451039E-08  0.369E-04   12.43      90.3  T
   5    -11.5124587 -0.137710E-09  0.144E-04   12.43     231.8  T
     SCC iter.                  ...        0 min,  0.145 sec
     gradient                   ...        0 min,  0.079 sec
 * total energy  :   -11.3909596 Eh     change       -0.7504397E-05 Eh
   gradient norm :     0.0031918 Eh/α   predicted    -0.6986389E-05 (  -6.90%)
   displ. norm   :     0.0044684 α      lambda       -0.3689082E-05
   maximum displ.:     0.0021726 α      in ANC's #7, #6, #3, ...

........................................................................
.............................. CYCLE    5 ..............................
........................................................................
   1    -11.5122932 -0.115123E+02  0.572E-03   12.44       0.0  T
   2    -11.5122932 -0.119371E-07  0.336E-03   12.44       9.9  T
   3    -11.5122932 -0.573785E-09  0.652E-04   12.44      51.1  T
   4    -11.5122932 -0.717693E-09  0.168E-04   12.44     198.3  T
     SCC iter.                  ...        0 min,  0.112 sec
     gradient                   ...        0 min,  0.073 sec
 * total energy  :   -11.3909609 Eh     change       -0.1254984E-05 Eh
   gradient norm :     0.0020196 Eh/α   predicted    -0.1843797E-05 (  46.92%)
   displ. norm   :     0.0019492 α      lambda       -0.6534186E-06
   maximum displ.:     0.0016481 α      in ANC's #1, #4, #7, ...

........................................................................
.............................. CYCLE    6 ..............................
........................................................................
   1    -11.5122461 -0.115122E+02  0.174E-03   12.44       0.0  T
   2    -11.5122461 -0.108901E-08  0.102E-03   12.44      32.8  T
   3    -11.5122461 -0.131772E-09  0.164E-04   12.44     203.2  T
   4    -11.5122461 -0.196749E-10  0.534E-05   12.44     624.7  T
     SCC iter.                  ...        0 min,  0.111 sec
     gradient                   ...        0 min,  0.073 sec
 * total energy  :   -11.3909613 Eh     change       -0.3550893E-06 Eh
   gradient norm :     0.0001387 Eh/α   predicted    -0.3251840E-06 (  -8.42%)
   displ. norm   :     0.0010879 α      lambda       -0.3011840E-07
   maximum displ.:     0.0009598 α      in ANC's #1, #2, #8, ...

   *** GEOMETRY OPTIMIZATION CONVERGED AFTER 6 ITERATIONS ***

------------------------------------------------------------------------
 total energy gain   :        -0.0007359 Eh       -0.4618 kcal/mol
 total RMSD          :         0.0325993 a0        0.0173 Å
 total power (kW/mol):        -0.3220249 (step)   -1.3100 (real)
------------------------------------------------------------------------

 ANCopt (total)                0 d,  0 h,  0 min,  1.475 sec
 optimizer setup                ...        0 min,  0.000 sec (  0.011%)
 model hessian                  ...        0 min,  0.003 sec (  0.227%)
 ANC generation                 ...        0 min,  0.000 sec (  0.009%)
 coordinate transformation      ...        0 min,  0.000 sec (  0.001%)
 single point calculation       ...        0 min,  1.458 sec ( 98.823%)
 optimization log               ...        0 min,  0.001 sec (  0.058%)
 hessian update                 ...        0 min,  0.012 sec (  0.844%)
 rational function              ...        0 min,  0.000 sec (  0.015%)

================
 final structure:
================
9
 xtb: 6.5.0 (97a52f5)
O            0.90836737718330       -0.28215261123198       -0.68473162719806
C            0.21794667998306        0.44634669898138        0.31353044680358
C           -1.24662362541706        0.02917129131186        0.30264949997990
H            0.29038740636033        1.52262865784049        0.09604875723162
H            0.64987556857480        0.25924915971285        1.30370561872505
H           -1.67113619836092        0.21561391273581       -0.67960674388942
H           -1.80102561481868        0.59519938363505        1.04614539517512
H           -1.33285905405130       -1.03190540378253        0.52061719080250
H            1.82680045054648       -0.39656310920292       -0.42683553763030

 Bond Distances (Angstroems)
 ---------------------------
O1-C2=1.4156         O1-H9=0.9608         C2-O1=1.4156         C2-C3=1.5229         C2-H4=1.1004         C2-H5=1.0964         
C3-C2=1.5229         C3-H6=1.0862         C3-H7=1.0865         C3-H8=1.0867         H4-C2=1.1004         H5-C2=1.0964         
H6-C3=1.0862         H7-C3=1.0865         H8-C3=1.0867         H9-O1=0.9608         
 C  H  Rav=1.0912 sigma=0.0060  Rmin=1.0862  Rmax=1.1004     5
 C  C  Rav=1.5229 sigma=0.0000  Rmin=1.5229  Rmax=1.5229     1
 O  H  Rav=0.9608 sigma=0.0000  Rmin=0.9608  Rmax=0.9608     1
 O  C  Rav=1.4156 sigma=0.0000  Rmin=1.4156  Rmax=1.4156     1

 selected bond angles (degree)
 --------------------
H9-O1-C2=109.77                C3-C2-O1=108.85                H4-C2-O1=109.38                H4-C2-C3=109.26                
H5-C2-O1=110.91                H5-C2-C3=109.79                H5-C2-H4=108.63                H6-C3-C2=109.59                
H7-C3-C2=110.07                H7-C3-H6=109.27                H8-C3-C2=110.02                H8-C3-H6=108.54                
H8-C3-H7=109.33                

 selected dihedral angles (degree)
 ---------------------------------
C3-C2-O1-H9=208.95            H4-C2-O1-H9= 89.64            H5-C2-O1-H9=329.84            H6-C3-C2-O1=301.59            
H6-C3-C2-H4= 60.98            H6-C3-C2-H5=180.02            H7-C3-C2-O1=181.40            H7-C3-C2-H4=300.79            
H7-C3-C2-H5= 59.82            H8-C3-C2-O1= 60.86            H8-C3-C2-H4=180.25            H8-C3-C2-H5=299.29            
           -------------------------------------------------
          |                Final Singlepoint                |
           -------------------------------------------------

          ...................................................
          :                      SETUP                      :
          :.................................................:
          :  # basis functions                  18          :
          :  # atomic orbitals                  18          :
          :  # shells                           12          :
          :  # electrons                        20          :
          :  max. iterations                   250          :
          :  Hamiltonian                  GFN2-xTB          :
          :  restarted?                      false          :
          :  GBSA solvation                  false          :
          :  PC potential                    false          :
          :  electronic temp.          300.0000000     K    :
          :  accuracy                    1.0000000          :
          :  -> integral cutoff          0.2500000E+02      :
          :  -> integral neglect         0.1000000E-07      :
          :  -> SCF convergence          0.1000000E-05 Eh   :
          :  -> wf. convergence          0.1000000E-03 e    :
          :  Broyden damping             0.4000000          :
          ...................................................

 iter      E             dE          RMSdq      gap      omega  full diag
   1    -11.5122461 -0.115122E+02  0.252E-05   12.44       0.0  T
   2    -11.5122461 -0.367706E-12  0.162E-05   12.44    2054.1  T
   3    -11.5122461 -0.140332E-12  0.445E-06   12.44    7492.5  T

   *** convergence criteria satisfied after 3 iterations ***

         #    Occupation            Energy/Eh            Energy/eV
      -------------------------------------------------------------
         1        2.0000           -0.6844966             -18.6261
       ...           ...                  ...                  ...
         4        2.0000           -0.5674983             -15.4424
         5        2.0000           -0.5292074             -14.4005
         6        2.0000           -0.5041182             -13.7178
         7        2.0000           -0.4705774             -12.8051
         8        2.0000           -0.4607474             -12.5376
         9        2.0000           -0.4457797             -12.1303
        10        2.0000           -0.4076475             -11.0927 (HOMO)
        11                          0.0494654               1.3460 (LUMO)
        12                          0.1251441               3.4053
        13                          0.1279665               3.4821
        14                          0.1545668               4.2060
        15                          0.1819431               4.9509
       ...                                ...                  ...
        18                          0.2849638               7.7543
      -------------------------------------------------------------
                  HL-Gap            0.4571129 Eh           12.4387 eV
             Fermi-level           -0.1790910 Eh           -4.8733 eV

 SCC (total)                   0 d,  0 h,  0 min,  0.154 sec
 SCC setup                      ...        0 min,  0.000 sec (  0.025%)
 Dispersion                     ...        0 min,  0.000 sec (  0.021%)
 classical contributions        ...        0 min,  0.000 sec (  0.008%)
 integral evaluation            ...        0 min,  0.000 sec (  0.074%)
 iterations                     ...        0 min,  0.079 sec ( 51.447%)
 molecular gradient             ...        0 min,  0.074 sec ( 48.379%)
 printout                       ...        0 min,  0.000 sec (  0.036%)

         :::::::::::::::::::::::::::::::::::::::::::::::::::::
         ::                     SUMMARY                     ::
         :::::::::::::::::::::::::::::::::::::::::::::::::::::
         :: total energy             -11.390961257911 Eh    ::
         :: gradient norm              0.000139142096 Eh/a0 ::
         :: HOMO-LUMO gap             12.438676262522 eV    ::
         ::.................................................::
         :: SCC energy               -11.512246073006 Eh    ::
         :: -> isotropic ES            0.025881683188 Eh    ::
         :: -> anisotropic ES          0.002986056668 Eh    ::
         :: -> anisotropic XC          0.002182476173 Eh    ::
         :: -> dispersion             -0.002773662436 Eh    ::
         :: repulsion energy           0.121283648939 Eh    ::
         :: add. restraining           0.000000695800 Eh    ::
         :: total charge              -0.000000000000 e     ::
         :::::::::::::::::::::::::::::::::::::::::::::::::::::

           -------------------------------------------------
          |                Property Printout                |
           -------------------------------------------------

    * Orbital Energies and Occupations

         #    Occupation            Energy/Eh            Energy/eV
      -------------------------------------------------------------
         1        2.0000           -0.6844966             -18.6261
         2        2.0000           -0.6257592             -17.0278
         3        2.0000           -0.5797565             -15.7760
         4        2.0000           -0.5674983             -15.4424
         5        2.0000           -0.5292074             -14.4005
         6        2.0000           -0.5041182             -13.7178
         7        2.0000           -0.4705774             -12.8051
         8        2.0000           -0.4607474             -12.5376
         9        2.0000           -0.4457797             -12.1303
        10        2.0000           -0.4076475             -11.0927 (HOMO)
        11                          0.0494654               1.3460 (LUMO)
        12                          0.1251441               3.4053
        13                          0.1279665               3.4821
        14                          0.1545668               4.2060
        15                          0.1819431               4.9509
        16                          0.2120447               5.7700
        17                          0.2585885               7.0366
        18                          0.2849638               7.7543
      -------------------------------------------------------------
                  HL-Gap            0.4571129 Eh           12.4387 eV
             Fermi-level           -0.1790910 Eh           -4.8733 eV

     #   Z          covCN         q      C6AA      α(0)
     1   8 O        1.655    -0.443    21.710     6.290
     2   6 C        3.672     0.090    19.309     6.298
     3   6 C        3.751    -0.112    22.699     6.795
     4   1 H        0.923     0.021     2.711     2.575
     5   1 H        0.924     0.014     2.825     2.628
     6   1 H        0.925     0.056     2.249     2.345
     7   1 H        0.925     0.038     2.470     2.458
     8   1 H        0.925     0.051     2.309     2.376
     9   1 H        0.805     0.284     0.771     1.379

 Mol. C6AA /au·bohr⁶  :        508.649181
 Mol. C8AA /au·bohr⁸  :      10105.733508
 Mol. α(0) /au        :         33.144372


Wiberg/Mayer (AO) data.
largest (>0.10) Wiberg bond orders for each atom

 ---------------------------------------------------------------------------
     #   Z sym  total        # sym  WBO       # sym  WBO       # sym  WBO
 ---------------------------------------------------------------------------
     1   8 O    1.950 --     2 C    0.992     9 H    0.907
     2   6 C    3.958 --     3 C    1.016     1 O    0.992     5 H    0.977
                             4 H    0.971
     3   6 C    3.994 --     2 C    1.016     8 H    0.987     7 H    0.986
                             6 H    0.986
     4   1 H    1.000 --     2 C    0.971
     5   1 H    1.000 --     2 C    0.977
     6   1 H    0.997 --     3 C    0.986
     7   1 H    0.999 --     3 C    0.986
     8   1 H    0.997 --     3 C    0.987
     9   1 H    0.919 --     1 O    0.907
 ---------------------------------------------------------------------------

Topologies differ in total number of bonds
Writing topology from bond orders to xtbtopo.mol

molecular dipole:
                 x           y           z       tot (Debye)
 q only:        0.113       0.129       0.427
   full:        0.290       0.192       0.608       1.780
molecular quadrupole (traceless):
                xx          xy          yy          xz          yz          zz
 q only:        2.652      -0.314      -0.790       0.380      -0.159      -1.862
  q+dip:        2.960      -0.290      -0.561       1.224      -0.975      -2.398
   full:        3.361      -0.426      -0.884       0.963      -0.580      -2.477

           -------------------------------------------------
          |                Geometry Summary                 |
           -------------------------------------------------

      molecular mass/u    :       46.0685212
   center of mass at/Å    :        0.0026923       0.0514563      -0.0364605
  moments of inertia/u·Å² :        0.1427033E+02   0.5432794E+02   0.6190309E+02
rotational constants/cm⁻¹ :        0.1181306E+01   0.3102940E+00   0.2723230E+00

 * 8 selected distances

     #   Z          #   Z                                           value/Å
     1   8 O        2   6 C                                       1.4155986
     2   6 C        3   6 C                                       1.5228658 (max)
     2   6 C        4   1 H                                       1.1004222
     2   6 C        5   1 H                                       1.0963645
     3   6 C        6   1 H                                       1.0861857
     3   6 C        7   1 H                                       1.0865246
     3   6 C        8   1 H                                       1.0866602
     1   8 O        9   1 H                                       0.9607912 (min)

 * 4 distinct bonds (by element types)

   Z      Z             #   av. dist./Å        max./Å        min./Å
   1 H    6 C           5     1.0912314     1.1004222     1.0861857
   6 C    6 C           1     1.5228658     1.5228658     1.5228658
   1 H    8 O           1     0.9607912     0.9607912     0.9607912
   6 C    8 O           1     1.4155986     1.4155986     1.4155986


optimized geometry written to: xtbopt.xyz


           -------------------------------------------------
          | TOTAL ENERGY              -11.390961257911 Eh   |
          | GRADIENT NORM               0.000139142096 Eh/α |
          | HOMO-LUMO GAP              12.438676262522 eV   |
           -------------------------------------------------
########################################################################
[WARNING] Runtime exception occurred
-1- restart_readRestart: Number of electron missmatch in restart file.
########################################################################

------------------------------------------------------------------------
 * finished run on 2025/02/19 at 10:39:39.823     
------------------------------------------------------------------------
 total:
 * wall-time:     0 d,  0 h,  0 min,  2.056 sec
 *  cpu-time:     0 d,  0 h,  0 min, 48.220 sec
 * ratio c/w:    23.448 speedup
 SCF:
 * wall-time:     0 d,  0 h,  0 min,  0.334 sec
 *  cpu-time:     0 d,  0 h,  0 min,  7.869 sec
 * ratio c/w:    23.558 speedup
 ANC optimizer:
 * wall-time:     0 d,  0 h,  0 min,  1.633 sec
 *  cpu-time:     0 d,  0 h,  0 min, 38.324 sec
 * ratio c/w:    23.475 speedup

