9
 energy: -11.390407375255 gnorm: 0.000994191950 xtb: 6.5.0 (97a52f5)
O            1.03961933190777       -0.51936607928641       -0.34193450447007
C            0.25250226443714        0.35993391153638        0.44364458860492
C           -1.22977298724347        0.03832628621941        0.27979937478406
H            0.43222751870667        1.40390073932583        0.16694569399887
H            0.54440862520182        0.22759615561302        1.49334059700092
H           -1.53165625934715        0.17400655874465       -0.75600732525378
H           -1.82514069873035        0.68966332327390        0.91380479743840
H           -1.41166415714895       -0.99593389668319        0.55779236876907
H            1.57120836221651       -0.02053698874359       -0.96586360087240
