9
 energy: -11.393385970975 gnorm: 0.000778502375 xtb: 6.5.0 (97a52f5)
O            1.19765075884126        0.03874826805421       -0.52589060761906
C            0.27252659883538        0.60823221406505        0.37539661269633
C           -1.10742873662457       -0.03057855448186        0.28833332229368
H            0.20500798878153        1.66730404167026        0.11069842704366
H            0.65827601490717        0.52430394116014        1.40219439981889
H           -1.49268722304539        0.04187935836546       -0.72681426802100
H           -1.79580835890979        0.47543448203225        0.95959193199932
H           -1.06034390295430       -1.08200928666069        0.57058605980487
H            0.96453985016870       -0.88572646420482       -0.66257487801669
