9
 energy: -11.389527886563 gnorm: 0.025995805075 xtb: 6.5.0 (97a52f5)
O            1.02973603000000       -0.66390580000000        0.32186345000000
C            0.18955347000000        0.47488029000000        0.09300261000000
C           -1.24803604000000        0.02952125000000        0.29041588000000
H            0.33109129000000        0.85877632000000       -0.92905331000000
H            0.43710908000000        1.29092340000000        0.78939303000000
H           -1.86346911000000        0.86189861000000        0.64270091000000
H           -1.31560305000000       -0.76917861000000        1.03501483000000
H           -1.67093253000000       -0.34156887000000       -0.64729634000000
H            1.95228385000000       -0.38375859000000        0.19547994000000
9
 energy: -11.390290776076 gnorm: 0.007899723646 xtb: 6.5.0 (97a52f5)
O            1.02689395668102       -0.65316176822749        0.30917521078686
C            0.18589440300525        0.47314325904070        0.09604577546117
C           -1.25930826727754        0.03668641993864        0.28340850416164
H            0.34120448153859        0.85512853177864       -0.92275594366277
H            0.44642462865736        1.26805125180239        0.80993494824944
H           -1.87549929046801        0.86581105655608        0.62806329927279
H           -1.29150168462455       -0.74887823164136        1.03614501438361
H           -1.67718989075651       -0.36008936182267       -0.64002091659281
H            1.94481465324440       -0.37910315742493        0.19152510794006
9
 energy: -11.390365463501 gnorm: 0.003031245357 xtb: 6.5.0 (97a52f5)
O            1.01901559771385       -0.64979128662192        0.30501670696741
C            0.18612588597687        0.47713489068080        0.09522257891767
C           -1.25975015001037        0.03680737198220        0.28159711499651
H            0.34391194436224        0.85979189396590       -0.92290934017538
H            0.44072514273258        1.26621133924357        0.81661191466513
H           -1.87292348277614        0.86513837727675        0.62476880847946
H           -1.28193459129057       -0.74263596506556        1.03952293603620
H           -1.67074918507887       -0.36808580224081       -0.63823136390411
H            1.93731182837042       -0.38698281922094        0.18992164401710
9
 energy: -11.390371626840 gnorm: 0.002672570716 xtb: 6.5.0 (97a52f5)
O            1.01815233655718       -0.64907884264891        0.30446264179528
C            0.18704117065043        0.47807628383976        0.09579030776916
C           -1.26009559247151        0.03687436482676        0.28122592129016
H            0.34359788953465        0.86151069428946       -0.92216079390634
H            0.43964041890832        1.26784805426631        0.81686550081883
H           -1.87385213717244        0.86425230300833        0.62451658938420
H           -1.28172792636742       -0.74130069703734        1.04029862717205
H           -1.66856764244421       -0.36982838339562       -0.63819404063443
H            1.93754447280499       -0.39076577714874        0.18871624631108
9
 energy: -11.390372339203 gnorm: 0.002296233126 xtb: 6.5.0 (97a52f5)
O            1.01796282204143       -0.64871413320999        0.30430353967315
C            0.18753958445845        0.47849985446056        0.09603621744811
C           -1.26024349776312        0.03675921755182        0.28108453614997
H            0.34322614716136        0.86212714109542       -0.92210945455361
H            0.43940396082903        1.26884558126048        0.81647317409258
H           -1.87425514852166        0.86386205131451        0.62487705453352
H           -1.28218139984516       -0.74129703970398        1.04053734382674
H           -1.66791106980677       -0.37010734591576       -0.63834661061627
H            1.93819159144643       -0.39238732685305        0.18866519944581
9
 energy: -11.390372721094 gnorm: 0.000122671666 xtb: 6.5.0 (97a52f5)
O            1.01806362938281       -0.64868126240934        0.30462850942346
C            0.18744821892807        0.47828530250374        0.09587485036127
C           -1.26014791527669        0.03667407523642        0.28123295494927
H            0.34306757886953        0.86192770996944       -0.92232897588888
H            0.43951796013622        1.26874609681880        0.81629845607294
H           -1.87400575461263        0.86402105827378        0.62500895158873
H           -1.28232375337203       -0.74174587937997        1.04037749013825
H           -1.66813500714871       -0.36964597162900       -0.63843177810015
H            1.93824803309343       -0.39199312938387        0.18886054145509
