      -----------------------------------------------------------      
     |                   =====================                   |     
     |                           x T B                           |     
     |                   =====================                   |     
     |                         S. Grimme                         |     
     |          Mulliken Center for Theoretical Chemistry        |     
     |                    University of Bonn                     |     
      -----------------------------------------------------------      

   * xtb version 6.5.0 (97a52f5) compiled by 'conda@d2599ee0d4f4' on 2022-05-15

   xtb is free software: you can redistribute it and/or modify it under
   the terms of the GNU Lesser General Public License as published by
   the Free Software Foundation, either version 3 of the License, or
   (at your option) any later version.
   
   xtb is distributed in the hope that it will be useful,
   but WITHOUT ANY WARRANTY; without even the implied warranty of
   MERCHANTABILITY or FITNESS FOR A PARTICULAR PURPOSE.  See the
   GNU Lesser General Public License for more details.
   
   Cite this work as:
   * C. Bannwarth, E. Caldeweyher, S. Ehlert, A. Hansen, P. Pracht,
     J. Seibert, S. Spicher, S. Grimme, WIREs Comput. Mol. Sci., 2020, 11,
     e01493. DOI: 10.1002/wcms.1493
   
   for GFN2-xTB:
   * C. Bannwarth, S. Ehlert and S. Grimme., J. Chem. Theory Comput., 2019,
     15, 1652-1671. DOI: 10.1021/acs.jctc.8b01176
   for GFN1-xTB:
   * S. Grimme, C. Bannwarth, P. Shushkov, J. Chem. Theory Comput., 2017,
     13, 1989-2009. DOI: 10.1021/acs.jctc.7b00118
   for GFN0-xTB:
   * P. Pracht, E. Caldeweyher, S. Ehlert, S. Grimme, ChemRxiv, 2019, preprint.
     DOI: 10.26434/chemrxiv.8326202.v1
   for GFN-FF:
   * S. Spicher and S. Grimme, Angew. Chem. Int. Ed., 2020, 59, 15665-15673.
     DOI: 10.1002/anie.202004239
   
   for ALPB and GBSA implicit solvation:
   * S. Ehlert, M. Stahn, S. Spicher, S. Grimme, J. Chem. Theory Comput.,
     2021, 17, 4250-4261. DOI: 10.1021/acs.jctc.1c00471
   
   for DFT-D4:
   * E. Caldeweyher, C. Bannwarth and S. Grimme, J. Chem. Phys., 2017,
     147, 034112. DOI: 10.1063/1.4993215
   * E. Caldeweyher, S. Ehlert, A. Hansen, H. Neugebauer, S. Spicher,
     C. Bannwarth and S. Grimme, J. Chem. Phys., 2019, 150, 154122.
     DOI: 10.1063/1.5090222
   * E. Caldeweyher, J.-M. Mewes, S. Ehlert and S. Grimme, Phys. Chem. Chem. Phys.
     2020, 22, 8499-8512. DOI: 10.1039/D0CP00502A
   
   for sTDA-xTB:
   * S. Grimme and C. Bannwarth, J. Chem. Phys., 2016, 145, 054103.
     DOI: 10.1063/1.4959605
   
   in the mass-spec context:
   * V. Asgeirsson, C. Bauer and S. Grimme, Chem. Sci., 2017, 8, 4879.
     DOI: 10.1039/c7sc00601b
   * J. Koopman and S. Grimme, ACS Omega 2019, 4, 12, 15120-15133.
     DOI: 10.1021/acsomega.9b02011
   
   for metadynamics refer to:
   * S. Grimme, J. Chem. Theory Comput., 2019, 155, 2847-2862
     DOI: 10.1021/acs.jctc.9b00143
   
   for SPH calculations refer to:
   * S. Spicher and S. Grimme, J. Chem. Theory Comput., 2021, 17, 1701-1714
     DOI: 10.1021/acs.jctc.0c01306
   
   with help from (in alphabetical order)
   P. Atkinson, C. Bannwarth, F. Bohle, G. Brandenburg, E. Caldeweyher
   M. Checinski, S. Dohm, S. Ehlert, S. Ehrlich, I. Gerasimov, C. Hölzer
   A. Katbashev, J. Koopman, C. Lavigne, S. Lehtola, F. März, M. Müller,
   F. Musil, H. Neugebauer, J. Pisarek, C. Plett, P. Pracht, F. Pultar,
   J. Seibert, P. Shushkov, S. Spicher, M. Stahn, M. Steiner, T. Strunk,
   J. Stückrath, T. Rose, and J. Unsleber
   
 * started run on 2023/11/18 at 08:33:22.502     

           -------------------------------------------------
          |                Calculation Setup                |
           -------------------------------------------------

          program call               : /home/liuchw/anaconda3/envs/xtbenv/bin/xtb --gfn 2 --chrg 0 --uhf 0 1_16_Index_0-opt-2-3-081_preQMOPTprefit_xyzformat.xyz --opt --input xtb-opt-2-3-081_constr.txt
          hostname                   : node165.bme.utexas.edu
          coordinate file            : 1_16_Index_0-opt-2-3-081_preQMOPTprefit_xyzformat.xyz
          omp threads                :                    64

   ID    Z sym.   atoms
    1    1 H      1, 15-17, 19-24
    2    7 N      2, 8
    3    6 C      3-7, 9-14
    4    8 O      18
constraining angle 1 2 3 4 to   80.9915315°, actual value:   80.9915315°
constraining angle 5 2 3 4 to  262.0135536°, actual value:  -97.9864464°
constraining angle 1 2 5 24 to  183.9668113°, actual value: -176.0331887°
constraining angle 3 2 5 24 to    2.9939167°, actual value:    2.9939167°
constraining angle 2 5 7 9 to  182.0023340°, actual value: -177.9976660°

           -------------------------------------------------
          |                 G F N 2 - x T B                 |
           -------------------------------------------------

        Reference                      10.1021/acs.jctc.8b01176
      * Hamiltonian:
        H0-scaling (s, p, d)           1.850000    2.230000    2.230000
        zeta-weighting                 0.500000
      * Dispersion:
        s8                             2.700000
        a1                             0.520000
        a2                             5.000000
        s9                             5.000000
      * Repulsion:
        kExp                           1.500000    1.000000
        rExp                           1.000000
      * Coulomb:
        alpha                          2.000000
        third order                    shell-resolved
        anisotropic                    true
        a3                             3.000000
        a5                             4.000000
        cn-shift                       1.200000
        cn-exp                         4.000000
        max-rad                        5.000000

q/qsh data taken from xtbrestart
CAMM data taken from xtbrestart

          ...................................................
          :                      SETUP                      :
          :.................................................:
          :  # basis functions                  66          :
          :  # atomic orbitals                  66          :
          :  # shells                           38          :
          :  # electrons                        70          :
          :  max. iterations                   250          :
          :  Hamiltonian                  GFN2-xTB          :
          :  restarted?                       true          :
          :  GBSA solvation                  false          :
          :  PC potential                    false          :
          :  electronic temp.          300.0000000     K    :
          :  accuracy                    1.0000000          :
          :  -> integral cutoff          0.2500000E+02      :
          :  -> integral neglect         0.1000000E-07      :
          :  -> SCF convergence          0.1000000E-05 Eh   :
          :  -> wf. convergence          0.1000000E-03 e    :
          :  Broyden damping             0.4000000          :
          ...................................................

 iter      E             dE          RMSdq      gap      omega  full diag
   1    -39.1040591 -0.391041E+02  0.160E+00    2.30       0.0  T
   2    -39.1045619 -0.502826E-03  0.942E-01    2.33       1.0  T
   3    -39.1029369  0.162494E-02  0.284E-01    2.29       1.0  T
   4    -39.1047942 -0.185723E-02  0.440E-02    2.32       1.0  T
   5    -39.1048245 -0.302850E-04  0.208E-02    2.31       1.0  T
   6    -39.1048289 -0.440312E-05  0.127E-02    2.32       1.6  T
   7    -39.1048307 -0.185003E-05  0.468E-03    2.32       4.4  T
   8    -39.1048308 -0.108749E-06  0.163E-03    2.32      12.5  T
   9    -39.1048308 -0.270345E-07  0.712E-04    2.32      28.7  T
  10    -39.1048308 -0.354596E-08  0.320E-04    2.32      63.8  T

   *** convergence criteria satisfied after 10 iterations ***

         #    Occupation            Energy/Eh            Energy/eV
      -------------------------------------------------------------
         1        2.0000           -0.6704012             -18.2425
       ...           ...                  ...                  ...
        29        2.0000           -0.4441963             -12.0872
        30        2.0000           -0.4358130             -11.8591
        31        2.0000           -0.4153554             -11.3024
        32        2.0000           -0.4115518             -11.1989
        33        2.0000           -0.3927351             -10.6869
        34        2.0000           -0.3748825             -10.2011
        35        2.0000           -0.3449521              -9.3866 (HOMO)
        36                         -0.2597956              -7.0694 (LUMO)
        37                         -0.2433729              -6.6225
        38                         -0.2403398              -6.5400
        39                         -0.1709529              -4.6519
        40                         -0.1210222              -3.2932
       ...                                ...                  ...
        66                          0.6815397              18.5456
      -------------------------------------------------------------
                  HL-Gap            0.0851565 Eh            2.3172 eV
             Fermi-level           -0.3023739 Eh           -8.2280 eV

 SCC (total)                   0 d,  0 h,  0 min,  1.764 sec
 SCC setup                      ...        0 min,  0.006 sec (  0.337%)
 Dispersion                     ...        0 min,  0.036 sec (  2.037%)
 classical contributions        ...        0 min,  0.019 sec (  1.062%)
 integral evaluation            ...        0 min,  0.035 sec (  1.985%)
 iterations                     ...        0 min,  1.462 sec ( 82.888%)
 molecular gradient             ...        0 min,  0.191 sec ( 10.831%)
 printout                       ...        0 min,  0.015 sec (  0.844%)

         :::::::::::::::::::::::::::::::::::::::::::::::::::::
         ::                     SUMMARY                     ::
         :::::::::::::::::::::::::::::::::::::::::::::::::::::
         :: total energy             -38.543542605179 Eh    ::
         :: gradient norm              0.072270899557 Eh/a0 ::
         :: HOMO-LUMO gap              2.317225393796 eV    ::
         ::.................................................::
         :: SCC energy               -39.104830843008 Eh    ::
         :: -> isotropic ES            0.048036436851 Eh    ::
         :: -> anisotropic ES          0.001308366058 Eh    ::
         :: -> anisotropic XC          0.020669965475 Eh    ::
         :: -> dispersion             -0.021703959408 Eh    ::
         :: repulsion energy           0.561417645836 Eh    ::
         :: add. restraining           0.000000000000 Eh    ::
         :: total charge               0.000000000000 e     ::
         :::::::::::::::::::::::::::::::::::::::::::::::::::::

      ----------------------------------------------------------- 
     |                   =====================                   |
     |                        A N C O P T                        |
     |                   =====================                   |
     |               Approximate Normal Coordinate               |
     |                Rational Function Optimizer                |
      ----------------------------------------------------------- 

          ...................................................
          :                      SETUP                      :
          :.................................................:
          :   optimization level            normal          :
          :   max. optcycles                   200          :
          :   ANC micro-cycles                  20          :
          :   degrees of freedom                66          :
          :.................................................:
          :   RF solver                   davidson          :
          :   write xtbopt.log                true          :
          :   linear?                        false          :
          :   energy convergence         0.5000000E-05 Eh   :
          :   grad. convergence          0.1000000E-02 Eh/α :
          :   maximium RF displ.         1.0000000          :
          :   Hlow (freq-cutoff)         0.1000000E-01      :
          :   Hmax (freq-cutoff)         5.0000000          :
          :   S6 in model hess.         20.0000000          :
          ...................................................

generating ANC from model Hessian ...
Using Lindh-Hessian (1995)
 Shifting diagonal of input Hessian by    8.7387305209442444E-003
 Lowest  eigenvalues of input Hessian
    0.000000    0.000000    0.000000    0.000000    0.000000    0.000000
    0.010000    0.010506    0.013122    0.016881    0.017445    0.021999
    0.023827    0.029436    0.029483    0.033515    0.038325    0.042197
 Highest eigenvalues
    2.087392    2.283258    2.977120    5.653460   10.999308   20.530500


........................................................................
.............................. CYCLE    1 ..............................
........................................................................
   1    -39.1048308 -0.391048E+02  0.129E-04    2.32       0.0  T
   2    -39.1048308 -0.352571E-10  0.793E-05    2.32     257.4  T
   3    -39.1048308 -0.910205E-11  0.565E-05    2.32     361.2  T
     SCC iter.                  ...        0 min,  0.382 sec
     gradient                   ...        0 min,  0.166 sec
 * total energy  :   -38.5435426 Eh     change       -0.8358327E-09 Eh
   gradient norm :     0.0722721 Eh/α   predicted     0.0000000E+00 (-100.00%)
   displ. norm   :     0.2737571 α      lambda       -0.1104173E-01
   maximum displ.:     0.1322162 α      in ANC's #7, #33, #36, ...

........................................................................
.............................. CYCLE    2 ..............................
........................................................................
   1    -39.1625735 -0.391626E+02  0.210E-01    2.46       0.0  T
   2    -39.1626862 -0.112645E-03  0.125E-01    2.43       1.0  T
   3    -39.1626749  0.112746E-04  0.685E-02    2.45       1.0  T
   4    -39.1627138 -0.389127E-04  0.152E-02    2.44       1.3  T
   5    -39.1627190 -0.521672E-05  0.478E-03    2.44       4.3  T
   6    -39.1627192 -0.153114E-06  0.278E-03    2.44       7.3  T
   7    -39.1627193 -0.888721E-07  0.137E-03    2.44      14.9  T
   8    -39.1627193 -0.215127E-07  0.463E-04    2.44      44.1  T
   9    -39.1627193 -0.568434E-09  0.149E-04    2.44     136.6  T
     SCC iter.                  ...        0 min,  1.125 sec
     gradient                   ...        0 min,  0.178 sec
 * total energy  :   -38.5505641 Eh     change       -0.7021490E-02 Eh
   gradient norm :     0.0195140 Eh/α   predicted    -0.5937163E-02 ( -15.44%)
   displ. norm   :     0.1998795 α      lambda       -0.1492980E-02
   maximum displ.:     0.1336182 α      in ANC's #7, #10, #5, ...

........................................................................
.............................. CYCLE    3 ..............................
........................................................................
   1    -39.1826858 -0.391827E+02  0.900E-02    2.50       0.0  T
   2    -39.1826987 -0.128878E-04  0.556E-02    2.49       1.0  T
   3    -39.1826944  0.424414E-05  0.376E-02    2.50       1.0  T
   4    -39.1827129 -0.184778E-04  0.877E-03    2.49       2.3  T
   5    -39.1827145 -0.155295E-05  0.240E-03    2.49       8.5  T
   6    -39.1827145 -0.510042E-07  0.123E-03    2.49      16.6  T
   7    -39.1827145 -0.102225E-07  0.399E-04    2.49      51.2  T
   8    -39.1827145 -0.145411E-08  0.135E-04    2.49     151.5  T
     SCC iter.                  ...        0 min,  1.216 sec
     gradient                   ...        0 min,  0.229 sec
 * total energy  :   -38.5513952 Eh     change       -0.8311320E-03 Eh
   gradient norm :     0.0271121 Eh/α   predicted    -0.7766839E-03 (  -6.55%)
   displ. norm   :     0.1218709 α      lambda       -0.3805741E-03
   maximum displ.:     0.0818734 α      in ANC's #7, #5, #6, ...

........................................................................
.............................. CYCLE    4 ..............................
........................................................................
   1    -39.1859328 -0.391859E+02  0.494E-02    2.50       0.0  T
   2    -39.1859339 -0.110061E-05  0.314E-02    2.50       1.0  T
   3    -39.1859320  0.185368E-05  0.222E-02    2.50       1.0  T
   4    -39.1859397 -0.763712E-05  0.294E-03    2.50       6.9  T
   5    -39.1859398 -0.153973E-06  0.109E-03    2.50      18.7  T
   6    -39.1859398 -0.103305E-07  0.499E-04    2.50      40.9  T
   7    -39.1859398 -0.631211E-09  0.906E-05    2.50     225.3  T
     SCC iter.                  ...        0 min,  1.068 sec
     gradient                   ...        0 min,  0.182 sec
 * total energy  :   -38.5513791 Eh     change        0.1609337E-04 Eh
   gradient norm :     0.0862622 Eh/α   predicted    -0.1931391E-03 (*******%)
   displ. norm   :     0.0693956 α      lambda       -0.4718413E-03
   maximum displ.:     0.0361599 α      in ANC's #7, #5, #3, ...

........................................................................
.............................. CYCLE    5 ..............................
........................................................................
   1    -39.1835926 -0.391836E+02  0.315E-02    2.49       0.0  T
   2    -39.1835935 -0.858250E-06  0.190E-02    2.49       1.1  T
   3    -39.1835919  0.162788E-05  0.140E-02    2.50       1.5  T
   4    -39.1835950 -0.315675E-05  0.224E-03    2.49       9.1  T
   5    -39.1835951 -0.871111E-07  0.629E-04    2.49      32.5  T
   6    -39.1835951 -0.285998E-08  0.319E-04    2.49      64.1  T
     SCC iter.                  ...        0 min,  0.931 sec
     gradient                   ...        0 min,  0.166 sec
 * total energy  :   -38.5516252 Eh     change       -0.2460901E-03 Eh
   gradient norm :     0.0094849 Eh/α   predicted    -0.2370627E-03 (  -3.67%)
   displ. norm   :     0.0338200 α      lambda       -0.5100428E-04
   maximum displ.:     0.0161925 α      in ANC's #3, #5, #2, ...

........................................................................
.............................. CYCLE    6 ..............................
........................................................................
   1    -39.1816847 -0.391817E+02  0.175E-02    2.49       0.0  T
   2    -39.1816850 -0.284260E-06  0.998E-03    2.49       2.0  T
   3    -39.1816848  0.149948E-06  0.386E-03    2.49       5.3  T
   4    -39.1816850 -0.182721E-06  0.110E-03    2.49      18.6  T
   5    -39.1816850 -0.246739E-07  0.318E-04    2.49      64.1  T
   6    -39.1816850 -0.805358E-09  0.155E-04    2.49     131.5  T
     SCC iter.                  ...        0 min,  0.818 sec
     gradient                   ...        0 min,  0.160 sec
 * total energy  :   -38.5516481 Eh     change       -0.2282625E-04 Eh
   gradient norm :     0.0120791 Eh/α   predicted    -0.2553892E-04 (  11.88%)
   displ. norm   :     0.0401148 α      lambda       -0.3023149E-04
   maximum displ.:     0.0203168 α      in ANC's #5, #3, #2, ...

........................................................................
.............................. CYCLE    7 ..............................
........................................................................
   1    -39.1806453 -0.391806E+02  0.191E-02    2.48       0.0  T
   2    -39.1806455 -0.217877E-06  0.108E-02    2.48       1.9  T
   3    -39.1806449  0.617631E-06  0.651E-03    2.48       3.1  T
   4    -39.1806456 -0.731393E-06  0.115E-03    2.48      17.8  T
   5    -39.1806456 -0.294066E-07  0.263E-04    2.48      77.7  T
   6    -39.1806456 -0.307153E-09  0.141E-04    2.48     145.0  T
     SCC iter.                  ...        0 min,  0.909 sec
     gradient                   ...        0 min,  0.177 sec
 * total energy  :   -38.5516651 Eh     change       -0.1708289E-04 Eh
   gradient norm :     0.0027013 Eh/α   predicted    -0.1514150E-04 ( -11.36%)
   displ. norm   :     0.0273491 α      lambda       -0.7787202E-05
   maximum displ.:     0.0138513 α      in ANC's #5, #2, #3, ...

........................................................................
.............................. CYCLE    8 ..............................
........................................................................
   1    -39.1811340 -0.391811E+02  0.128E-02    2.49       0.0  T
   2    -39.1811340 -0.408063E-07  0.744E-03    2.49       2.7  T
   3    -39.1811336  0.445127E-06  0.523E-03    2.49       3.9  T
   4    -39.1811341 -0.555122E-06  0.467E-04    2.49      43.7  T
   5    -39.1811341 -0.365338E-08  0.189E-04    2.49     108.0  T
     SCC iter.                  ...        0 min,  0.742 sec
     gradient                   ...        0 min,  0.175 sec
 * total energy  :   -38.5516704 Eh     change       -0.5277511E-05 Eh
   gradient norm :     0.0011526 Eh/α   predicted    -0.3898046E-05 ( -26.14%)
   displ. norm   :     0.0347638 α      lambda       -0.3770049E-05
   maximum displ.:     0.0201243 α      in ANC's #2, #1, #5, ...

........................................................................
.............................. CYCLE    9 ..............................
........................................................................
   1    -39.1816414 -0.391816E+02  0.174E-02    2.49       0.0  T
   2    -39.1816414 -0.457105E-07  0.101E-02    2.49       2.0  T
   3    -39.1816409  0.533611E-06  0.498E-03    2.49       4.1  T
   4    -39.1816415 -0.602536E-06  0.480E-04    2.49      42.5  T
   5    -39.1816415 -0.399146E-08  0.213E-04    2.49      95.6  T
     SCC iter.                  ...        0 min,  0.694 sec
     gradient                   ...        0 min,  0.180 sec
 * total energy  :   -38.5516731 Eh     change       -0.2660460E-05 Eh
   gradient norm :     0.0012371 Eh/α   predicted    -0.1889581E-05 ( -28.98%)
   displ. norm   :     0.0091328 α      lambda       -0.8557183E-06
   maximum displ.:     0.0060930 α      in ANC's #1, #2, #4, ...

........................................................................
.............................. CYCLE   10 ..............................
........................................................................
   1    -39.1814777 -0.391815E+02  0.402E-03    2.49       0.0  T
   2    -39.1814777 -0.551762E-08  0.236E-03    2.49       8.7  T
   3    -39.1814777  0.280979E-07  0.128E-03    2.49      16.0  T
   4    -39.1814777 -0.326797E-07  0.193E-04    2.49     106.0  T
   5    -39.1814777 -0.840430E-09  0.662E-05    2.49     308.3  T
     SCC iter.                  ...        0 min,  0.783 sec
     gradient                   ...        0 min,  0.177 sec
 * total energy  :   -38.5516740 Eh     change       -0.9271753E-06 Eh
   gradient norm :     0.0004338 Eh/α   predicted    -0.4319226E-06 ( -53.42%)
   displ. norm   :     0.0151959 α      lambda       -0.7791452E-06
   maximum displ.:     0.0100348 α      in ANC's #1, #2, #4, ...

   *** GEOMETRY OPTIMIZATION CONVERGED AFTER 10 ITERATIONS ***

------------------------------------------------------------------------
 total energy gain   :        -0.0081314 Eh       -5.1025 kcal/mol
 total RMSD          :         0.1354864 a0        0.0717 Å
 total power (kW/mol):        -2.1348972 (step)   -1.7359 (real)
------------------------------------------------------------------------

 ANCopt (total)                0 d,  0 h,  0 min, 12.299 sec
 optimizer setup                ...        0 min,  0.000 sec (  0.002%)
 model hessian                  ...        0 min,  0.014 sec (  0.115%)
 ANC generation                 ...        0 min,  0.105 sec (  0.854%)
 coordinate transformation      ...        0 min,  0.000 sec (  0.003%)
 single point calculation       ...        0 min, 11.789 sec ( 95.857%)
 optimization log               ...        0 min,  0.002 sec (  0.017%)
 hessian update                 ...        0 min,  0.375 sec (  3.047%)
 rational function              ...        0 min,  0.012 sec (  0.094%)

================
 final structure:
================
24
 xtb: 6.5.0 (97a52f5)
H           -0.10670287990968        0.07707160395728       -1.26775743725304
N            0.14416001231370       -0.18301092302537       -0.30654622505171
C            1.27610646968155       -0.98245931112743       -0.04121054457675
C            2.54202773735689       -0.40949024206277       -0.00509248440097
C           -0.67497347827971        0.31609453258329        0.62229810075014
C            1.12288986131310       -2.33740949457685        0.22776830984145
C           -1.75912404011978        1.06892162935419        0.27158510017871
N           -3.19642879832180        2.14686088700832       -1.08348870840403
C           -2.75019711003936        1.73697669925379        1.07102295747642
C           -2.07854001618618        1.36177462633411       -1.12007296310650
C           -3.59148517312352        2.36611282069080        0.22773551245095
C            2.23198533200831       -3.11605754283253        0.50640323900665
C            3.64701460818354       -1.19435236698391        0.27157902573809
C            3.49423515978593       -2.54702665811726        0.52671763688444
H            0.13390222661219       -2.77083233322016        0.21133223735915
H            2.65091000719074        0.64627962291107       -0.20393005916891
H           -3.66079120415487        2.51296214185712       -1.89738979691508
O           -1.48123223062378        1.00225755466299       -2.13698524644339
H            2.10981154593122       -4.16963986762575        0.70910940492000
H            4.62963634297459       -0.74719643198174        0.29490903987216
H           -2.79856823815862        1.72265753349805        2.14167149884218
H           -4.45571952855602        2.96628607405371        0.43771606862467
H            4.35824525386542       -3.15667604644524        0.74424782398543
H           -0.42140984974382        0.12887446183429        1.65965950939003

 Bond Distances (Angstroems)
 ---------------------------
H1-N2=1.0269         N2-H1=1.0269         N2-C3=1.4110         N2-C5=1.3352         C3-N2=1.4110         C3-C4=1.3900         
C3-C6=1.3899         C4-C3=1.3900         C4-C13=1.3833        C4-H16=1.0798        C5-N2=1.3352         C5-C7=1.3657         
C5-H24=1.0842        C6-C3=1.3899         C6-C12=1.3835        C6-H15=1.0799        C7-C5=1.3657         C7-C9=1.4379         
C7-C10=1.4576        N8-C10=1.3665        N8-C11=1.3869        N8-H17=1.0060        C9-C7=1.4379         C9-C11=1.3471        
C9-H21=1.0718        C10-C7=1.4576        C10-N8=1.3665        C10-O18=1.2329       C11-N8=1.3869        C11-C9=1.3471        
C11-H22=1.0729       C12-C6=1.3835        C12-C14=1.3847       C12-H19=1.0798       C13-C4=1.3833        C13-C14=1.3850       
C13-H20=1.0798       C14-C12=1.3847       C14-C13=1.3850       C14-H23=1.0796       H15-C6=1.0799        H16-C4=1.0798        
H17-N8=1.0060        O18-C10=1.2329       H19-C12=1.0798       H20-C13=1.0798       H21-C9=1.0718        H22-C11=1.0729       
H23-C14=1.0796       H24-C5=1.0842        
 C  H  Rav=1.0785 sigma=0.0038  Rmin=1.0718  Rmax=1.0842     8
 C  C  Rav=1.3925 sigma=0.0306  Rmin=1.3471  Rmax=1.4576    10
 N  H  Rav=1.0165 sigma=0.0104  Rmin=1.0060  Rmax=1.0269     2
 N  C  Rav=1.3749 sigma=0.0278  Rmin=1.3352  Rmax=1.4110     4
 O  C  Rav=1.2329 sigma=0.0000  Rmin=1.2329  Rmax=1.2329     1

 selected bond angles (degree)
 --------------------
C3-N2-H1=121.03                C5-N2-H1=113.99                C5-N2-C3=124.97                C4-C3-N2=120.13                
C6-C3-N2=120.02                C6-C3-C4=119.82                C13-C4-C3=119.92               H16-C4-C3=119.34               
H16-C4-C13=120.73              C7-C5-N2=120.96                H24-C5-N2=117.23               H24-C5-C7=121.77               
C12-C6-C3=119.95               H15-C6-C3=119.29               H15-C6-C12=120.75              C9-C7-C5=131.34                
C10-C7-C5=122.00               C10-C7-C9=106.64               C11-N8-C10=110.44              H17-N8-C10=124.40              
H17-N8-C11=125.16              C11-C9-C7=107.42               H21-C9-C7=125.47               H21-C9-C11=127.11              
N8-C10-C7=105.61               O18-C10-C7=128.52              O18-C10-N8=125.87              

 selected dihedral angles (degree)
 ---------------------------------
C4-C3-N2-H1= 80.97            C4-C3-N2-C5=261.98            C6-C3-N2-H1=258.87            C6-C3-N2-C5= 79.89            
C13-C4-C3-N2=179.21           C13-C4-C3-C6=  1.30           H16-C4-C3-N2=358.62           H16-C4-C3-C6=180.71           
C7-C5-N2-H1=  1.74            C7-C5-N2-C3=180.79            H24-C5-N2-H1=183.94           H24-C5-N2-C3=  2.99           
C12-C6-C3-N2=180.92           C12-C6-C3-C4=358.83           H15-C6-C3-N2=  1.22           H15-C6-C3-C4=179.13           
C9-C7-C5-N2=181.99            C9-C7-C5-H24=359.69           C10-C7-C5-N2=  0.16           C10-C7-C5-H24=177.86          
C11-C9-C7-C5=178.73           C11-C9-C7-C10=  0.34          H21-C9-C7-C5=358.47           H21-C9-C7-C10=180.08          
N8-C10-C7-C5=181.11           N8-C10-C7-C9=359.68           O18-C10-C7-C5=  0.56          O18-C10-C7-C9=179.13          
C7-C10-N8-C11=  0.19          C7-C10-N8-H17=180.03          O18-C10-N8-C11=180.72         O18-C10-N8-H17=  0.56         
           -------------------------------------------------
          |                Final Singlepoint                |
           -------------------------------------------------

          ...................................................
          :                      SETUP                      :
          :.................................................:
          :  # basis functions                  66          :
          :  # atomic orbitals                  66          :
          :  # shells                           38          :
          :  # electrons                        70          :
          :  max. iterations                   250          :
          :  Hamiltonian                  GFN2-xTB          :
          :  restarted?                      false          :
          :  GBSA solvation                  false          :
          :  PC potential                    false          :
          :  electronic temp.          300.0000000     K    :
          :  accuracy                    1.0000000          :
          :  -> integral cutoff          0.2500000E+02      :
          :  -> integral neglect         0.1000000E-07      :
          :  -> SCF convergence          0.1000000E-05 Eh   :
          :  -> wf. convergence          0.1000000E-03 e    :
          :  Broyden damping             0.4000000          :
          ...................................................

 iter      E             dE          RMSdq      gap      omega  full diag
   1    -39.1814777 -0.391815E+02  0.298E-05    2.49       0.0  T
   2    -39.1814777 -0.152056E-11  0.179E-05    2.49    1139.7  T
   3    -39.1814777 -0.639488E-13  0.112E-05    2.49    1826.3  T

   *** convergence criteria satisfied after 3 iterations ***

         #    Occupation            Energy/Eh            Energy/eV
      -------------------------------------------------------------
         1        2.0000           -0.6769713             -18.4213
       ...           ...                  ...                  ...
        29        2.0000           -0.4425238             -12.0417
        30        2.0000           -0.4359295             -11.8622
        31        2.0000           -0.4184769             -11.3873
        32        2.0000           -0.4157491             -11.3131
        33        2.0000           -0.3923952             -10.6776
        34        2.0000           -0.3753407             -10.2135
        35        2.0000           -0.3440616              -9.3624 (HOMO)
        36                         -0.2526714              -6.8755 (LUMO)
        37                         -0.2367675              -6.4428
        38                         -0.2364897              -6.4352
        39                         -0.1640575              -4.4642
        40                         -0.1078334              -2.9343
       ...                                ...                  ...
        66                          0.7442982              20.2534
      -------------------------------------------------------------
                  HL-Gap            0.0913902 Eh            2.4869 eV
             Fermi-level           -0.2983665 Eh           -8.1190 eV

 SCC (total)                   0 d,  0 h,  0 min,  0.745 sec
 SCC setup                      ...        0 min,  0.037 sec (  4.994%)
 Dispersion                     ...        0 min,  0.024 sec (  3.223%)
 classical contributions        ...        0 min,  0.011 sec (  1.486%)
 integral evaluation            ...        0 min,  0.040 sec (  5.341%)
 iterations                     ...        0 min,  0.419 sec ( 56.197%)
 molecular gradient             ...        0 min,  0.183 sec ( 24.533%)
 printout                       ...        0 min,  0.031 sec (  4.185%)

         :::::::::::::::::::::::::::::::::::::::::::::::::::::
         ::                     SUMMARY                     ::
         :::::::::::::::::::::::::::::::::::::::::::::::::::::
         :: total energy             -38.551673999164 Eh    ::
         :: gradient norm              0.000433483630 Eh/a0 ::
         :: HOMO-LUMO gap              2.486853690460 eV    ::
         ::.................................................::
         :: SCC energy               -39.181477717401 Eh    ::
         :: -> isotropic ES            0.047019378103 Eh    ::
         :: -> anisotropic ES          0.000522702258 Eh    ::
         :: -> anisotropic XC          0.018600317507 Eh    ::
         :: -> dispersion             -0.022133729596 Eh    ::
         :: repulsion energy           0.629930470440 Eh    ::
         :: add. restraining           0.000001952723 Eh    ::
         :: total charge              -0.000000000000 e     ::
         :::::::::::::::::::::::::::::::::::::::::::::::::::::

           -------------------------------------------------
          |                Property Printout                |
           -------------------------------------------------

    * Orbital Energies and Occupations

         #    Occupation            Energy/Eh            Energy/eV
      -------------------------------------------------------------
         1        2.0000           -0.6769713             -18.4213
       ...           ...                  ...                  ...
        23        2.0000           -0.4843448             -13.1797
        24        2.0000           -0.4753429             -12.9347
        25        2.0000           -0.4734235             -12.8825
        26        2.0000           -0.4644678             -12.6388
        27        2.0000           -0.4579184             -12.4606
        28        2.0000           -0.4494981             -12.2315
        29        2.0000           -0.4425238             -12.0417
        30        2.0000           -0.4359295             -11.8622
        31        2.0000           -0.4184769             -11.3873
        32        2.0000           -0.4157491             -11.3131
        33        2.0000           -0.3923952             -10.6776
        34        2.0000           -0.3753407             -10.2135
        35        2.0000           -0.3440616              -9.3624 (HOMO)
        36                         -0.2526714              -6.8755 (LUMO)
        37                         -0.2367675              -6.4428
        38                         -0.2364897              -6.4352
        39                         -0.1640575              -4.4642
        40                         -0.1078334              -2.9343
        41                         -0.1040006              -2.8300
        42                          0.0121166               0.3297
        43                          0.0387240               1.0537
        44                          0.1133106               3.0833
        45                          0.1158916               3.1536
        46                          0.1359665               3.6998
       ...                                ...                  ...
        66                          0.7442982              20.2534
      -------------------------------------------------------------
                  HL-Gap            0.0913902 Eh            2.4869 eV
             Fermi-level           -0.2983665 Eh           -8.1190 eV

     #   Z          covCN         q      C6AA      α(0)
     1   1 H        0.859     0.228     0.974     1.546
     2   7 N        2.699    -0.129    23.791     7.244
     3   6 C        2.912     0.069    26.455     8.434
     4   6 C        2.922    -0.041    29.015     8.833
     5   6 C        2.834     0.047    26.929     8.504
     6   6 C        2.923    -0.040    28.994     8.830
     7   6 C        3.091    -0.075    29.752     8.940
     8   7 N        2.776    -0.147    24.184     7.304
     9   6 C        2.982    -0.071    29.764     8.949
    10   6 C        2.874     0.255    22.732     7.816
    11   6 C        2.992    -0.000    28.027     8.684
    12   6 C        2.920    -0.027    28.673     8.781
    13   6 C        2.920    -0.027    28.668     8.780
    14   6 C        2.920    -0.030    28.759     8.794
    15   1 H        0.926     0.044     2.395     2.420
    16   1 H        0.926     0.045     2.388     2.417
    17   1 H        0.860     0.167     1.290     1.779
    18   8 O        0.857    -0.494    23.646     6.520
    19   1 H        0.926     0.040     2.445     2.445
    20   1 H        0.926     0.040     2.443     2.444
    21   1 H        0.926     0.030     2.590     2.517
    22   1 H        0.926     0.032     2.554     2.499
    23   1 H        0.926     0.039     2.463     2.454
    24   1 H        0.925     0.044     2.397     2.421

 Mol. C6AA /au·bohr⁶  :       7630.506868
 Mol. C8AA /au·bohr⁸  :     185782.990835
 Mol. α(0) /au        :        139.355567


Wiberg/Mayer (AO) data.
largest (>0.10) Wiberg bond orders for each atom

 ---------------------------------------------------------------------------
     #   Z sym  total        # sym  WBO       # sym  WBO       # sym  WBO
 ---------------------------------------------------------------------------
     1   1 H    0.948 --     2 N    0.865
     2   7 N    3.517 --     5 C    1.329     3 C    1.014     1 H    0.865
                             7 C    0.105
     3   6 C    3.967 --     6 C    1.398     4 C    1.397     2 N    1.014
                            14 C    0.107
     4   6 C    3.989 --    13 C    1.445     3 C    1.397    16 H    0.969
                            12 C    0.111
     5   6 C    3.971 --     7 C    1.480     2 N    1.329    24 H    0.959
     6   6 C    3.989 --    12 C    1.444     3 C    1.398    15 H    0.969
                            13 C    0.111
     7   6 C    3.966 --     5 C    1.480     9 C    1.156    10 C    1.081
                             2 N    0.105
     8   7 N    3.512 --    10 C    1.181    11 C    1.125    17 H    0.943
                            18 O    0.142
     9   6 C    3.978 --    11 C    1.697     7 C    1.156    21 H    0.972
    10   6 C    3.952 --    18 O    1.556     8 N    1.181     7 C    1.081
    11   6 C    3.947 --     9 C    1.697     8 N    1.125    22 H    0.970
    12   6 C    3.991 --     6 C    1.444    14 C    1.439    19 H    0.970
                             4 C    0.111
    13   6 C    3.991 --     4 C    1.445    14 C    1.438    20 H    0.970
                             6 C    0.111
    14   6 C    3.990 --    12 C    1.439    13 C    1.438    23 H    0.971
                             3 C    0.107
    15   1 H    0.998 --     6 C    0.969
    16   1 H    0.998 --     4 C    0.969
    17   1 H    0.971 --     8 N    0.943
    18   8 O    1.970 --    10 C    1.556     8 N    0.142
    19   1 H    0.998 --    12 C    0.970
    20   1 H    0.997 --    13 C    0.970
    21   1 H    0.999 --     9 C    0.972
    22   1 H    0.998 --    11 C    0.970
    23   1 H    0.998 --    14 C    0.971
    24   1 H    0.997 --     5 C    0.959
 ---------------------------------------------------------------------------

Topologies differ in total number of bonds
Writing topology from bond orders to xtbtopo.mol

molecular dipole:
                 x           y           z       tot (Debye)
 q only:        0.588      -0.414       0.884
   full:        0.337      -0.229       0.868       2.437
molecular quadrupole (traceless):
                xx          xy          yy          xz          yz          zz
 q only:        6.300      -5.079       2.652      -1.268       0.356      -8.952
  q+dip:        9.241      -7.873       3.393       1.679      -2.511     -12.634
   full:        8.020      -6.807       3.087       0.817      -1.314     -11.107

           -------------------------------------------------
          |                Geometry Summary                 |
           -------------------------------------------------

      molecular mass/u    :      186.2103137
   center of mass at/Å    :       -0.1204872      -0.0223021      -0.1078135
  moments of inertia/u·Å² :        0.2153220E+03   0.1669002E+04   0.1718464E+04
rotational constants/cm⁻¹ :        0.7829032E-01   0.1010043E-01   0.9809711E-02

 * 24 selected distances

     #   Z          #   Z                                           value/Å
     1   1 H        2   7 N                                       1.0268896
     2   7 N        3   6 C                                       1.4109656
     3   6 C        4   6 C                                       1.3900198
     2   7 N        5   6 C                                       1.3352296
     3   6 C        6   6 C                                       1.3898616
     5   6 C        7   6 C                                       1.3656980
     7   6 C        9   6 C                                       1.4379237 (max)
     8   7 N       10   6 C                                       1.3665191
     8   7 N       11   6 C                                       1.3868851
     9   6 C       11   6 C                                       1.3471124
     6   6 C       12   6 C                                       1.3834823
     4   6 C       13   6 C                                       1.3833120
    12   6 C       14   6 C                                       1.3847324
    13   6 C       14   6 C                                       1.3849785
     6   6 C       15   1 H                                       1.0799177
     4   6 C       16   1 H                                       1.0798342
     8   7 N       17   1 H                                       1.0060307 (min)
    10   6 C       18   8 O                                       1.2329396
    12   6 C       19   1 H                                       1.0798389
    13   6 C       20   1 H                                       1.0798326
     9   6 C       21   1 H                                       1.0718364
    11   6 C       22   1 H                                       1.0729404
    14   6 C       23   1 H                                       1.0795858
     5   6 C       24   1 H                                       1.0841885

 * 5 distinct bonds (by element types)

   Z      Z             #   av. dist./Å        max./Å        min./Å
   1 H    6 C           8     1.0784968     1.0841885     1.0718364
   6 C    6 C           9     1.3852356     1.4379237     1.3471124
   1 H    7 N           2     1.0164602     1.0268896     1.0060307
   6 C    7 N           4     1.3748998     1.4109656     1.3352296
   6 C    8 O           1     1.2329396     1.2329396     1.2329396


optimized geometry written to: xtbopt.xyz


           -------------------------------------------------
          | TOTAL ENERGY              -38.551673999164 Eh   |
          | GRADIENT NORM               0.000433483630 Eh/α |
          | HOMO-LUMO GAP               2.486853690460 eV   |
           -------------------------------------------------
########################################################################
[WARNING] Runtime exception occurred
-1- restart_readRestart: Number of electron missmatch in restart file.
########################################################################

------------------------------------------------------------------------
 * finished run on 2023/11/18 at 08:33:37.479     
------------------------------------------------------------------------
 total:
 * wall-time:     0 d,  0 h,  0 min, 14.978 sec
 *  cpu-time:     0 d,  0 h,  9 min, 56.319 sec
 * ratio c/w:    39.814 speedup
 SCF:
 * wall-time:     0 d,  0 h,  0 min,  1.764 sec
 *  cpu-time:     0 d,  0 h,  1 min, 11.664 sec
 * ratio c/w:    40.628 speedup
 ANC optimizer:
 * wall-time:     0 d,  0 h,  0 min, 13.054 sec
 *  cpu-time:     0 d,  0 h,  8 min, 38.020 sec
 * ratio c/w:    39.682 speedup

