24
 energy: -38.553421904189 gnorm: 0.000940508439 xtb: 6.5.0 (97a52f5)
H            0.51587391060398        1.13948122590820       -0.14396762875371
N            0.34002704785843        0.14307848117475        0.02945313570983
C            1.40282189322228       -0.76567764870442        0.17363358370002
C            2.19757335454110       -1.08259917235060       -0.92325501763585
C           -0.95557691899167       -0.17121944881173        0.11808777322672
C            1.60734005346074       -1.41936603705522        1.38418311659970
C           -1.92133095142505        0.77968497063781       -0.04785828824270
N           -2.79594180416159        2.82249227763423       -0.40740932237375
C           -3.35471472960906        0.70092985586468        0.03553877780551
C           -1.59610969932893        2.17329485028371       -0.32981621156162
C           -3.84056741359744        1.93770951881875       -0.18591742046778
C            2.62656131977976       -2.34663215772714        1.50597005047718
C            3.21765732590205       -2.00666577963399       -0.79265356081779
C            3.43474546677883       -2.63950609703582        0.42045755061803
H            0.97113038723096       -1.18647031261791        2.22550313461747
H            2.01940958577977       -0.58625241132925       -1.86540204993477
H           -2.89847561010211        3.80645743051998       -0.59020600681855
O           -0.48555464027849        2.69027906953584       -0.46552428776633
H            2.78900579055259       -2.84274714538464        2.45129361862007
H            3.83770847401572       -2.24365301572153       -1.64436255363105
H           -3.91858132527701       -0.18854681869968        0.23470045115768
H           -4.85536333356313        2.28560217000165       -0.20489243997321
H            4.22990910202822       -3.36303390158537        0.51800360274195
H           -1.20179027541987       -1.19765888372241        0.36572301270283
