      -----------------------------------------------------------      
     |                   =====================                   |     
     |                           x T B                           |     
     |                   =====================                   |     
     |                         S. Grimme                         |     
     |          Mulliken Center for Theoretical Chemistry        |     
     |                    University of Bonn                     |     
      -----------------------------------------------------------      

   * xtb version 6.5.0 (97a52f5) compiled by 'conda@d2599ee0d4f4' on 2022-05-15

   xtb is free software: you can redistribute it and/or modify it under
   the terms of the GNU Lesser General Public License as published by
   the Free Software Foundation, either version 3 of the License, or
   (at your option) any later version.
   
   xtb is distributed in the hope that it will be useful,
   but WITHOUT ANY WARRANTY; without even the implied warranty of
   MERCHANTABILITY or FITNESS FOR A PARTICULAR PURPOSE.  See the
   GNU Lesser General Public License for more details.
   
   Cite this work as:
   * C. Bannwarth, E. Caldeweyher, S. Ehlert, A. Hansen, P. Pracht,
     J. Seibert, S. Spicher, S. Grimme, WIREs Comput. Mol. Sci., 2020, 11,
     e01493. DOI: 10.1002/wcms.1493
   
   for GFN2-xTB:
   * C. Bannwarth, S. Ehlert and S. Grimme., J. Chem. Theory Comput., 2019,
     15, 1652-1671. DOI: 10.1021/acs.jctc.8b01176
   for GFN1-xTB:
   * S. Grimme, C. Bannwarth, P. Shushkov, J. Chem. Theory Comput., 2017,
     13, 1989-2009. DOI: 10.1021/acs.jctc.7b00118
   for GFN0-xTB:
   * P. Pracht, E. Caldeweyher, S. Ehlert, S. Grimme, ChemRxiv, 2019, preprint.
     DOI: 10.26434/chemrxiv.8326202.v1
   for GFN-FF:
   * S. Spicher and S. Grimme, Angew. Chem. Int. Ed., 2020, 59, 15665-15673.
     DOI: 10.1002/anie.202004239
   
   for ALPB and GBSA implicit solvation:
   * S. Ehlert, M. Stahn, S. Spicher, S. Grimme, J. Chem. Theory Comput.,
     2021, 17, 4250-4261. DOI: 10.1021/acs.jctc.1c00471
   
   for DFT-D4:
   * E. Caldeweyher, C. Bannwarth and S. Grimme, J. Chem. Phys., 2017,
     147, 034112. DOI: 10.1063/1.4993215
   * E. Caldeweyher, S. Ehlert, A. Hansen, H. Neugebauer, S. Spicher,
     C. Bannwarth and S. Grimme, J. Chem. Phys., 2019, 150, 154122.
     DOI: 10.1063/1.5090222
   * E. Caldeweyher, J.-M. Mewes, S. Ehlert and S. Grimme, Phys. Chem. Chem. Phys.
     2020, 22, 8499-8512. DOI: 10.1039/D0CP00502A
   
   for sTDA-xTB:
   * S. Grimme and C. Bannwarth, J. Chem. Phys., 2016, 145, 054103.
     DOI: 10.1063/1.4959605
   
   in the mass-spec context:
   * V. Asgeirsson, C. Bauer and S. Grimme, Chem. Sci., 2017, 8, 4879.
     DOI: 10.1039/c7sc00601b
   * J. Koopman and S. Grimme, ACS Omega 2019, 4, 12, 15120-15133.
     DOI: 10.1021/acsomega.9b02011
   
   for metadynamics refer to:
   * S. Grimme, J. Chem. Theory Comput., 2019, 155, 2847-2862
     DOI: 10.1021/acs.jctc.9b00143
   
   for SPH calculations refer to:
   * S. Spicher and S. Grimme, J. Chem. Theory Comput., 2021, 17, 1701-1714
     DOI: 10.1021/acs.jctc.0c01306
   
   with help from (in alphabetical order)
   P. Atkinson, C. Bannwarth, F. Bohle, G. Brandenburg, E. Caldeweyher
   M. Checinski, S. Dohm, S. Ehlert, S. Ehrlich, I. Gerasimov, C. Hölzer
   A. Katbashev, J. Koopman, C. Lavigne, S. Lehtola, F. März, M. Müller,
   F. Musil, H. Neugebauer, J. Pisarek, C. Plett, P. Pracht, F. Pultar,
   J. Seibert, P. Shushkov, S. Spicher, M. Stahn, M. Steiner, T. Strunk,
   J. Stückrath, T. Rose, and J. Unsleber
   
 * started run on 2023/11/18 at 08:36:13.927     

           -------------------------------------------------
          |                Calculation Setup                |
           -------------------------------------------------

          program call               : /home/liuchw/anaconda3/envs/xtbenv/bin/xtb --gfn 2 --chrg 0 --uhf 0 1_16_Index_0-opt-2-3-231_preQMOPTprefit_xyzformat.xyz --opt --input xtb-opt-2-3-231_constr.txt
          hostname                   : node165.bme.utexas.edu
          coordinate file            : 1_16_Index_0-opt-2-3-231_preQMOPTprefit_xyzformat.xyz
          omp threads                :                    64

   ID    Z sym.   atoms
    1    1 H      1, 15-17, 19-24
    2    7 N      2, 8
    3    6 C      3-7, 9-14
    4    8 O      18
constraining angle 1 2 3 4 to  231.0037354°, actual value: -128.9962646°
constraining angle 5 2 3 4 to   52.0319045°, actual value:   52.0319045°
constraining angle 1 2 5 24 to  183.9717971°, actual value: -176.0282029°
constraining angle 3 2 5 24 to    2.9933404°, actual value:    2.9933404°
constraining angle 2 5 7 9 to  181.9951005°, actual value: -178.0048995°

           -------------------------------------------------
          |                 G F N 2 - x T B                 |
           -------------------------------------------------

        Reference                      10.1021/acs.jctc.8b01176
      * Hamiltonian:
        H0-scaling (s, p, d)           1.850000    2.230000    2.230000
        zeta-weighting                 0.500000
      * Dispersion:
        s8                             2.700000
        a1                             0.520000
        a2                             5.000000
        s9                             5.000000
      * Repulsion:
        kExp                           1.500000    1.000000
        rExp                           1.000000
      * Coulomb:
        alpha                          2.000000
        third order                    shell-resolved
        anisotropic                    true
        a3                             3.000000
        a5                             4.000000
        cn-shift                       1.200000
        cn-exp                         4.000000
        max-rad                        5.000000

q/qsh data taken from xtbrestart
CAMM data taken from xtbrestart

          ...................................................
          :                      SETUP                      :
          :.................................................:
          :  # basis functions                  66          :
          :  # atomic orbitals                  66          :
          :  # shells                           38          :
          :  # electrons                        70          :
          :  max. iterations                   250          :
          :  Hamiltonian                  GFN2-xTB          :
          :  restarted?                       true          :
          :  GBSA solvation                  false          :
          :  PC potential                    false          :
          :  electronic temp.          300.0000000     K    :
          :  accuracy                    1.0000000          :
          :  -> integral cutoff          0.2500000E+02      :
          :  -> integral neglect         0.1000000E-07      :
          :  -> SCF convergence          0.1000000E-05 Eh   :
          :  -> wf. convergence          0.1000000E-03 e    :
          :  Broyden damping             0.4000000          :
          ...................................................

 iter      E             dE          RMSdq      gap      omega  full diag
   1    -39.1071498 -0.391071E+02  0.128E+00    2.13       0.0  T
   2    -39.1074989 -0.349096E-03  0.753E-01    2.21       1.0  T
   3    -39.1043322  0.316664E-02  0.399E-01    2.12       1.0  T
   4    -39.1078192 -0.348694E-02  0.619E-02    2.20       1.0  T
   5    -39.1079015 -0.822636E-04  0.193E-02    2.19       1.1  T
   6    -39.1079038 -0.235361E-05  0.107E-02    2.19       1.9  T
   7    -39.1079043 -0.514691E-06  0.367E-03    2.19       5.6  T
   8    -39.1079044 -0.117554E-06  0.123E-03    2.19      16.6  T
   9    -39.1079045 -0.130364E-07  0.663E-04    2.19      30.8  T
  10    -39.1079045 -0.253902E-08  0.294E-04    2.19      69.5  T

   *** convergence criteria satisfied after 10 iterations ***

         #    Occupation            Energy/Eh            Energy/eV
      -------------------------------------------------------------
         1        2.0000           -0.6736989             -18.3323
       ...           ...                  ...                  ...
        29        2.0000           -0.4428108             -12.0495
        30        2.0000           -0.4338021             -11.8044
        31        2.0000           -0.4148911             -11.2898
        32        2.0000           -0.4120886             -11.2135
        33        2.0000           -0.3912351             -10.6460
        34        2.0000           -0.3781085             -10.2889
        35        2.0000           -0.3479365              -9.4678 (HOMO)
        36                         -0.2674155              -7.2767 (LUMO)
        37                         -0.2371577              -6.4534
        38                         -0.2312365              -6.2923
        39                         -0.1740474              -4.7361
        40                         -0.1210477              -3.2939
       ...                                ...                  ...
        66                          0.6776937              18.4410
      -------------------------------------------------------------
                  HL-Gap            0.0805210 Eh            2.1911 eV
             Fermi-level           -0.3076760 Eh           -8.3723 eV

 SCC (total)                   0 d,  0 h,  0 min,  1.646 sec
 SCC setup                      ...        0 min,  0.008 sec (  0.465%)
 Dispersion                     ...        0 min,  0.026 sec (  1.550%)
 classical contributions        ...        0 min,  0.019 sec (  1.138%)
 integral evaluation            ...        0 min,  0.028 sec (  1.700%)
 iterations                     ...        0 min,  1.397 sec ( 84.856%)
 molecular gradient             ...        0 min,  0.153 sec (  9.316%)
 printout                       ...        0 min,  0.016 sec (  0.954%)

         :::::::::::::::::::::::::::::::::::::::::::::::::::::
         ::                     SUMMARY                     ::
         :::::::::::::::::::::::::::::::::::::::::::::::::::::
         :: total energy             -38.547978154399 Eh    ::
         :: gradient norm              0.067910677832 Eh/a0 ::
         :: HOMO-LUMO gap              2.191088315266 eV    ::
         ::.................................................::
         :: SCC energy               -39.107904458476 Eh    ::
         :: -> isotropic ES            0.047163232037 Eh    ::
         :: -> anisotropic ES          0.001279130696 Eh    ::
         :: -> anisotropic XC          0.020438172134 Eh    ::
         :: -> dispersion             -0.021725052022 Eh    ::
         :: repulsion energy           0.560073161875 Eh    ::
         :: add. restraining           0.000000000000 Eh    ::
         :: total charge               0.000000000000 e     ::
         :::::::::::::::::::::::::::::::::::::::::::::::::::::

      ----------------------------------------------------------- 
     |                   =====================                   |
     |                        A N C O P T                        |
     |                   =====================                   |
     |               Approximate Normal Coordinate               |
     |                Rational Function Optimizer                |
      ----------------------------------------------------------- 

          ...................................................
          :                      SETUP                      :
          :.................................................:
          :   optimization level            normal          :
          :   max. optcycles                   200          :
          :   ANC micro-cycles                  20          :
          :   degrees of freedom                66          :
          :.................................................:
          :   RF solver                   davidson          :
          :   write xtbopt.log                true          :
          :   linear?                        false          :
          :   energy convergence         0.5000000E-05 Eh   :
          :   grad. convergence          0.1000000E-02 Eh/α :
          :   maximium RF displ.         1.0000000          :
          :   Hlow (freq-cutoff)         0.1000000E-01      :
          :   Hmax (freq-cutoff)         5.0000000          :
          :   S6 in model hess.         20.0000000          :
          ...................................................

generating ANC from model Hessian ...
Using Lindh-Hessian (1995)
 Shifting diagonal of input Hessian by    8.6746950900516758E-003
 Lowest  eigenvalues of input Hessian
    0.000000    0.000000    0.000000    0.000000    0.000000    0.000000
    0.010000    0.010455    0.012328    0.015969    0.018298    0.021869
    0.022986    0.029341    0.029491    0.033800    0.037446    0.041744
 Highest eigenvalues
    2.087887    2.282477    2.943785    5.766181    9.672222   22.277549


........................................................................
.............................. CYCLE    1 ..............................
........................................................................
   1    -39.1079045 -0.391079E+02  0.683E-05    2.19       0.0  T
   2    -39.1079045 -0.916600E-11  0.409E-05    2.19     499.6  T
   3    -39.1079045  0.176925E-11  0.258E-05    2.19     792.0  T
     SCC iter.                  ...        0 min,  0.381 sec
     gradient                   ...        0 min,  0.164 sec
 * total energy  :   -38.5479782 Eh     change       -0.9712764E-09 Eh
   gradient norm :     0.0679096 Eh/α   predicted     0.0000000E+00 (-100.00%)
   displ. norm   :     0.3046982 α      lambda       -0.1161955E-01
   maximum displ.:     0.1414775 α      in ANC's #7, #33, #11, ...

........................................................................
.............................. CYCLE    2 ..............................
........................................................................
   1    -39.1666171 -0.391666E+02  0.226E-01    2.31       0.0  T
   2    -39.1667453 -0.128212E-03  0.134E-01    2.29       1.0  T
   3    -39.1667318  0.134917E-04  0.732E-02    2.30       1.0  T
   4    -39.1667785 -0.466674E-04  0.159E-02    2.30       1.3  T
   5    -39.1667836 -0.512427E-05  0.504E-03    2.30       4.0  T
   6    -39.1667838 -0.168459E-06  0.245E-03    2.30       8.3  T
   7    -39.1667838 -0.375444E-07  0.136E-03    2.30      15.0  T
   8    -39.1667838 -0.254252E-07  0.506E-04    2.30      40.3  T
   9    -39.1667838 -0.124101E-08  0.161E-04    2.30     127.0  T
     SCC iter.                  ...        0 min,  1.258 sec
     gradient                   ...        0 min,  0.166 sec
 * total energy  :   -38.5554711 Eh     change       -0.7492911E-02 Eh
   gradient norm :     0.0182140 Eh/α   predicted    -0.6351039E-02 ( -15.24%)
   displ. norm   :     0.2425206 α      lambda       -0.1933137E-02
   maximum displ.:     0.1487685 α      in ANC's #7, #10, #11, ...

........................................................................
.............................. CYCLE    3 ..............................
........................................................................
   1    -39.1887804 -0.391888E+02  0.115E-01    2.35       0.0  T
   2    -39.1888017 -0.213157E-04  0.721E-02    2.34       1.0  T
   3    -39.1887860  0.156748E-04  0.432E-02    2.35       1.0  T
   4    -39.1888147 -0.286943E-04  0.109E-02    2.35       1.9  T
   5    -39.1888169 -0.222721E-05  0.314E-03    2.35       6.5  T
   6    -39.1888170 -0.999050E-07  0.154E-03    2.35      13.3  T
   7    -39.1888170 -0.178816E-07  0.540E-04    2.35      37.8  T
   8    -39.1888170 -0.238047E-08  0.177E-04    2.35     115.2  T
     SCC iter.                  ...        0 min,  1.123 sec
     gradient                   ...        0 min,  0.164 sec
 * total energy  :   -38.5565613 Eh     change       -0.1090258E-02 Eh
   gradient norm :     0.0348675 Eh/α   predicted    -0.1023877E-02 (  -6.09%)
   displ. norm   :     0.1655163 α      lambda       -0.6037480E-03
   maximum displ.:     0.0946519 α      in ANC's #7, #3, #5, ...

........................................................................
.............................. CYCLE    4 ..............................
........................................................................
   1    -39.1931335 -0.391931E+02  0.708E-02    2.36       0.0  T
   2    -39.1931364 -0.289636E-05  0.443E-02    2.35       1.0  T
   3    -39.1931228  0.135848E-04  0.277E-02    2.36       1.0  T
   4    -39.1931403 -0.174510E-04  0.394E-03    2.35       5.2  T
   5    -39.1931405 -0.253165E-06  0.151E-03    2.35      13.5  T
   6    -39.1931405 -0.236104E-07  0.683E-04    2.35      29.9  T
   7    -39.1931405 -0.124799E-08  0.211E-04    2.35      96.8  T
     SCC iter.                  ...        0 min,  0.983 sec
     gradient                   ...        0 min,  0.155 sec
 * total energy  :   -38.5564216 Eh     change        0.1397354E-03 Eh
   gradient norm :     0.1271091 Eh/α   predicted    -0.3101682E-03 (-321.97%)
   displ. norm   :     0.0718108 α      lambda       -0.8659686E-03
   maximum displ.:     0.0441195 α      in ANC's #3, #2, #7, ...

........................................................................
.............................. CYCLE    5 ..............................
........................................................................
   1    -39.1897196 -0.391897E+02  0.350E-02    2.34       0.0  T
   2    -39.1897207 -0.112392E-05  0.207E-02    2.34       1.0  T
   3    -39.1897185  0.214199E-05  0.124E-02    2.35       1.6  T
   4    -39.1897212 -0.264719E-05  0.281E-03    2.34       7.3  T
   5    -39.1897213 -0.160644E-06  0.561E-04    2.34      36.4  T
   6    -39.1897213 -0.194021E-08  0.300E-04    2.34      68.1  T
     SCC iter.                  ...        0 min,  0.800 sec
     gradient                   ...        0 min,  0.150 sec
 * total energy  :   -38.5568801 Eh     change       -0.4584764E-03 Eh
   gradient norm :     0.0045111 Eh/α   predicted    -0.4352202E-03 (  -5.07%)
   displ. norm   :     0.0580764 α      lambda       -0.6299184E-04
   maximum displ.:     0.0366538 α      in ANC's #3, #2, #5, ...

........................................................................
.............................. CYCLE    6 ..............................
........................................................................
   1    -39.1879232 -0.391879E+02  0.295E-02    2.34       0.0  T
   2    -39.1879234 -0.264457E-06  0.175E-02    2.34       1.2  T
   3    -39.1879228  0.587075E-06  0.504E-03    2.34       4.1  T
   4    -39.1879235 -0.667463E-06  0.109E-03    2.34      18.8  T
   5    -39.1879235 -0.220317E-07  0.431E-04    2.34      47.3  T
   6    -39.1879235 -0.144310E-08  0.252E-04    2.34      80.9  T
     SCC iter.                  ...        0 min,  0.815 sec
     gradient                   ...        0 min,  0.179 sec
 * total energy  :   -38.5569249 Eh     change       -0.4485633E-04 Eh
   gradient norm :     0.0054944 Eh/α   predicted    -0.3173930E-04 ( -29.24%)
   displ. norm   :     0.0900722 α      lambda       -0.4932610E-04
   maximum displ.:     0.0577736 α      in ANC's #2, #3, #5, ...

........................................................................
.............................. CYCLE    7 ..............................
........................................................................
   1    -39.1867075 -0.391867E+02  0.419E-02    2.33       0.0  T
   2    -39.1867078 -0.341970E-06  0.245E-02    2.34       1.0  T
   3    -39.1867075  0.244614E-06  0.391E-03    2.33       5.2  T
   4    -39.1867078 -0.296796E-06  0.111E-03    2.34      18.4  T
   5    -39.1867079 -0.222826E-07  0.418E-04    2.34      48.8  T
   6    -39.1867079 -0.381355E-09  0.240E-04    2.34      85.0  T
     SCC iter.                  ...        0 min,  0.780 sec
     gradient                   ...        0 min,  0.165 sec
 * total energy  :   -38.5569542 Eh     change       -0.2928835E-04 Eh
   gradient norm :     0.0053011 Eh/α   predicted    -0.2486401E-04 ( -15.11%)
   displ. norm   :     0.0455201 α      lambda       -0.1495939E-04
   maximum displ.:     0.0346535 α      in ANC's #2, #3, #5, ...

........................................................................
.............................. CYCLE    8 ..............................
........................................................................
   1    -39.1870563 -0.391871E+02  0.218E-02    2.34       0.0  T
   2    -39.1870563 -0.491666E-07  0.127E-02    2.34       1.6  T
   3    -39.1870562  0.127632E-06  0.242E-03    2.34       8.4  T
   4    -39.1870564 -0.142981E-06  0.522E-04    2.34      39.1  T
   5    -39.1870564 -0.536428E-08  0.209E-04    2.34      97.7  T
     SCC iter.                  ...        0 min,  0.579 sec
     gradient                   ...        0 min,  0.162 sec
 * total energy  :   -38.5569630 Eh     change       -0.8819540E-05 Eh
   gradient norm :     0.0039334 Eh/α   predicted    -0.7495820E-05 ( -15.01%)
   displ. norm   :     0.0261841 α      lambda       -0.7837687E-05
   maximum displ.:     0.0238448 α      in ANC's #2, #3, #5, ...

........................................................................
.............................. CYCLE    9 ..............................
........................................................................
   1    -39.1875817 -0.391876E+02  0.134E-02    2.34       0.0  T
   2    -39.1875817 -0.181113E-07  0.788E-03    2.34       2.6  T
   3    -39.1875817  0.579058E-07  0.155E-03    2.34      13.2  T
   4    -39.1875817 -0.678170E-07  0.196E-04    2.34     104.2  T
   5    -39.1875817 -0.323858E-09  0.106E-04    2.34     192.0  T
     SCC iter.                  ...        0 min,  0.568 sec
     gradient                   ...        0 min,  0.170 sec
 * total energy  :   -38.5569686 Eh     change       -0.5563535E-05 Eh
   gradient norm :     0.0013433 Eh/α   predicted    -0.3925858E-05 ( -29.44%)
   displ. norm   :     0.0309539 α      lambda       -0.4249749E-05
   maximum displ.:     0.0292516 α      in ANC's #2, #4, #13, ...

........................................................................
.............................. CYCLE   10 ..............................
........................................................................
   1    -39.1879073 -0.391879E+02  0.157E-02    2.34       0.0  T
   2    -39.1879073 -0.258134E-07  0.922E-03    2.34       2.2  T
   3    -39.1879072  0.835819E-07  0.186E-03    2.34      11.0  T
   4    -39.1879073 -0.974500E-07  0.213E-04    2.34      95.8  T
   5    -39.1879073 -0.520870E-09  0.104E-04    2.34     195.6  T
     SCC iter.                  ...        0 min,  0.571 sec
     gradient                   ...        0 min,  0.161 sec
 * total energy  :   -38.5569727 Eh     change       -0.4135834E-05 Eh
   gradient norm :     0.0011886 Eh/α   predicted    -0.2127306E-05 ( -48.56%)
   displ. norm   :     0.0181203 α      lambda       -0.1836594E-05
   maximum displ.:     0.0170068 α      in ANC's #2, #3, #5, ...

........................................................................
.............................. CYCLE   11 ..............................
........................................................................
   1    -39.1877354 -0.391877E+02  0.812E-03    2.34       0.0  T
   2    -39.1877354 -0.498165E-08  0.476E-03    2.34       4.3  T
   3    -39.1877354  0.107837E-07  0.764E-04    2.34      26.7  T
   4    -39.1877354 -0.124845E-07  0.168E-04    2.34     121.7  T
     SCC iter.                  ...        0 min,  0.474 sec
     gradient                   ...        0 min,  0.157 sec
 * total energy  :   -38.5569751 Eh     change       -0.2332046E-05 Eh
   gradient norm :     0.0006836 Eh/α   predicted    -0.9189183E-06 ( -60.60%)
   displ. norm   :     0.0192826 α      lambda       -0.1763628E-05
   maximum displ.:     0.0168104 α      in ANC's #2, #3, #5, ...

   *** GEOMETRY OPTIMIZATION CONVERGED AFTER 11 ITERATIONS ***

------------------------------------------------------------------------
 total energy gain   :        -0.0089969 Eh       -5.6456 kcal/mol
 total RMSD          :         0.1716099 a0        0.0908 Å
 total power (kW/mol):        -2.1473976 (step)   -1.9699 (real)
------------------------------------------------------------------------

 ANCopt (total)                0 d,  0 h,  0 min, 11.991 sec
 optimizer setup                ...        0 min,  0.000 sec (  0.002%)
 model hessian                  ...        0 min,  0.013 sec (  0.107%)
 ANC generation                 ...        0 min,  0.052 sec (  0.434%)
 coordinate transformation      ...        0 min,  0.000 sec (  0.003%)
 single point calculation       ...        0 min, 11.551 sec ( 96.330%)
 optimization log               ...        0 min,  0.016 sec (  0.137%)
 hessian update                 ...        0 min,  0.337 sec (  2.811%)
 rational function              ...        0 min,  0.019 sec (  0.162%)

================
 final structure:
================
24
 xtb: 6.5.0 (97a52f5)
H            0.39860376150391        1.01518184512613        0.60964029718195
N            0.27272697807734        0.06505601672489        0.24551933728456
C            1.31622100140144       -0.86071503611611        0.30453784346659
C            1.70271413515609       -1.56712754824170       -0.83172804227247
C           -0.94805160517813       -0.17642081119512       -0.24719586024009
C            2.05101363312494       -0.99699509307417        1.47991459401478
C           -1.90108782284964        0.79919816482191       -0.28217160807878
N           -2.83183068310904        2.82321417500554        0.04491094698026
C           -3.26980105159023        0.76626196718939       -0.72181260305588
C           -1.65332567548269        2.15092722725925        0.21132352995565
C           -3.78994951770869        1.99132406455541       -0.51418559822510
C            3.11583206785932       -1.87625692927970        1.53107703985245
C            2.76514251024886       -2.44941405460067       -0.76982417650211
C            3.47174449953576       -2.60959327779601        0.41048265563552
H            1.77328238997848       -0.41676301271157        2.34717843003000
H            1.15675308461543       -1.42855565966801       -1.75342301034610
H           -2.97576039269471        3.78718094219833        0.29413382051158
O           -0.61916031381229        2.61426432392456        0.69259813916502
H            3.67335569595691       -1.98820027550698        2.44905086239860
H            3.05389445900280       -3.00054687701039       -1.65248260692604
H           -3.76826089853323       -0.08514443215696       -1.14037616220419
H           -4.77646252740212        2.36258518064361       -0.71472243048619
H            4.30414930116113       -3.29531011511183        0.45403787827453
H           -1.15598603926169       -1.18517080497983       -0.58520330641424

 Bond Distances (Angstroems)
 ---------------------------
H1-N2=1.0253         N2-H1=1.0253         N2-C3=1.3962         N2-C5=1.3384         C3-N2=1.3962         C3-C4=1.3927         
C3-C6=1.3928         C4-C3=1.3927         C4-C13=1.3824        C4-H16=1.0802        C5-N2=1.3384         C5-C7=1.3643         
C5-H24=1.0840        C6-C3=1.3928         C6-C12=1.3819        C6-H15=1.0798        C7-C5=1.3643         C7-C9=1.4380         
C7-C10=1.4602        N8-C10=1.3669        N8-C11=1.3866        N8-H17=1.0060        C9-C7=1.4380         C9-C11=1.3470        
C9-H21=1.0717        C10-C7=1.4602        C10-N8=1.3669        C10-O18=1.2312       C11-N8=1.3866        C11-C9=1.3470        
C11-H22=1.0730       C12-C6=1.3819        C12-C14=1.3857       C12-H19=1.0798       C13-C4=1.3824        C13-C14=1.3849       
C13-H20=1.0799       C14-C12=1.3857       C14-C13=1.3849       C14-H23=1.0794       H15-C6=1.0798        H16-C4=1.0802        
H17-N8=1.0060        O18-C10=1.2312       H19-C12=1.0798       H20-C13=1.0799       H21-C9=1.0717        H22-C11=1.0730       
H23-C14=1.0794       H24-C5=1.0840        
 C  H  Rav=1.0785 sigma=0.0038  Rmin=1.0717  Rmax=1.0840     8
 C  C  Rav=1.3930 sigma=0.0313  Rmin=1.3470  Rmax=1.4602    10
 N  H  Rav=1.0156 sigma=0.0096  Rmin=1.0060  Rmax=1.0253     2
 N  C  Rav=1.3720 sigma=0.0221  Rmin=1.3384  Rmax=1.3962     4
 O  C  Rav=1.2312 sigma=0.0000  Rmin=1.2312  Rmax=1.2312     1

 selected bond angles (degree)
 --------------------
C3-N2-H1=120.51                C5-N2-H1=114.20                C5-N2-C3=125.28                C4-C3-N2=120.61                
C6-C3-N2=119.66                C6-C3-C4=119.50                C13-C4-C3=120.03               H16-C4-C3=119.40               
H16-C4-C13=120.57              C7-C5-N2=121.17                H24-C5-N2=117.24               H24-C5-C7=121.57               
C12-C6-C3=120.00               H15-C6-C3=119.31               H15-C6-C12=120.69              C9-C7-C5=131.02                
C10-C7-C5=122.33               C10-C7-C9=106.62               C11-N8-C10=110.47              H17-N8-C10=124.36              
H17-N8-C11=125.16              C11-C9-C7=107.43               H21-C9-C7=125.47               H21-C9-C11=127.09              
N8-C10-C7=105.54               O18-C10-C7=128.54              O18-C10-N8=125.92              

 selected dihedral angles (degree)
 ---------------------------------
C4-C3-N2-H1=230.94            C4-C3-N2-C5= 51.96            C6-C3-N2-H1= 45.47            C6-C3-N2-C5=226.49            
C13-C4-C3-N2=177.94           C13-C4-C3-C6=  3.40           H16-C4-C3-N2=357.09           H16-C4-C3-C6=182.55           
C7-C5-N2-H1=  1.97            C7-C5-N2-C3=181.01            H24-C5-N2-H1=183.95           H24-C5-N2-C3=  2.99           
C12-C6-C3-N2=182.33           C12-C6-C3-C4=356.92           H15-C6-C3-N2=  2.89           H15-C6-C3-C4=177.48           
C9-C7-C5-N2=181.99            C9-C7-C5-H24=359.92           C10-C7-C5-N2=359.91           C10-C7-C5-H24=177.84          
C11-C9-C7-C5=178.41           C11-C9-C7-C10=  0.24          H21-C9-C7-C5=358.15           H21-C9-C7-C10=179.98          
N8-C10-C7-C5=181.50           N8-C10-C7-C9=359.87           O18-C10-C7-C5=  0.86          O18-C10-C7-C9=179.22          
C7-C10-N8-C11=  0.00          C7-C10-N8-H17=180.08          O18-C10-N8-C11=180.60         O18-C10-N8-H17=  0.70         
           -------------------------------------------------
          |                Final Singlepoint                |
           -------------------------------------------------

          ...................................................
          :                      SETUP                      :
          :.................................................:
          :  # basis functions                  66          :
          :  # atomic orbitals                  66          :
          :  # shells                           38          :
          :  # electrons                        70          :
          :  max. iterations                   250          :
          :  Hamiltonian                  GFN2-xTB          :
          :  restarted?                      false          :
          :  GBSA solvation                  false          :
          :  PC potential                    false          :
          :  electronic temp.          300.0000000     K    :
          :  accuracy                    1.0000000          :
          :  -> integral cutoff          0.2500000E+02      :
          :  -> integral neglect         0.1000000E-07      :
          :  -> SCF convergence          0.1000000E-05 Eh   :
          :  -> wf. convergence          0.1000000E-03 e    :
          :  Broyden damping             0.4000000          :
          ...................................................

 iter      E             dE          RMSdq      gap      omega  full diag
   1    -39.1877354 -0.391877E+02  0.753E-05    2.34       0.0  T
   2    -39.1877354 -0.560618E-11  0.544E-05    2.34     375.5  T
   3    -39.1877354 -0.310081E-10  0.315E-05    2.34     647.1  T

   *** convergence criteria satisfied after 3 iterations ***

         #    Occupation            Energy/Eh            Energy/eV
      -------------------------------------------------------------
         1        2.0000           -0.6810251             -18.5316
       ...           ...                  ...                  ...
        29        2.0000           -0.4411006             -12.0030
        30        2.0000           -0.4330780             -11.7847
        31        2.0000           -0.4181364             -11.3781
        32        2.0000           -0.4144009             -11.2764
        33        2.0000           -0.3913586             -10.6494
        34        2.0000           -0.3792391             -10.3196
        35        2.0000           -0.3475560              -9.4575 (HOMO)
        36                         -0.2616795              -7.1207 (LUMO)
        37                         -0.2322740              -6.3205
        38                         -0.2224493              -6.0532
        39                         -0.1674838              -4.5575
        40                         -0.1099221              -2.9911
       ...                                ...                  ...
        66                          0.7424961              20.2043
      -------------------------------------------------------------
                  HL-Gap            0.0858765 Eh            2.3368 eV
             Fermi-level           -0.3046177 Eh           -8.2891 eV

 SCC (total)                   0 d,  0 h,  0 min,  0.597 sec
 SCC setup                      ...        0 min,  0.024 sec (  4.065%)
 Dispersion                     ...        0 min,  0.015 sec (  2.536%)
 classical contributions        ...        0 min,  0.028 sec (  4.734%)
 integral evaluation            ...        0 min,  0.035 sec (  5.865%)
 iterations                     ...        0 min,  0.310 sec ( 51.982%)
 molecular gradient             ...        0 min,  0.153 sec ( 25.662%)
 printout                       ...        0 min,  0.031 sec (  5.114%)

         :::::::::::::::::::::::::::::::::::::::::::::::::::::
         ::                     SUMMARY                     ::
         :::::::::::::::::::::::::::::::::::::::::::::::::::::
         :: total energy             -38.556975061065 Eh    ::
         :: gradient norm              0.000682781334 Eh/a0 ::
         :: HOMO-LUMO gap              2.336817872421 eV    ::
         ::.................................................::
         :: SCC energy               -39.187735420047 Eh    ::
         :: -> isotropic ES            0.045932983583 Eh    ::
         :: -> anisotropic ES          0.000623683605 Eh    ::
         :: -> anisotropic XC          0.018294809085 Eh    ::
         :: -> dispersion             -0.022168955365 Eh    ::
         :: repulsion energy           0.630903307597 Eh    ::
         :: add. restraining           0.000007320404 Eh    ::
         :: total charge               0.000000000000 e     ::
         :::::::::::::::::::::::::::::::::::::::::::::::::::::

           -------------------------------------------------
          |                Property Printout                |
           -------------------------------------------------

    * Orbital Energies and Occupations

         #    Occupation            Energy/Eh            Energy/eV
      -------------------------------------------------------------
         1        2.0000           -0.6810251             -18.5316
       ...           ...                  ...                  ...
        23        2.0000           -0.4847222             -13.1900
        24        2.0000           -0.4780577             -13.0086
        25        2.0000           -0.4745489             -12.9131
        26        2.0000           -0.4677995             -12.7295
        27        2.0000           -0.4595547             -12.5051
        28        2.0000           -0.4534624             -12.3393
        29        2.0000           -0.4411006             -12.0030
        30        2.0000           -0.4330780             -11.7847
        31        2.0000           -0.4181364             -11.3781
        32        2.0000           -0.4144009             -11.2764
        33        2.0000           -0.3913586             -10.6494
        34        2.0000           -0.3792391             -10.3196
        35        2.0000           -0.3475560              -9.4575 (HOMO)
        36                         -0.2616795              -7.1207 (LUMO)
        37                         -0.2322740              -6.3205
        38                         -0.2224493              -6.0532
        39                         -0.1674838              -4.5575
        40                         -0.1099221              -2.9911
        41                         -0.0989390              -2.6923
        42                          0.0196333               0.5342
        43                          0.0360342               0.9805
        44                          0.1104450               3.0054
        45                          0.1163414               3.1658
        46                          0.1311695               3.5693
       ...                                ...                  ...
        66                          0.7424961              20.2043
      -------------------------------------------------------------
                  HL-Gap            0.0858765 Eh            2.3368 eV
             Fermi-level           -0.3046177 Eh           -8.2891 eV

     #   Z          covCN         q      C6AA      α(0)
     1   1 H        0.859     0.227     0.980     1.550
     2   7 N        2.700    -0.116    23.531     7.204
     3   6 C        2.913     0.067    26.492     8.440
     4   6 C        2.922    -0.044    29.095     8.845
     5   6 C        2.835     0.043    27.017     8.518
     6   6 C        2.923    -0.046    29.149     8.854
     7   6 C        3.090    -0.071    29.650     8.925
     8   7 N        2.775    -0.147    24.172     7.302
     9   6 C        2.981    -0.071    29.770     8.950
    10   6 C        2.873     0.256    22.705     7.811
    11   6 C        2.992     0.002    27.978     8.677
    12   6 C        2.920    -0.027    28.665     8.780
    13   6 C        2.919    -0.028    28.692     8.784
    14   6 C        2.919    -0.034    28.844     8.807
    15   1 H        0.926     0.043     2.411     2.428
    16   1 H        0.926     0.039     2.464     2.454
    17   1 H        0.860     0.168     1.282     1.774
    18   8 O        0.857    -0.488    23.532     6.504
    19   1 H        0.926     0.039     2.468     2.457
    20   1 H        0.926     0.037     2.484     2.465
    21   1 H        0.926     0.032     2.563     2.503
    22   1 H        0.926     0.034     2.527     2.486
    23   1 H        0.926     0.036     2.500     2.472
    24   1 H        0.925     0.048     2.341     2.393

 Mol. C6AA /au·bohr⁶  :       7632.988970
 Mol. C8AA /au·bohr⁸  :     185830.279771
 Mol. α(0) /au        :        139.384577


Wiberg/Mayer (AO) data.
largest (>0.10) Wiberg bond orders for each atom

 ---------------------------------------------------------------------------
     #   Z sym  total        # sym  WBO       # sym  WBO       # sym  WBO
 ---------------------------------------------------------------------------
     1   1 H    0.948 --     2 N    0.873
     2   7 N    3.544 --     5 C    1.310     3 C    1.060     1 H    0.873
     3   6 C    3.965 --     4 C    1.377     6 C    1.374     2 N    1.060
                            14 C    0.100
     4   6 C    3.986 --    13 C    1.450     3 C    1.377    16 H    0.968
                            12 C    0.107
     5   6 C    3.971 --     7 C    1.492     2 N    1.310    24 H    0.958
     6   6 C    3.986 --    12 C    1.455     3 C    1.374    15 H    0.969
                            13 C    0.108
     7   6 C    3.964 --     5 C    1.492     9 C    1.156    10 C    1.073
     8   7 N    3.512 --    10 C    1.180    11 C    1.125    17 H    0.943
                            18 O    0.143
     9   6 C    3.978 --    11 C    1.697     7 C    1.156    21 H    0.972
    10   6 C    3.950 --    18 O    1.566     8 N    1.180     7 C    1.073
    11   6 C    3.941 --     9 C    1.697     8 N    1.125    22 H    0.970
    12   6 C    3.991 --     6 C    1.455    14 C    1.431    19 H    0.970
                             4 C    0.107
    13   6 C    3.992 --     4 C    1.450    14 C    1.435    20 H    0.970
                             6 C    0.108
    14   6 C    3.979 --    13 C    1.435    12 C    1.431    23 H    0.971
                             3 C    0.100
    15   1 H    0.998 --     6 C    0.969
    16   1 H    0.998 --     4 C    0.968
    17   1 H    0.971 --     8 N    0.943
    18   8 O    1.971 --    10 C    1.566     8 N    0.143
    19   1 H    0.998 --    12 C    0.970
    20   1 H    0.998 --    13 C    0.970
    21   1 H    0.999 --     9 C    0.972
    22   1 H    0.998 --    11 C    0.970
    23   1 H    0.999 --    14 C    0.971
    24   1 H    0.997 --     5 C    0.958
 ---------------------------------------------------------------------------

Topologies differ in total number of bonds
Writing topology from bond orders to xtbtopo.mol

molecular dipole:
                 x           y           z       tot (Debye)
 q only:        0.015      -0.932      -0.234
   full:       -0.247      -0.750      -0.261       2.115
molecular quadrupole (traceless):
                xx          xy          yy          xz          yz          zz
 q only:        6.081      -6.599      -4.410       1.569      -2.004      -1.671
  q+dip:        5.627     -12.218      -2.614       2.449       0.105      -3.013
   full:        5.701     -10.010      -3.047       1.295      -1.462      -2.654

           -------------------------------------------------
          |                Geometry Summary                 |
           -------------------------------------------------

      molecular mass/u    :      186.2103137
   center of mass at/Å    :       -0.0520794       0.1074907       0.1198137
  moments of inertia/u·Å² :        0.2144629E+03   0.1626285E+04   0.1766332E+04
rotational constants/cm⁻¹ :        0.7860396E-01   0.1036573E-01   0.9543866E-02

 * 24 selected distances

     #   Z          #   Z                                           value/Å
     1   1 H        2   7 N                                       1.0252650
     2   7 N        3   6 C                                       1.3962147
     3   6 C        4   6 C                                       1.3926579
     2   7 N        5   6 C                                       1.3384244
     3   6 C        6   6 C                                       1.3928400
     5   6 C        7   6 C                                       1.3643072
     7   6 C        9   6 C                                       1.4379657 (max)
     8   7 N       10   6 C                                       1.3669445
     8   7 N       11   6 C                                       1.3865865
     9   6 C       11   6 C                                       1.3470118
     6   6 C       12   6 C                                       1.3818674
     4   6 C       13   6 C                                       1.3823950
    12   6 C       14   6 C                                       1.3857085
    13   6 C       14   6 C                                       1.3849434
     6   6 C       15   1 H                                       1.0797920
     4   6 C       16   1 H                                       1.0801840
     8   7 N       17   1 H                                       1.0060119 (min)
    10   6 C       18   8 O                                       1.2311802
    12   6 C       19   1 H                                       1.0798334
    13   6 C       20   1 H                                       1.0799126
     9   6 C       21   1 H                                       1.0717046
    11   6 C       22   1 H                                       1.0729669
    14   6 C       23   1 H                                       1.0793529
     5   6 C       24   1 H                                       1.0840030

 * 5 distinct bonds (by element types)

   Z      Z             #   av. dist./Å        max./Å        min./Å
   1 H    6 C           8     1.0784687     1.0840030     1.0717046
   6 C    6 C           9     1.3855219     1.4379657     1.3470118
   1 H    7 N           2     1.0156384     1.0252650     1.0060119
   6 C    7 N           4     1.3720425     1.3962147     1.3384244
   6 C    8 O           1     1.2311802     1.2311802     1.2311802


optimized geometry written to: xtbopt.xyz


           -------------------------------------------------
          | TOTAL ENERGY              -38.556975061065 Eh   |
          | GRADIENT NORM               0.000682781334 Eh/α |
          | HOMO-LUMO GAP               2.336817872421 eV   |
           -------------------------------------------------
########################################################################
[WARNING] Runtime exception occurred
-1- restart_readRestart: Number of electron missmatch in restart file.
########################################################################

------------------------------------------------------------------------
 * finished run on 2023/11/18 at 08:36:28.317     
------------------------------------------------------------------------
 total:
 * wall-time:     0 d,  0 h,  0 min, 14.390 sec
 *  cpu-time:     0 d,  0 h, 10 min, 29.497 sec
 * ratio c/w:    43.746 speedup
 SCF:
 * wall-time:     0 d,  0 h,  0 min,  1.646 sec
 *  cpu-time:     0 d,  0 h,  1 min, 10.062 sec
 * ratio c/w:    42.553 speedup
 ANC optimizer:
 * wall-time:     0 d,  0 h,  0 min, 12.596 sec
 *  cpu-time:     0 d,  0 h,  9 min, 13.082 sec
 * ratio c/w:    43.908 speedup

