24
 energy: -38.547978155370 gnorm: 0.067909581966 xtb: 6.5.0 (97a52f5)
H            0.45460630000000        1.06149149000000        0.55912599000000
N            0.31568713000000        0.09221302000000        0.20986689000000
C            1.39264348000000       -0.82095897000000        0.27321480000000
C            1.78271409000000       -1.56008210000000       -0.87059549000000
C           -0.95272279000000       -0.13959058000000       -0.25358325000000
C            2.07388693000000       -1.02832739000000        1.49631723000000
C           -1.94531605000000        0.84267463000000       -0.26390165000000
N           -2.91030391000000        2.87097036000000        0.01943943000000
C           -3.33003476000000        0.76577288000000       -0.67457861000000
C           -1.71006192000000        2.22254911000000        0.18770022000000
C           -3.87570112000000        2.00016623000000       -0.49478510000000
C            3.12837909000000       -1.94799755000000        1.56714616000000
C            2.83889842000000       -2.47704923000000       -0.78805443000000
C            3.52175371000000       -2.67927609000000        0.42825782000000
H            1.78106356000000       -0.47420046000000        2.39081226000000
H            1.26883160000000       -1.41727572000000       -1.82361817000000
H           -3.03269389000000        3.84555143000000        0.25280147000000
O           -0.65130672000000        2.72217934000000        0.63835069000000
H            3.64616292000000       -2.09439522000000        2.51680442000000
H            3.13147807000000       -3.03626929000000       -1.67862584000000
H           -3.84346978000000       -0.10466904000000       -1.05861098000000
H           -4.88053117000000        2.34933120000000       -0.68687022000000
H            4.34446688000000       -3.39431078000000        0.48767228000000
H           -1.18267308000000       -1.15951729000000       -0.57300595000000
24
 energy: -38.555471066056 gnorm: 0.018214055293 xtb: 6.5.0 (97a52f5)
H            0.43744463307301        1.04155728391595        0.57458144684673
N            0.30112323607949        0.08614741097204        0.21839979125606
C            1.36584199790509       -0.83331633226403        0.27520283366047
C            1.76166796365895       -1.56012235332999       -0.85259178529936
C           -0.94396993622645       -0.14089824991947       -0.24921699621001
C            2.06308541557248       -1.01971942021392        1.47394403582636
C           -1.91728151659713        0.82832666416129       -0.25996104174537
N           -2.88448261166237        2.85139737843644        0.02265190701543
C           -3.29544746224726        0.76342004626280       -0.67764941512102
C           -1.68957873320736        2.20258111626465        0.18736113567525
C           -3.84018822106257        1.98565982397772       -0.49190163980251
C            3.11028383951362       -1.92604093050831        1.54408888773883
C            2.81516299205544       -2.45957977336941       -0.77349250070875
C            3.49155342955920       -2.65340491417154        0.42387157732182
H            1.77399184373766       -0.46482457030105        2.35735801677467
H            1.25404798503340       -1.41114620044282       -1.79691738800951
H           -3.01886445217070        3.82272447245960        0.25459268873196
O           -0.65094715980385        2.69764836805275        0.63408238603858
H            3.62470128894218       -2.07685708965611        2.48564508016468
H            3.11352850864703       -3.01253636414227       -1.65608936504557
H           -3.80551537147748       -0.10203134448472       -1.05767736344021
H           -4.84076738230836        2.33278002468907       -0.68057769030175
H            4.30851569719269       -3.36172446795048        0.48306165046485
H           -1.16814899420672       -1.15106059843818       -0.57748628183158
24
 energy: -38.556561323853 gnorm: 0.034867526480 xtb: 6.5.0 (97a52f5)
H            0.42820852507931        1.03094643073360        0.58930371162713
N            0.29312713118747        0.08366867886793        0.22774764382409
C            1.34733783551876       -0.83781528385963        0.27913491437600
C            1.74020199886123       -1.55339725745207       -0.84768637217288
C           -0.93647937944469       -0.14854143619568       -0.24861991355713
C            2.05012528211631       -1.01001400645300        1.46936085030812
C           -1.89989832424944        0.81492142127999       -0.26015376578190
N           -2.86006066491392        2.83516827864424        0.02850219231097
C           -3.27372059524013        0.75637069567374       -0.68523977721134
C           -1.66880674612961        2.18332043596519        0.19694935225538
C           -3.81262195799748        1.97561544945865       -0.49460261000858
C            3.09492613673433       -1.91110321635400        1.53777717104500
C            2.79123215060165       -2.44872743363537       -0.77183935897043
C            3.46850908753171       -2.63653893395803        0.41978663034532
H            1.76600507735146       -0.44291589737485        2.34288183029993
H            1.21993166772790       -1.40816015918889       -1.78245214909991
H           -3.00270152776150        3.80432507205063        0.25902447517668
O           -0.63678797151354        2.67482677194184        0.64641380889583
H            3.62158797343781       -2.04843903276056        2.47068616900621
H            3.08940037912082       -2.99800399898938       -1.65262035765181
H           -3.77787742663328       -0.10756341765043       -1.06992789090452
H           -4.80922546896413        2.32510220565396       -0.68563624807604
H            4.28703768054873       -3.33789198665652        0.47572045445419
H           -1.15369387296979       -1.15617339974138       -0.58323079049028
24
 energy: -38.556421588451 gnorm: 0.127109278418 xtb: 6.5.0 (97a52f5)
H            0.42215072960698        1.02597091857864        0.60229257512904
N            0.28906884841367        0.08250741201542        0.23411856030851
C            1.33328262356183       -0.84381668419731        0.28675389708874
C            1.72294799766533       -1.55129596418617       -0.84506595326640
C           -0.93463837134511       -0.15822808904367       -0.24618888773757
C            2.04635211033676       -1.00067216287994        1.47095863375424
C           -1.89411363457977        0.80581458934662       -0.26333877561027
N           -2.84468911287284        2.82589294005214        0.03351944379920
C           -3.26479340228260        0.75340905117262       -0.69556841706551
C           -1.65644902046797        2.16947661065178        0.20326832459965
C           -3.79762604241292        1.97357865399135       -0.50032160301330
C            3.09448082123888       -1.89647903239619        1.53515987735111
C            2.77453317993297       -2.44498613355784       -0.77290532963198
C            3.45857449461207       -2.62534688969760        0.41589638457016
H            1.76317546422176       -0.42548181835136        2.33895649036560
H            1.19263596929844       -1.40571870407909       -1.77397128291731
H           -2.99147103064795        3.79332087676595        0.26621919104244
O           -0.62552062048940        2.65482819585104        0.66149890676414
H            3.62835513815698       -2.02822655338520        2.46369798910790
H            3.07024684513002       -2.99326099475162       -1.65400876999607
H           -3.76372425684993       -0.10992493248581       -1.08699120154718
H           -4.79122892700238        2.32767429492511       -0.69407290296665
H            4.27763876625265       -3.32487807981108        0.46889485635405
H           -1.14343157947746       -1.16517752452783       -0.58752203648253
24
 energy: -38.556880064869 gnorm: 0.004511069555 xtb: 6.5.0 (97a52f5)
H            0.42019117935638        1.02618992989544        0.60360354955818
N            0.28675533695616        0.08051077785094        0.23860038869344
C            1.32990005138246       -0.84565291600825        0.29093180655068
C            1.71489533855621       -1.55350653025621       -0.84297702425910
C           -0.93497237574631       -0.16277015678709       -0.24815295956082
C            2.04846642766447       -0.99646358759047        1.47446225874218
C           -1.89496987391463        0.80352921349598       -0.26824625730928
N           -2.84064466050214        2.82380030178687        0.03637284257632
C           -3.26509265304186        0.75405956135368       -0.70213101761793
C           -1.65392842847317        2.16431762804803        0.20558917527265
C           -3.79481994930904        1.97598539953506       -0.50444255899351
C            3.09954024168406       -1.89036979068271        1.53527400856235
C            2.76880235964563       -2.44584980831177       -0.77367746325276
C            3.45857548005400       -2.62191525005482        0.41415466270888
H            1.76467263246281       -0.41899557123574        2.34135713801617
H            1.18110520960822       -1.40549167283126       -1.77029799869850
H           -2.98816382647640        3.79029961487142        0.27245049781608
O           -0.62205865487783        2.64493230920296        0.67141892101766
H            3.63685119466098       -2.02108814584319        2.46233764628264
H            3.06278200951734       -2.99407478100193       -1.65589559609895
H           -3.76146335415314       -0.10874973439934       -1.09892811589006
H           -4.78713867006502        2.33348091964497       -0.69979405946867
H            4.27852684125686       -3.32123873093975        0.46509187869280
H           -1.14205486624606       -1.17195899974289       -0.58582175334038
24
 energy: -38.556924921200 gnorm: 0.005494425275 xtb: 6.5.0 (97a52f5)
H            0.41548302318869        1.02612463888676        0.60605717764842
N            0.28447524755773        0.07886333461554        0.24096275670754
C            1.32824953089795       -0.84735099825041        0.29468025732657
C            1.71317867939351       -1.55467421597083       -0.84062840897664
C           -0.93726826165570       -0.16578062721754       -0.24786365286180
C            2.05020157545098       -0.99695354453437        1.47674858923603
C           -1.89751586941585        0.80234725815093       -0.27177034323581
N           -2.83955878153444        2.82366800540779        0.03804516812776
C           -3.26741854512226        0.75664966793943       -0.70694964123521
C           -1.65511614606254        2.16070693035827        0.20741770136663
C           -3.79498965661060        1.97975143163073       -0.50721604617707
C            3.10292376365262       -1.88976095848942        1.53495989930551
C            2.76758075796418       -2.44692621844588       -0.77309983998907
C            3.46044621569162       -2.62125260723648        0.41326395577711
H            1.76896879665514       -0.41673529713766        2.34293288063847
H            1.17507713218946       -1.40859629816430       -1.76589606535908
H           -2.98645950796421        3.78988985203119        0.27631558563582
O           -0.62249821979701        2.63695582858294        0.67766800012413
H            3.64864609738883       -2.01396857785243        2.45864929033491
H            3.05862089262725       -2.99750214164334       -1.65524578592201
H           -3.76259502046214       -0.10427102073657       -1.10980325054679
H           -4.78581828770027        2.34096692029686       -0.70491055808352
H            4.28359965779659       -3.31769050217842        0.46179597626789
H           -1.14245608412955       -1.17548088004284       -0.58483367610970
24
 energy: -38.556954209551 gnorm: 0.005301121023 xtb: 6.5.0 (97a52f5)
H            0.40769057095550        1.02511965611110        0.60917205229178
N            0.28002953324948        0.07551127476832        0.24499382682039
C            1.32357850178352       -0.85137971163730        0.30093316282920
C            1.70796251682799       -1.55790356386018       -0.83599372224082
C           -0.94094974172066       -0.17070725917413       -0.24659312457744
C            2.05317830788694       -0.99579978667927        1.47940897396811
C           -1.89994105943633        0.80004799438714       -0.27747299332013
N           -2.83649530496526        2.82252902361783        0.04103381808650
C           -3.26928456336220        0.76030357974782       -0.71493343429225
C           -1.65527967225627        2.15470924340581        0.20957785605978
C           -3.79322813592087        1.98480269626227       -0.51203421060987
C            3.11046207739825       -1.88405122035138        1.53285177652546
C            2.76364107168641       -2.44880966277901       -0.77173901907021
C            3.46371323125244       -2.61767572025871        0.41126323895500
H            1.77428212404203       -0.41405274528609        2.34534606245650
H            1.16542065512632       -1.41265999308901       -1.75874025583918
H           -2.98322207068966        3.78788968205118        0.28359605847933
O           -0.62210714988249        2.62421192836324        0.68713139668439
H            3.66351318798856       -2.00380607818841        2.45287971725847
H            3.05164105950547       -3.00082670571120       -1.65431958415045
H           -3.76325977711042       -0.09731971186326       -1.12656893256154
H           -4.78173902075878        2.35141597936586       -0.71245272754575
H            4.28949908453340       -3.31169709791905        0.45683337775822
H           -1.14334843613343       -1.18087182128364       -0.58289334396535
24
 energy: -38.556963029091 gnorm: 0.003933370751 xtb: 6.5.0 (97a52f5)
H            0.40289137782189        1.02318731430977        0.61022294373083
N            0.27740145276704        0.07280078606150        0.24625293414388
C            1.32080794740240       -0.85408249325611        0.30386487999432
C            1.70493791514332       -1.56051956421921       -0.83335691355810
C           -0.94305570223803       -0.17302662265133       -0.24614843031023
C            2.05381927591468       -0.99553490080163        1.48030912491170
C           -1.90038082776678        0.79908805009389       -0.28011780395128
N           -2.83459931205799        2.82198776567600        0.04270209047701
C           -3.26937640889921        0.76235182988227       -0.71887060234446
C           -1.65481609744468        2.15211983850844        0.21046042106154
C           -3.79164002806149        1.98712781044944       -0.51409033205849
C            3.11371795717657       -1.88071130417800        1.53158925124600
C            2.76220238623799       -2.44929944302469       -0.77090114828021
C            3.46580174179402       -2.61514777045797        0.41037046130161
H            1.77629258000990       -0.41384853600585        2.34665128083930
H            1.16076309597645       -1.41628805078843       -1.75520291039212
H           -2.98118923321293        3.78673388163986        0.28781630264314
O           -0.62153607717578        2.61864281199095        0.69088964502511
H            3.66984074113165       -1.99786182388658        2.44992786133864
H            3.04912972142199       -3.00154083873821       -1.65364862158213
H           -3.76382296901710       -0.09293929808364       -1.13460141544429
H           -4.77903168844984        2.35610950515676       -0.71525603060551
H            4.29330788666750       -3.30714424855996        0.45457904735633
H           -1.14570874514160       -1.18322471911733       -0.58216206554241
24
 energy: -38.556968592626 gnorm: 0.001343308287 xtb: 6.5.0 (97a52f5)
H            0.40043177599689        1.02100655547889        0.61024655623360
N            0.27564771219919        0.07030589468710        0.24663460043959
C            1.31911436105335       -0.85618431088938        0.30491439481503
C            1.70386396483042       -1.56246500831127       -0.83211263581266
C           -0.94473911092671       -0.17425558679620       -0.24584975874713
C            2.05331496759310       -0.99597697376822        1.48042247133584
C           -1.90040101659978        0.79898263407372       -0.28139668757096
N           -2.83362665192508        2.82208792033410        0.04357682755817
C           -3.26925081745658        0.76377175112314       -0.72070136050819
C           -1.65445957486931        2.15134102314187        0.21077262203384
C           -3.79076736522307        1.98850395306051       -0.51473909582243
C            3.11475356340204       -1.87920894372273        1.53103528675912
C            2.76251509480698       -2.44932433468147       -0.77041960251094
C            3.46755617391531       -2.61352987987290        0.41013991814387
H            1.77671860696816       -0.41467837579303        2.34731121173385
H            1.15874134088856       -1.42008633834360       -1.75366168066776
H           -2.97977057660647        3.78642622737398        0.29035154264292
O           -0.62107888182730        2.61652690011872        0.69206536946543
H            3.67246901071268       -1.99398879184471        2.44860092860703
H            3.04926775319855       -3.00147756945547       -1.65316976698129
H           -3.76489612853370       -0.08980483158517       -1.13825407942620
H           -4.77766161509015        2.35850403336122       -0.71586868119163
H            4.29673757503751       -3.30338171606510        0.45371848781100
H           -1.14872317154464       -1.18411425162405       -0.58233689833988
24
 energy: -38.556972728460 gnorm: 0.001188643220 xtb: 6.5.0 (97a52f5)
H            0.39888527412464        1.01731472667757        0.60969747225277
N            0.27376664845442        0.06682571618632        0.24610581540979
C            1.31719983345771       -0.85911622044726        0.30501758852935
C            1.70285250324404       -1.56553958884287       -0.83149439238705
C           -0.94684638944118       -0.17554740309584       -0.24634780976592
C            2.05203960418317       -0.99654537533627        1.48015205280002
C           -1.90048412107768        0.79926715916080       -0.28214978531732
N           -2.83256362932829        2.82274170963397        0.04440645631782
C           -3.26922717760799        0.76536362102114       -0.72177782701713
C           -1.65374099702583        2.15124633729657        0.21103435600219
C           -3.79007166731205        1.99010600855075       -0.51457379209038
C            3.11581952331996       -1.87701051400260        1.53080205311249
C            2.76380902436921       -2.44951889994937       -0.76995719272927
C            3.47037518152102       -2.61097637426456        0.41020811219173
H            1.77517831475098       -0.41635753201589        2.34769713246969
H            1.15734910007991       -1.42553820385142       -1.75321914096009
H           -2.97752608581729        3.78671787572531        0.29294447834820
O           -0.61997560454646        2.61537078993178        0.69235849662645
H            3.67302301589035       -1.99040475960993        2.44863048436731
H            3.05184379275299       -3.00063255810373       -1.65283394871337
H           -3.76691139249248       -0.08651759440075       -1.14018410590616
H           -4.77672980052276        2.36078768814144       -0.71520830688717
H            4.30140003640593       -3.29832733479563        0.45369889880315
H           -1.15370799738236       -1.18472929360958       -0.58372712545684
24
 energy: -38.556975060506 gnorm: 0.000683563478 xtb: 6.5.0 (97a52f5)
H            0.39860376150391        1.01518184512613        0.60964029718195
N            0.27272697807734        0.06505601672489        0.24551933728456
C            1.31622100140144       -0.86071503611611        0.30453784346659
C            1.70271413515609       -1.56712754824170       -0.83172804227247
C           -0.94805160517813       -0.17642081119512       -0.24719586024009
C            2.05101363312494       -0.99699509307417        1.47991459401478
C           -1.90108782284964        0.79919816482191       -0.28217160807878
N           -2.83183068310904        2.82321417500554        0.04491094698026
C           -3.26980105159023        0.76626196718939       -0.72181260305588
C           -1.65332567548269        2.15092722725925        0.21132352995565
C           -3.78994951770869        1.99132406455541       -0.51418559822510
C            3.11583206785932       -1.87625692927970        1.53107703985245
C            2.76514251024886       -2.44941405460067       -0.76982417650211
C            3.47174449953576       -2.60959327779601        0.41048265563552
H            1.77328238997848       -0.41676301271157        2.34717843003000
H            1.15675308461543       -1.42855565966801       -1.75342301034610
H           -2.97576039269471        3.78718094219833        0.29413382051158
O           -0.61916031381229        2.61426432392456        0.69259813916502
H            3.67335569595691       -1.98820027550698        2.44905086239860
H            3.05389445900280       -3.00054687701039       -1.65248260692604
H           -3.76826089853323       -0.08514443215696       -1.14037616220419
H           -4.77646252740212        2.36258518064361       -0.71472243048619
H            4.30414930116113       -3.29531011511183        0.45403787827453
H           -1.15598603926169       -1.18517080497983       -0.58520330641424
