
    -----------------------------------------------------------------------
          Psi4: An Open-Source Ab Initio Electronic Structure Package
                               Psi4 1.6 release

                         Git: Rev {HEAD} 77475b5 


    D. G. A. Smith, L. A. Burns, A. C. Simmonett, R. M. Parrish,
    M. C. Schieber, R. Galvelis, P. Kraus, H. Kruse, R. Di Remigio,
    A. Alenaizan, A. M. James, S. Lehtola, J. P. Misiewicz, M. Scheurer,
    R. A. Shaw, J. B. Schriber, Y. Xie, Z. L. Glick, D. A. Sirianni,
    J. S. O'Brien, J. M. Waldrop, A. Kumar, E. G. Hohenstein,
    B. P. Pritchard, B. R. Brooks, H. F. Schaefer III, A. Yu. Sokolov,
    K. Patkowski, A. E. DePrince III, U. Bozkaya, R. A. King,
    F. A. Evangelista, J. M. Turney, T. D. Crawford, C. D. Sherrill,
    J. Chem. Phys. 152(18) 184108 (2020). https://doi.org/10.1063/5.0006002

                            Additional Code Authors
    E. T. Seidl, C. L. Janssen, E. F. Valeev, M. L. Leininger,
    J. F. Gonthier, R. M. Richard, H. R. McAlexander, M. Saitow, X. Wang,
    P. Verma, M. H. Lechner, and A. Jiang

             Previous Authors, Complete List of Code Contributors,
                       and Citations for Specific Modules
    https://github.com/psi4/psi4/blob/master/codemeta.json
    https://github.com/psi4/psi4/graphs/contributors
    http://psicode.org/psi4manual/master/introduction.html#citing-psifour

    -----------------------------------------------------------------------


    Psi4 started on: Saturday, 18 November 2023 08:25AM

    Process ID: 1125653
    Host:       node165.bme.utexas.edu
    PSIDATADIR: /home/liuchw/anaconda3/envs/poltype2022/share/psi4
    Memory:     500.0 MiB
    Threads:    1
    
  ==> Input File <==

--------------------------------------------------------------------------
molecule { 
0 1
 C    2.150956    0.552798    0.683500
 N    1.103177   -0.265330    0.911290
 C   -0.108036   -0.080830    0.185016
 C   -0.124657   -0.319280   -1.182250
 C    1.096134   -1.232404    1.983060
 C   -1.272302    0.301422    0.837776
 C   -2.444967    0.452293    0.119745
 C   -2.461455    0.221520   -1.245444
 C   -1.299581   -0.159538   -1.894779
 H   -1.258958    0.494199    1.900205
 H    0.787592   -0.608632   -1.680511
 O    2.188140    1.443682   -0.127445
 H    2.118776   -1.424615    2.303373
 H    0.651669   -2.163813    1.628640
 H    0.521375   -0.878088    2.843060
 H   -3.347708    0.756402    0.628639
 H   -1.308281   -0.339222   -2.959400
 H   -3.378527    0.341895   -1.802405
 H    3.010337    0.306328    1.338516
}
memory 20GB
set_num_threads(5)
psi4_io.set_default_path("/scratch/liuchw/Psi4-3_24_Index_0-farH_in17")
set freeze_core True
E, wfn = energy('wb97x-d/6-311+G*',return_wfn=True)
oeprop(wfn,"WIBERG_LOWDIN_INDICES")
clean()
--------------------------------------------------------------------------

  Memory set to  18.626 GiB by Python driver.
  Threads set to 5 by Python driver.

Scratch directory: /scratch/liuchw/Psi4-3_24_Index_0-farH_in17/

*** tstart() called on node165.bme.utexas.edu
*** at Sat Nov 18 08:26:00 2023

   => Loading Basis Set <=

    Name: 6-311+G*
    Role: ORBITAL
    Keyword: BASIS
    atoms 1, 3-9       entry C          line   130 file /home/liuchw/anaconda3/envs/poltype2022/share/psi4/basis/6-311pgs.gbs 
    atoms 2            entry N          line   151 file /home/liuchw/anaconda3/envs/poltype2022/share/psi4/basis/6-311pgs.gbs 
    atoms 10-11, 13-19 entry H          line    47 file /home/liuchw/anaconda3/envs/poltype2022/share/psi4/basis/6-311pgs.gbs 
    atoms 12           entry O          line   172 file /home/liuchw/anaconda3/envs/poltype2022/share/psi4/basis/6-311pgs.gbs 

   => WB97X-D: Empirical Dispersion <=

    Chai and Head-Gordon Dispersion Correction
    Chai, J.-D.; Head-Gordon, M. (2010), J. Chem. Phys., 132: 6615-6620

        s6 =       1.000000


         ---------------------------------------------------------
                                   SCF
               by Justin Turney, Rob Parrish, Andy Simmonett
                          and Daniel G. A. Smith
                              RKS Reference
                        5 Threads,  19073 MiB Core
         ---------------------------------------------------------

  ==> Geometry <==

    Molecular point group: c1
    Full point group: C1

    Geometry (in Angstrom), charge = 0, multiplicity = 1:

       Center              X                  Y                   Z               Mass       
    ------------   -----------------  -----------------  -----------------  -----------------
         C            2.190498061817     0.459031803489     0.618385883295    12.000000000000
         N            1.142719061817    -0.359096196511     0.846175883295    14.003074004430
         C           -0.068493938183    -0.174596196511     0.119901883295    12.000000000000
         C           -0.085114938183    -0.413046196511    -1.247364116705    12.000000000000
         C            1.135676061817    -1.326170196511     1.917945883295    12.000000000000
         C           -1.232759938183     0.207655803489     0.772661883295    12.000000000000
         C           -2.405424938183     0.358526803489     0.054630883295    12.000000000000
         C           -2.421912938183     0.127753803489    -1.310558116705    12.000000000000
         C           -1.260038938183    -0.253304196511    -1.959893116705    12.000000000000
         H           -1.219415938183     0.400432803489     1.835090883295     1.007825032230
         H            0.827134061817    -0.702398196511    -1.745625116705     1.007825032230
         O            2.227682061817     1.349915803489    -0.192559116705    15.994914619570
         H            2.158318061817    -1.518381196511     2.238258883295     1.007825032230
         H            0.691211061817    -2.257579196511     1.563525883295     1.007825032230
         H            0.560917061817    -0.971854196511     2.777945883295     1.007825032230
         H           -3.308165938183     0.662635803489     0.563524883295     1.007825032230
         H           -1.268738938183    -0.432988196511    -3.024514116705     1.007825032230
         H           -3.338984938183     0.248128803489    -1.867519116705     1.007825032230
         H            3.049879061817     0.212561803489     1.273401883295     1.007825032230

  Running in c1 symmetry.

  Rotational constants: A =      0.08366  B =      0.03364  C =      0.02847 [cm^-1]
  Rotational constants: A =   2508.20029  B =   1008.64951  C =    853.61283 [MHz]
  Nuclear repulsion =  499.577664772034893

  Charge       = 0
  Multiplicity = 1
  Electrons    = 72
  Nalpha       = 36
  Nbeta        = 36

  ==> Algorithm <==

  SCF Algorithm Type is DF.
  DIIS enabled.
  MOM disabled.
  Fractional occupation disabled.
  Guess Type is SAD.
  Energy threshold   = 1.00e-06
  Density threshold  = 1.00e-06
  Integral threshold = 1.00e-12

  ==> Primary Basis <==

  Basis Set: 6-311+G*
    Blend: 6-311+G*
    Number of shells: 127
    Number of basis functions: 247
    Number of Cartesian functions: 257
    Spherical Harmonics?: true
    Max angular momentum: 2

  ==> DFT Potential <==

   => LibXC <=

    Version 5.1.5
    S. Lehtola, C. Steigemann, M. J. Oliveira, and M. A. Marques, SoftwareX 7, 1 (2018) (10.1016/j.softx.2017.11.002)

   => Composite Functional: WB97X-D <= 

    wB97X-D Hyb-GGA Exchange-Correlation Functional

    J.-D. Chai and M. Head-Gordon, Phys. Chem. Chem. Phys. 10, 6615 (2008) (10.1039/B810189B)

    Deriv               =              1
    GGA                 =           TRUE
    Meta                =          FALSE

    Exchange Hybrid     =           TRUE
    MP2 Hybrid          =          FALSE

   => Exchange-Correlation Functionals <=

    1.0000   wB97X-D range-separated functional

   => Exact (HF) Exchange <=

    0.7780            HF,LR [omega = 0.2000]
    0.2220               HF 

   => LibXC Density Thresholds  <==

    XC_HYB_GGA_XC_WB97X_D:  1.00E-14 

   => Molecular Quadrature <=

    Radial Scheme          =       TREUTLER
    Pruning Scheme         =           NONE
    Nuclear Scheme         =       TREUTLER

    Blocking Scheme        =         OCTREE
    BS radius alpha        =              1
    Pruning alpha          =              1
    Radial Points          =             75
    Spherical Points       =            302
    Total Points           =         401472
    Total Blocks           =           3003
    Max Points             =            256
    Max Functions          =            228
    Weights Tolerance      =       1.00E-15

   => Loading Basis Set <=

    Name: (6-311+G* AUX)
    Role: JKFIT
    Keyword: DF_BASIS_SCF
    atoms 1, 3-9       entry C          line   200 file /home/liuchw/anaconda3/envs/poltype2022/share/psi4/basis/heavy-aug-cc-pvtz-jkfit.gbs 
    atoms 2            entry N          line   262 file /home/liuchw/anaconda3/envs/poltype2022/share/psi4/basis/heavy-aug-cc-pvtz-jkfit.gbs 
    atoms 10-11, 13-19 entry H          line   116 file /home/liuchw/anaconda3/envs/poltype2022/share/psi4/basis/heavy-aug-cc-pvtz-jkfit.gbs 
    atoms 12           entry O          line   324 file /home/liuchw/anaconda3/envs/poltype2022/share/psi4/basis/heavy-aug-cc-pvtz-jkfit.gbs 

  ==> Integral Setup <==

  DFHelper Memory: AOs need 1.706 GiB; user supplied 11.962 GiB. Using in-core AOs.

  ==> MemDFJK: Density-Fitted J/K Matrices <==

    J tasked:                   Yes
    K tasked:                   Yes
    wK tasked:                  Yes
    Omega:                2.000E-01
    OpenMP threads:               5
    Memory [MiB]:             12249
    Algorithm:                 Core
    Schwarz Cutoff:           1E-12
    Mask sparsity (%):       6.0483
    Fitting Condition:        1E-10

   => Auxiliary Basis Set <=

  Basis Set: (6-311+G* AUX)
    Blend: HEAVY-AUG-CC-PVTZ-JKFIT
    Number of shells: 390
    Number of basis functions: 1310
    Number of Cartesian functions: 1625
    Spherical Harmonics?: true
    Max angular momentum: 4

  Cached 100.0% of DFT collocation blocks in 2.008 [GiB].

  Minimum eigenvalue in the overlap matrix is 1.9296314605E-06.
  Reciprocal condition number of the overlap matrix is 1.4055031433E-07.
    Using symmetric orthogonalization.

  ==> Pre-Iterations <==

  SCF Guess: Superposition of Atomic Densities via on-the-fly atomic UHF (no occupation information).

   -------------------------
    Irrep   Nso     Nmo    
   -------------------------
     A        247     247 
   -------------------------
    Total     247     247
   -------------------------

  ==> Iterations <==

                           Total Energy        Delta E     RMS |[F,P]|

   @DF-RKS iter SAD:  -439.66587210919437   -4.39666e+02   0.00000e+00 
   @DF-RKS iter   1:  -439.74077068258839   -7.48986e-02   3.94554e-03 DIIS/ADIIS
   @DF-RKS iter   2:  -439.87116420646487   -1.30394e-01   3.64104e-03 DIIS/ADIIS
   @DF-RKS iter   3:  -440.18292752084699   -3.11763e-01   8.44049e-04 DIIS/ADIIS
   @DF-RKS iter   4:  -440.19746402479171   -1.45365e-02   2.19163e-04 DIIS/ADIIS
   @DF-RKS iter   5:  -440.19856385820151   -1.09983e-03   6.78386e-05 DIIS
   @DF-RKS iter   6:  -440.19867551941866   -1.11661e-04   2.12571e-05 DIIS
   @DF-RKS iter   7:  -440.19868743543782   -1.19160e-05   4.53011e-06 DIIS
   @DF-RKS iter   8:  -440.19868821674368   -7.81306e-07   1.83369e-06 DIIS
   @DF-RKS iter   9:  -440.19868836849537   -1.51752e-07   5.63225e-07 DIIS
  Energy and wave function converged.


  ==> Post-Iterations <==

   Electrons on quadrature grid:
      Ntotal   =   71.9999856275 ; deviation = -1.437e-05 

    Orbital Energies [Eh]
    ---------------------

    Doubly Occupied:                                                      

       1A    -19.215310     2A    -14.475905     3A    -10.384302  
       4A    -10.334071     5A    -10.331494     6A    -10.297353  
       7A    -10.295501     8A    -10.293981     9A    -10.293282  
      10A    -10.292746    11A     -1.152098    12A     -1.064747  
      13A     -0.968434    14A     -0.864667    15A     -0.861655  
      16A     -0.820448    17A     -0.748574    18A     -0.716646  
      19A     -0.671907    20A     -0.615463    21A     -0.610087  
      22A     -0.577852    23A     -0.572609    24A     -0.542497  
      25A     -0.535732    26A     -0.518982    27A     -0.507816  
      28A     -0.499364    29A     -0.482480    30A     -0.467186  
      31A     -0.450625    32A     -0.441264    33A     -0.360039  
      34A     -0.349359    35A     -0.338018    36A     -0.319973  

    Virtual:                                                              

      37A      0.044549    38A      0.049011    39A      0.055092  
      40A      0.067947    41A      0.072340    42A      0.082963  
      43A      0.086739    44A      0.089587    45A      0.100442  
      46A      0.108378    47A      0.115265    48A      0.119735  
      49A      0.124690    50A      0.133050    51A      0.145966  
      52A      0.151336    53A      0.154852    54A      0.164375  
      55A      0.174606    56A      0.176232    57A      0.188528  
      58A      0.192121    59A      0.196441    60A      0.208298  
      61A      0.213021    62A      0.220965    63A      0.221829  
      64A      0.222945    65A      0.225046    66A      0.243900  
      67A      0.244568    68A      0.251178    69A      0.260829  
      70A      0.263351    71A      0.267387    72A      0.277294  
      73A      0.282801    74A      0.284937    75A      0.287396  
      76A      0.292194    77A      0.299194    78A      0.302676  
      79A      0.310627    80A      0.315469    81A      0.323187  
      82A      0.332294    83A      0.341081    84A      0.350498  
      85A      0.365964    86A      0.372755    87A      0.390046  
      88A      0.391070    89A      0.401131    90A      0.408391  
      91A      0.412790    92A      0.424500    93A      0.434640  
      94A      0.453346    95A      0.474413    96A      0.493474  
      97A      0.516737    98A      0.532600    99A      0.544999  
     100A      0.558127   101A      0.585785   102A      0.595563  
     103A      0.604797   104A      0.614571   105A      0.623097  
     106A      0.626532   107A      0.656251   108A      0.658535  
     109A      0.676480   110A      0.683581   111A      0.693272  
     112A      0.696838   113A      0.706180   114A      0.723672  
     115A      0.743625   116A      0.748547   117A      0.765763  
     118A      0.772941   119A      0.777971   120A      0.782649  
     121A      0.791942   122A      0.800937   123A      0.808943  
     124A      0.819203   125A      0.827081   126A      0.862582  
     127A      0.877283   128A      0.914976   129A      0.920287  
     130A      0.933356   131A      0.943125   132A      0.946406  
     133A      0.961357   134A      0.982675   135A      0.993780  
     136A      0.998426   137A      1.013647   138A      1.051535  
     139A      1.081052   140A      1.108953   141A      1.125263  
     142A      1.145299   143A      1.210043   144A      1.212014  
     145A      1.241587   146A      1.262253   147A      1.274124  
     148A      1.280559   149A      1.307160   150A      1.329210  
     151A      1.341833   152A      1.372275   153A      1.406891  
     154A      1.468022   155A      1.480133   156A      1.515903  
     157A      1.584501   158A      1.605002   159A      1.615679  
     160A      1.645104   161A      1.654223   162A      1.676554  
     163A      1.718651   164A      1.725634   165A      1.750739  
     166A      1.769510   167A      1.818709   168A      1.851436  
     169A      1.862054   170A      1.876635   171A      1.894278  
     172A      1.921055   173A      1.929916   174A      1.972475  
     175A      2.013526   176A      2.025689   177A      2.050618  
     178A      2.083384   179A      2.107383   180A      2.128735  
     181A      2.202695   182A      2.240931   183A      2.316327  
     184A      2.366925   185A      2.383939   186A      2.395593  
     187A      2.439070   188A      2.484081   189A      2.495270  
     190A      2.509630   191A      2.528362   192A      2.576006  
     193A      2.610696   194A      2.635742   195A      2.681324  
     196A      2.736392   197A      2.758868   198A      2.779990  
     199A      2.823678   200A      2.856993   201A      2.877290  
     202A      2.917211   203A      2.948079   204A      2.960041  
     205A      3.000553   206A      3.003193   207A      3.034161  
     208A      3.056249   209A      3.105077   210A      3.179863  
     211A      3.253704   212A      3.271317   213A      3.307436  
     214A      3.406034   215A      3.411464   216A      3.424913  
     217A      3.431003   218A      3.446700   219A      3.472195  
     220A      3.485987   221A      3.497294   222A      3.594175  
     223A      3.637991   224A      3.697313   225A      3.739599  
     226A      3.771772   227A      3.905260   228A      4.015258  
     229A      4.061986   230A      4.126413   231A      4.159343  
     232A      4.890399   233A      4.911713   234A      5.062253  
     235A      5.179628   236A      5.298929   237A      5.868352  
     238A     23.482444   239A     23.700509   240A     23.991530  
     241A     24.001378   242A     24.021126   243A     24.193951  
     244A     24.206972   245A     24.314395   246A     35.692517  
     247A     50.140873  

    Final Occupation by Irrep:
              A 
    DOCC [    36 ]

  @DF-RKS Final Energy:  -440.19868836849537

   => Energetics <=

    Nuclear Repulsion Energy =            499.5776647720348933
    One-Electron Energy =               -1585.8404714039663759
    Two-Electron Energy =                 689.0222951649507195
    DFT Exchange-Correlation Energy =     -42.9478984185147468
    Empirical Dispersion Energy =          -0.0102784829998920
    VV10 Nonlocal Energy =                  0.0000000000000000
    Total Energy =                       -440.1986883684953114

Computation Completed


Properties will be evaluated at   0.000000,   0.000000,   0.000000 [a0]

Properties computed using the SCF density matrix


 Multipole Moments:

 ------------------------------------------------------------------------------------
     Multipole            Electronic (a.u.)      Nuclear  (a.u.)        Total (a.u.)
 ------------------------------------------------------------------------------------

 L = 1.  Multiply by 2.5417464519 to convert [e a0] to [Debye]
 Dipole X            :          1.1360787           -1.7249147           -0.5888360
 Dipole Y            :          2.8971085           -4.0793143           -1.1822058
 Dipole Z            :         -2.5615158            3.3847160            0.8232003
 Magnitude           :                                                    1.5562766

 ------------------------------------------------------------------------------------

*** tstop() called on node165.bme.utexas.edu at Sat Nov 18 08:26:21 2023
Module time:
	user time   =      69.25 seconds =       1.15 minutes
	system time =       4.60 seconds =       0.08 minutes
	total time  =         21 seconds =       0.35 minutes
Total time:
	user time   =      69.25 seconds =       1.15 minutes
	system time =       4.60 seconds =       0.08 minutes
	total time  =         21 seconds =       0.35 minutes


Properties will be evaluated at   0.000000,   0.000000,   0.000000 [a0]
OEProp: No title given, name of density matrix used for the following properties is 'SCF density'


  Wiberg Bond Indices using Orthogonal Lowdin Orbitals:

  Irrep: 1 Size: 19 x 19

                 1                   2                   3                   4                   5

    1     0.00000000000000     1.42820788779745     0.11313679435534     0.04230514090475     0.13121205668680
    2     1.42820788779745     0.00000000000000     1.09521493747719     0.12112455092873     1.17605933771116
    3     0.11313679435534     1.09521493747719     0.00000000000000     1.41343301033934     0.11081261644599
    4     0.04230514090475     0.12112455092873     1.41343301033934     0.00000000000000     0.02628467394905
    5     0.13121205668680     1.17605933771116     0.11081261644599     0.02628467394905     0.00000000000000
    6     0.03009322621071     0.11693122882789     1.42080750180449     0.13029986711062     0.04746762965691
    7     0.00399920959070     0.01558238654645     0.13867831128367     0.14511311395640     0.00513321292898
    8     0.00553398710952     0.00996580479769     0.13890826759071     0.14052281515349     0.00451081415053
    9     0.00490327640761     0.01574752274432     0.13850940994860     1.52087980657299     0.00357670993907
   10     0.00297627875926     0.01651280260837     0.05654059577713     0.00941317051312     0.01032044767479
   11     0.00805563513817     0.01724067380771     0.05613855929923     0.80763127149421     0.00228063847797
   12     2.30758950420817     0.26347854896761     0.06012574781692     0.03992158582973     0.03222003584034
   13     0.02332038108698     0.04867230883575     0.01051951601380     0.00134210555947     0.88596355832582
   14     0.01193797525415     0.05001698741589     0.01674328878821     0.00360107349935     0.88205678171220
   15     0.01543192387644     0.05165243116304     0.01070477633435     0.00122527086845     0.88434313069356
   16     0.00043406243418     0.00090970034051     0.01081915788103     0.00249028148647     0.00024347639028
   17     0.00029344187563     0.00086403560897     0.01084750319998     0.06098650475598     0.00032606200887
   18     0.00006181225980     0.00022216271177     0.00302220343720     0.01134404858726     0.00008222712210
   19     0.78600151178816     0.07054562629744     0.01525606618870     0.00396606913788     0.02499590126664

                 6                   7                   8                   9                  10

    1     0.03009322621071     0.00399920959070     0.00553398710952     0.00490327640761     0.00297627875926
    2     0.11693122882789     0.01558238654645     0.00996580479769     0.01574752274432     0.01651280260837
    3     1.42080750180449     0.13867831128367     0.13890826759071     0.13850940994860     0.05654059577713
    4     0.13029986711062     0.14511311395640     0.14052281515349     1.52087980657299     0.00941317051312
    5     0.04746762965691     0.00513321292898     0.00451081415053     0.00357670993907     0.01032044767479
    6     0.00000000000000     1.51960986228687     0.14005664922401     0.14459269848023     0.81111399837186
    7     1.51960986228687     0.00000000000000     1.52126777482487     0.13963131367630     0.05647711289924
    8     0.14005664922401     1.52126777482487     0.00000000000000     1.51891166417533     0.01079835154578
    9     0.14459269848023     0.13963131367630     1.51891166417533     0.00000000000000     0.00242504348755
   10     0.81111399837186     0.05647711289924     0.01079835154578     0.00242504348755     0.00000000000000
   11     0.00925495205595     0.00242176689491     0.01071621588517     0.05609233064132     0.00038068448143
   12     0.01426559917409     0.00295187697877     0.00309760327394     0.00655462883592     0.00026558438305
   13     0.00213209822249     0.00030810045440     0.00053699457062     0.00034235962909     0.00012513027620
   14     0.00577680249826     0.00049230100445     0.00040042499209     0.00034213689653     0.00032701669905
   15     0.00922327156146     0.00087977445882     0.00041313641896     0.00028364357490     0.00122597332561
   16     0.06114071324909     0.83176069031578     0.05967130717003     0.01140981424137     0.00544232053350
   17     0.00249042600996     0.01142342755831     0.05976395847221     0.83158158497796     0.00024916955407
   18     0.01135464899445     0.05992800852461     0.83351624626977     0.05973736703520     0.00021277332123
   19     0.00227861368801     0.00052905976831     0.00036132114504     0.00063074603530     0.00005405657455

                11                  12                  13                  14                  15

    1     0.00805563513817     2.30758950420817     0.02332038108698     0.01193797525415     0.01543192387644
    2     0.01724067380771     0.26347854896761     0.04867230883575     0.05001698741589     0.05165243116304
    3     0.05613855929923     0.06012574781692     0.01051951601380     0.01674328878821     0.01070477633435
    4     0.80763127149421     0.03992158582973     0.00134210555947     0.00360107349935     0.00122527086845
    5     0.00228063847797     0.03222003584034     0.88596355832582     0.88205678171220     0.88434313069356
    6     0.00925495205595     0.01426559917409     0.00213209822249     0.00577680249826     0.00922327156146
    7     0.00242176689491     0.00295187697877     0.00030810045440     0.00049230100445     0.00087977445882
    8     0.01071621588517     0.00309760327394     0.00053699457062     0.00040042499209     0.00041313641896
    9     0.05609233064132     0.00655462883592     0.00034235962909     0.00034213689653     0.00028364357490
   10     0.00038068448143     0.00026558438305     0.00012513027620     0.00032701669905     0.00122597332561
   11     0.00000000000000     0.00496062355231     0.00000839138386     0.00008088403555     0.00009309818391
   12     0.00496062355231     0.00000000000000     0.00267422285976     0.00331309158529     0.00468565880136
   13     0.00000839138386     0.00267422285976     0.00000000000000     0.00949254335698     0.00852947029613
   14     0.00008088403555     0.00331309158529     0.00949254335698     0.00000000000000     0.00733861593788
   15     0.00009309818391     0.00468565880136     0.00852947029613     0.00733861593788     0.00000000000000
   16     0.00023470492930     0.00011752495361     0.00001035268754     0.00000641829352     0.00004589427904
   17     0.00531933661630     0.00016559101093     0.00000825788163     0.00004353314301     0.00001587974629
   18     0.00022625321982     0.00003632346547     0.00000724680259     0.00000938266616     0.00002668291246
   19     0.00024418935238     0.08322826429781     0.00434892290335     0.00021108134410     0.00013324163477

                16                  17                  18                  19

    1     0.00043406243418     0.00029344187563     0.00006181225980     0.78600151178816
    2     0.00090970034051     0.00086403560897     0.00022216271177     0.07054562629744
    3     0.01081915788103     0.01084750319998     0.00302220343720     0.01525606618870
    4     0.00249028148647     0.06098650475598     0.01134404858726     0.00396606913788
    5     0.00024347639028     0.00032606200887     0.00008222712210     0.02499590126664
    6     0.06114071324909     0.00249042600996     0.01135464899445     0.00227861368801
    7     0.83176069031578     0.01142342755831     0.05992800852461     0.00052905976831
    8     0.05967130717003     0.05976395847221     0.83351624626977     0.00036132114504
    9     0.01140981424137     0.83158158497796     0.05973736703520     0.00063074603530
   10     0.00544232053350     0.00024916955407     0.00021277332123     0.00005405657455
   11     0.00023470492930     0.00531933661630     0.00022625321982     0.00024418935238
   12     0.00011752495361     0.00016559101093     0.00003632346547     0.08322826429781
   13     0.00001035268754     0.00000825788163     0.00000724680259     0.00434892290335
   14     0.00000641829352     0.00004353314301     0.00000938266616     0.00021108134410
   15     0.00004589427904     0.00001587974629     0.00002668291246     0.00013324163477
   16     0.00000000000000     0.00025851349830     0.00540096425777     0.00001833112094
   17     0.00025851349830     0.00000000000000     0.00539394844848     0.00000528126209
   18     0.00540096425777     0.00539394844848     0.00000000000000     0.00002214260777
   19     0.00001833112094     0.00000528126209     0.00002214260777     0.00000000000000



  Atomic Valences: 

 #  #
 Irrep: 1
      1:    4.915494105743820
      2:    4.498948934587958
      3:    4.820218263981864
      4:    4.481884360647279
      5:    4.227889310981056
      6:    4.478889787427372
      7:    4.456187303951849
      8:    4.458953336769756
      9:    4.456152057299608
     10:    0.984860510785802
     11:    0.981380209449483
     12:    2.829652015835098
     13:    0.998341961146471
     14:    0.992190339122678
     15:    0.996251874067434
     16:    0.990414228062288
     17:    0.990036455628966
     18:    0.990604442643930
     19:    0.992830426413225


    Psi4 stopped on: Saturday, 18 November 2023 08:26AM
    Psi4 wall time for execution: 0:00:22.09

*** Psi4 exiting successfully. Buy a developer a beer!
