19
 energy: -28.697515140493 gnorm: 0.000698987274 xtb: 6.5.0 (97a52f5)
C            2.06306261429551       -1.16856157232118        0.40450029941541
N            1.06846742304524       -0.43399052118179        0.93481820252833
C           -0.12720275913583       -0.21086055761698        0.18428915430164
C           -0.17534072388012        0.80394708423508       -0.75942380712729
C            1.17233600738921        0.23666791036042        2.20773991595535
C           -1.24150556604824       -1.00333306043657        0.41699288992091
C           -2.40365670299593       -0.78021939915168       -0.29980155423357
C           -2.45420977647937        0.23140433424891       -1.24401819106992
C           -1.34002831002495        1.02007572681951       -1.47490515776123
H           -1.18873170799199       -1.79639470254014        1.14818749459799
H            0.70212286249670        1.40663016955343       -0.94023373075481
O            2.03814589720019       -1.70993918883907       -0.67270622897665
H            1.98371162203093       -0.19940286649737        2.78820332235805
H            0.23614575955452        0.12866312789829        2.75764718278116
H            1.36742156963642        1.30529039453745        2.07155116801439
H           -3.26998542445326       -1.40022337060859       -0.12339830358624
H           -1.37657698937781        1.80545107560083       -2.21504317311886
H           -3.36163738805593        0.40201873930083       -1.80369173914820
H            2.93114558279470       -1.23843933336136        1.08987825590360
