
    -----------------------------------------------------------------------
          Psi4: An Open-Source Ab Initio Electronic Structure Package
                               Psi4 1.6 release

                         Git: Rev {HEAD} 77475b5 


    D. G. A. Smith, L. A. Burns, A. C. Simmonett, R. M. Parrish,
    M. C. Schieber, R. Galvelis, P. Kraus, H. Kruse, R. Di Remigio,
    A. Alenaizan, A. M. James, S. Lehtola, J. P. Misiewicz, M. Scheurer,
    R. A. Shaw, J. B. Schriber, Y. Xie, Z. L. Glick, D. A. Sirianni,
    J. S. O'Brien, J. M. Waldrop, A. Kumar, E. G. Hohenstein,
    B. P. Pritchard, B. R. Brooks, H. F. Schaefer III, A. Yu. Sokolov,
    K. Patkowski, A. E. DePrince III, U. Bozkaya, R. A. King,
    F. A. Evangelista, J. M. Turney, T. D. Crawford, C. D. Sherrill,
    J. Chem. Phys. 152(18) 184108 (2020). https://doi.org/10.1063/5.0006002

                            Additional Code Authors
    E. T. Seidl, C. L. Janssen, E. F. Valeev, M. L. Leininger,
    J. F. Gonthier, R. M. Richard, H. R. McAlexander, M. Saitow, X. Wang,
    P. Verma, M. H. Lechner, and A. Jiang

             Previous Authors, Complete List of Code Contributors,
                       and Citations for Specific Modules
    https://github.com/psi4/psi4/blob/master/codemeta.json
    https://github.com/psi4/psi4/graphs/contributors
    http://psicode.org/psi4manual/master/introduction.html#citing-psifour

    -----------------------------------------------------------------------


    Psi4 started on: Saturday, 18 November 2023 08:30AM

    Process ID: 1127764
    Host:       node165.bme.utexas.edu
    PSIDATADIR: /home/liuchw/anaconda3/envs/poltype2022/share/psi4
    Memory:     500.0 MiB
    Threads:    1
    
  ==> Input File <==

--------------------------------------------------------------------------
molecule { 
0 1
 C    2.280058    0.142530    0.413007
 N    1.096362   -0.344355    0.857446
 C   -0.116088   -0.128361    0.163782
 C   -0.141533   -0.130154   -1.227772
 C    1.063558   -0.995985    2.151822
 C   -1.295281    0.111716    0.865163
 C   -2.480269    0.320504    0.183553
 C   -2.504870    0.306194   -1.200129
 C   -1.330676    0.086181   -1.899383
 H   -1.292565    0.155444    1.943762
 H    0.767055   -0.300272   -1.780163
 O    2.479737    0.767065   -0.597767
 H    1.165413   -0.279778    2.970645
 H    1.869865   -1.728807    2.212399
 H    0.123028   -1.531875    2.261354
 H   -3.387420    0.503717    0.740585
 H   -1.337625    0.079052   -2.979027
 H   -3.431753    0.470830   -1.728478
 H    3.096686   -0.104858    1.119788
}
memory 20GB
set_num_threads(5)
psi4_io.set_default_path("/scratch/liuchw/Psi4-3_24_Index_0-farH_in17")
set freeze_core True
E, wfn = energy('wb97x-d/6-311+G*',return_wfn=True)
oeprop(wfn,"WIBERG_LOWDIN_INDICES")
clean()
--------------------------------------------------------------------------

  Memory set to  18.626 GiB by Python driver.
  Threads set to 5 by Python driver.

Scratch directory: /scratch/liuchw/Psi4-3_24_Index_0-farH_in17/

*** tstart() called on node165.bme.utexas.edu
*** at Sat Nov 18 08:31:00 2023

   => Loading Basis Set <=

    Name: 6-311+G*
    Role: ORBITAL
    Keyword: BASIS
    atoms 1, 3-9       entry C          line   130 file /home/liuchw/anaconda3/envs/poltype2022/share/psi4/basis/6-311pgs.gbs 
    atoms 2            entry N          line   151 file /home/liuchw/anaconda3/envs/poltype2022/share/psi4/basis/6-311pgs.gbs 
    atoms 10-11, 13-19 entry H          line    47 file /home/liuchw/anaconda3/envs/poltype2022/share/psi4/basis/6-311pgs.gbs 
    atoms 12           entry O          line   172 file /home/liuchw/anaconda3/envs/poltype2022/share/psi4/basis/6-311pgs.gbs 

   => WB97X-D: Empirical Dispersion <=

    Chai and Head-Gordon Dispersion Correction
    Chai, J.-D.; Head-Gordon, M. (2010), J. Chem. Phys., 132: 6615-6620

        s6 =       1.000000


         ---------------------------------------------------------
                                   SCF
               by Justin Turney, Rob Parrish, Andy Simmonett
                          and Daniel G. A. Smith
                              RKS Reference
                        5 Threads,  19073 MiB Core
         ---------------------------------------------------------

  ==> Geometry <==

    Molecular point group: c1
    Full point group: C1

    Geometry (in Angstrom), charge = 0, multiplicity = 1:

       Center              X                  Y                   Z               Mass       
    ------------   -----------------  -----------------  -----------------  -----------------
         C            2.292880405773     0.133344654371     0.408236953704    12.000000000000
         N            1.109184405773    -0.353540345629     0.852675953704    14.003074004430
         C           -0.103265594227    -0.137546345629     0.159011953704    12.000000000000
         C           -0.128710594227    -0.139339345629    -1.232542046296    12.000000000000
         C            1.076380405773    -1.005170345629     2.147051953704    12.000000000000
         C           -1.282458594227     0.102530654371     0.860392953704    12.000000000000
         C           -2.467446594227     0.311318654371     0.178782953704    12.000000000000
         C           -2.492047594227     0.297008654371    -1.204899046296    12.000000000000
         C           -1.317853594227     0.076995654371    -1.904153046296    12.000000000000
         H           -1.279742594227     0.146258654371     1.938991953704     1.007825032230
         H            0.779877405773    -0.309457345629    -1.784933046296     1.007825032230
         O            2.492559405773     0.757879654371    -0.602537046296    15.994914619570
         H            1.178235405773    -0.288963345629     2.965874953704     1.007825032230
         H            1.882687405773    -1.737992345629     2.207628953704     1.007825032230
         H            0.135850405773    -1.541060345629     2.256583953704     1.007825032230
         H           -3.374597594227     0.494531654371     0.735814953704     1.007825032230
         H           -1.324802594227     0.069866654371    -2.983797046296     1.007825032230
         H           -3.418930594227     0.461644654371    -1.733248046296     1.007825032230
         H            3.109508405773    -0.114043345629     1.115017953704     1.007825032230

  Running in c1 symmetry.

  Rotational constants: A =      0.08488  B =      0.03519  C =      0.02640 [cm^-1]
  Rotational constants: A =   2544.64710  B =   1054.88756  C =    791.43843 [MHz]
  Nuclear repulsion =  499.515694366352704

  Charge       = 0
  Multiplicity = 1
  Electrons    = 72
  Nalpha       = 36
  Nbeta        = 36

  ==> Algorithm <==

  SCF Algorithm Type is DF.
  DIIS enabled.
  MOM disabled.
  Fractional occupation disabled.
  Guess Type is SAD.
  Energy threshold   = 1.00e-06
  Density threshold  = 1.00e-06
  Integral threshold = 1.00e-12

  ==> Primary Basis <==

  Basis Set: 6-311+G*
    Blend: 6-311+G*
    Number of shells: 127
    Number of basis functions: 247
    Number of Cartesian functions: 257
    Spherical Harmonics?: true
    Max angular momentum: 2

  ==> DFT Potential <==

   => LibXC <=

    Version 5.1.5
    S. Lehtola, C. Steigemann, M. J. Oliveira, and M. A. Marques, SoftwareX 7, 1 (2018) (10.1016/j.softx.2017.11.002)

   => Composite Functional: WB97X-D <= 

    wB97X-D Hyb-GGA Exchange-Correlation Functional

    J.-D. Chai and M. Head-Gordon, Phys. Chem. Chem. Phys. 10, 6615 (2008) (10.1039/B810189B)

    Deriv               =              1
    GGA                 =           TRUE
    Meta                =          FALSE

    Exchange Hybrid     =           TRUE
    MP2 Hybrid          =          FALSE

   => Exchange-Correlation Functionals <=

    1.0000   wB97X-D range-separated functional

   => Exact (HF) Exchange <=

    0.7780            HF,LR [omega = 0.2000]
    0.2220               HF 

   => LibXC Density Thresholds  <==

    XC_HYB_GGA_XC_WB97X_D:  1.00E-14 

   => Molecular Quadrature <=

    Radial Scheme          =       TREUTLER
    Pruning Scheme         =           NONE
    Nuclear Scheme         =       TREUTLER

    Blocking Scheme        =         OCTREE
    BS radius alpha        =              1
    Pruning alpha          =              1
    Radial Points          =             75
    Spherical Points       =            302
    Total Points           =         400907
    Total Blocks           =           2977
    Max Points             =            256
    Max Functions          =            228
    Weights Tolerance      =       1.00E-15

   => Loading Basis Set <=

    Name: (6-311+G* AUX)
    Role: JKFIT
    Keyword: DF_BASIS_SCF
    atoms 1, 3-9       entry C          line   200 file /home/liuchw/anaconda3/envs/poltype2022/share/psi4/basis/heavy-aug-cc-pvtz-jkfit.gbs 
    atoms 2            entry N          line   262 file /home/liuchw/anaconda3/envs/poltype2022/share/psi4/basis/heavy-aug-cc-pvtz-jkfit.gbs 
    atoms 10-11, 13-19 entry H          line   116 file /home/liuchw/anaconda3/envs/poltype2022/share/psi4/basis/heavy-aug-cc-pvtz-jkfit.gbs 
    atoms 12           entry O          line   324 file /home/liuchw/anaconda3/envs/poltype2022/share/psi4/basis/heavy-aug-cc-pvtz-jkfit.gbs 

  ==> Integral Setup <==

  DFHelper Memory: AOs need 1.701 GiB; user supplied 11.961 GiB. Using in-core AOs.

  ==> MemDFJK: Density-Fitted J/K Matrices <==

    J tasked:                   Yes
    K tasked:                   Yes
    wK tasked:                  Yes
    Omega:                2.000E-01
    OpenMP threads:               5
    Memory [MiB]:             12247
    Algorithm:                 Core
    Schwarz Cutoff:           1E-12
    Mask sparsity (%):       6.3335
    Fitting Condition:        1E-10

   => Auxiliary Basis Set <=

  Basis Set: (6-311+G* AUX)
    Blend: HEAVY-AUG-CC-PVTZ-JKFIT
    Number of shells: 390
    Number of basis functions: 1310
    Number of Cartesian functions: 1625
    Spherical Harmonics?: true
    Max angular momentum: 4

  Cached 100.0% of DFT collocation blocks in 2.009 [GiB].

  Minimum eigenvalue in the overlap matrix is 2.2515979676E-06.
  Reciprocal condition number of the overlap matrix is 1.6439207279E-07.
    Using symmetric orthogonalization.

  ==> Pre-Iterations <==

  SCF Guess: Superposition of Atomic Densities via on-the-fly atomic UHF (no occupation information).

   -------------------------
    Irrep   Nso     Nmo    
   -------------------------
     A        247     247 
   -------------------------
    Total     247     247
   -------------------------

  ==> Iterations <==

                           Total Energy        Delta E     RMS |[F,P]|

   @DF-RKS iter SAD:  -439.71505773377072   -4.39715e+02   0.00000e+00 
   @DF-RKS iter   1:  -439.74421795137596   -2.91602e-02   3.91970e-03 ADIIS/DIIS
   @DF-RKS iter   2:  -439.88360764364353   -1.39390e-01   3.55643e-03 ADIIS/DIIS
   @DF-RKS iter   3:  -440.18281589005608   -2.99208e-01   8.25256e-04 ADIIS/DIIS
   @DF-RKS iter   4:  -440.19669344560685   -1.38776e-02   2.23057e-04 ADIIS/DIIS
   @DF-RKS iter   5:  -440.19785417432604   -1.16073e-03   6.28180e-05 DIIS
   @DF-RKS iter   6:  -440.19795159033475   -9.74160e-05   2.06896e-05 DIIS
   @DF-RKS iter   7:  -440.19796268074333   -1.10904e-05   4.44918e-06 DIIS
   @DF-RKS iter   8:  -440.19796348243023   -8.01687e-07   1.88480e-06 DIIS
   @DF-RKS iter   9:  -440.19796364978413   -1.67354e-07   5.54670e-07 DIIS
  Energy and wave function converged.


  ==> Post-Iterations <==

   Electrons on quadrature grid:
      Ntotal   =   72.0000509006 ; deviation = 5.090e-05 

    Orbital Energies [Eh]
    ---------------------

    Doubly Occupied:                                                      

       1A    -19.223206     2A    -14.483228     3A    -10.389901  
       4A    -10.337422     5A    -10.333651     6A    -10.294855  
       7A    -10.292975     8A    -10.289840     9A    -10.287474  
      10A    -10.286806    11A     -1.158393    12A     -1.070957  
      13A     -0.966040    14A     -0.865504    15A     -0.859593  
      16A     -0.821843    17A     -0.751754    18A     -0.711892  
      19A     -0.671932    20A     -0.616542    21A     -0.608861  
      22A     -0.577092    23A     -0.575248    24A     -0.545469  
      25A     -0.536940    26A     -0.516253    27A     -0.509376  
      28A     -0.500369    29A     -0.488877    30A     -0.466286  
      31A     -0.450759    32A     -0.437584    33A     -0.380277  
      34A     -0.353332    35A     -0.335111    36A     -0.306141  

    Virtual:                                                              

      37A      0.041570    38A      0.052261    39A      0.056028  
      40A      0.068518    41A      0.076066    42A      0.081232  
      43A      0.089597    44A      0.092513    45A      0.097451  
      46A      0.107699    47A      0.118748    48A      0.122339  
      49A      0.124959    50A      0.131201    51A      0.146543  
      52A      0.150230    53A      0.158313    54A      0.160584  
      55A      0.174057    56A      0.177400    57A      0.191240  
      58A      0.197949    59A      0.200268    60A      0.210046  
      61A      0.212316    62A      0.218662    63A      0.222613  
      64A      0.230010    65A      0.232850    66A      0.247569  
      67A      0.248621    68A      0.255518    69A      0.256782  
      70A      0.261401    71A      0.268104    72A      0.271784  
      73A      0.280123    74A      0.283047    75A      0.286960  
      76A      0.294074    77A      0.297838    78A      0.305860  
      79A      0.306564    80A      0.311314    81A      0.316433  
      82A      0.332315    83A      0.343666    84A      0.347807  
      85A      0.353872    86A      0.364393    87A      0.384667  
      88A      0.391141    89A      0.393864    90A      0.407688  
      91A      0.414681    92A      0.417809    93A      0.430028  
      94A      0.433402    95A      0.463172    96A      0.488727  
      97A      0.512994    98A      0.535464    99A      0.557886  
     100A      0.567395   101A      0.596938   102A      0.598069  
     103A      0.606877   104A      0.616717   105A      0.622784  
     106A      0.626124   107A      0.643132   108A      0.657572  
     109A      0.674303   110A      0.685940   111A      0.693147  
     112A      0.699930   113A      0.714652   114A      0.729928  
     115A      0.733599   116A      0.743303   117A      0.759430  
     118A      0.778204   119A      0.782405   120A      0.789562  
     121A      0.799712   122A      0.805126   123A      0.824139  
     124A      0.832052   125A      0.847498   126A      0.862234  
     127A      0.885988   128A      0.916153   129A      0.920554  
     130A      0.939529   131A      0.947623   132A      0.961827  
     133A      0.963681   134A      0.967523   135A      0.981947  
     136A      1.003853   137A      1.028341   138A      1.052124  
     139A      1.072409   140A      1.106257   141A      1.131910  
     142A      1.144354   143A      1.187690   144A      1.218457  
     145A      1.244721   146A      1.257081   147A      1.273932  
     148A      1.287172   149A      1.304294   150A      1.326535  
     151A      1.348401   152A      1.367368   153A      1.419282  
     154A      1.451351   155A      1.472690   156A      1.506590  
     157A      1.581996   158A      1.608367   159A      1.626474  
     160A      1.657496   161A      1.667215   162A      1.676076  
     163A      1.690148   164A      1.711262   165A      1.732752  
     166A      1.772669   167A      1.829069   168A      1.853054  
     169A      1.863159   170A      1.875602   171A      1.889683  
     172A      1.904803   173A      1.933124   174A      1.950500  
     175A      2.019339   176A      2.027911   177A      2.047006  
     178A      2.090642   179A      2.107225   180A      2.117522  
     181A      2.236064   182A      2.249865   183A      2.301810  
     184A      2.373181   185A      2.390069   186A      2.390678  
     187A      2.433700   188A      2.483338   189A      2.493698  
     190A      2.503294   191A      2.519509   192A      2.566863  
     193A      2.605045   194A      2.640452   195A      2.669207  
     196A      2.685954   197A      2.771188   198A      2.784003  
     199A      2.819742   200A      2.864575   201A      2.882629  
     202A      2.918806   203A      2.935353   204A      2.963397  
     205A      2.998535   206A      3.011129   207A      3.036934  
     208A      3.045471   209A      3.095391   210A      3.184263  
     211A      3.250807   212A      3.296526   213A      3.332279  
     214A      3.393693   215A      3.414557   216A      3.417855  
     217A      3.432253   218A      3.456119   219A      3.471616  
     220A      3.485288   221A      3.500204   222A      3.594993  
     223A      3.640875   224A      3.695821   225A      3.738085  
     226A      3.774422   227A      3.904504   228A      4.001569  
     229A      4.042076   230A      4.129823   231A      4.157603  
     232A      4.880435   233A      4.904239   234A      5.085083  
     235A      5.176886   236A      5.304597   237A      5.869078  
     238A     23.482845   239A     23.688815   240A     23.990305  
     241A     23.997136   242A     24.027873   243A     24.185527  
     244A     24.212109   245A     24.316004   246A     35.685557  
     247A     50.131230  

    Final Occupation by Irrep:
              A 
    DOCC [    36 ]

  @DF-RKS Final Energy:  -440.19796364978413

   => Energetics <=

    Nuclear Repulsion Energy =            499.5156943663527045
    One-Electron Energy =               -1585.6542872706377239
    Two-Electron Energy =                 688.9030249505159418
    DFT Exchange-Correlation Energy =     -42.9523107246665887
    Empirical Dispersion Energy =          -0.0100849713485644
    VV10 Nonlocal Energy =                  0.0000000000000000
    Total Energy =                       -440.1979636497841284

Computation Completed


Properties will be evaluated at   0.000000,   0.000000,   0.000000 [a0]

Properties computed using the SCF density matrix


 Multipole Moments:

 ------------------------------------------------------------------------------------
     Multipole            Electronic (a.u.)      Nuclear  (a.u.)        Total (a.u.)
 ------------------------------------------------------------------------------------

 L = 1.  Multiply by 2.5417464519 to convert [e a0] to [Debye]
 Dipole X            :          1.5649658           -2.1585941           -0.5936283
 Dipole Y            :          1.8529110           -2.6382597           -0.7853486
 Dipole Z            :         -3.2720481            4.4175479            1.1454998
 Magnitude           :                                                    1.5104095

 ------------------------------------------------------------------------------------

*** tstop() called on node165.bme.utexas.edu at Sat Nov 18 08:31:14 2023
Module time:
	user time   =      53.69 seconds =       0.89 minutes
	system time =       4.08 seconds =       0.07 minutes
	total time  =         14 seconds =       0.23 minutes
Total time:
	user time   =      53.69 seconds =       0.89 minutes
	system time =       4.08 seconds =       0.07 minutes
	total time  =         14 seconds =       0.23 minutes


Properties will be evaluated at   0.000000,   0.000000,   0.000000 [a0]
OEProp: No title given, name of density matrix used for the following properties is 'SCF density'


  Wiberg Bond Indices using Orthogonal Lowdin Orbitals:

  Irrep: 1 Size: 19 x 19

                 1                   2                   3                   4                   5

    1     0.00000000000000     1.40850978106576     0.10717825029174     0.04892525465989     0.13496844571438
    2     1.40850978106576     0.00000000000000     1.13131671500746     0.11923357612811     1.16501357031388
    3     0.10717825029174     1.13131671500746     0.00000000000000     1.39716863877323     0.10655441442137
    4     0.04892525465989     0.11923357612811     1.39716863877323     0.00000000000000     0.02036123038930
    5     0.13496844571438     1.16501357031388     0.10655441442137     0.02036123038930     0.00000000000000
    6     0.03005214930789     0.12071006541965     1.40578145505183     0.12841325359229     0.05746052501742
    7     0.00387603705798     0.01575703741112     0.13688280609587     0.14332788385357     0.00677393464254
    8     0.00802048405780     0.01300109043644     0.13499575498977     0.13992442836139     0.00344182070364
    9     0.00528170445581     0.01615499666646     0.13822873615345     1.52316103476331     0.00339707316242
   10     0.00169727021875     0.01533628149630     0.05558126017653     0.00951984336613     0.01644467310668
   11     0.01051816607138     0.01473617325369     0.05415575993904     0.79839089410043     0.00123559364407
   12     2.31532483399976     0.24885856334018     0.05047221377536     0.07177316238952     0.03104156057195
   13     0.01690385766314     0.05129936990006     0.00826245451495     0.00101919692428     0.88800736070708
   14     0.02084650189478     0.04874685784162     0.00900251815137     0.00105714823818     0.88826212773787
   15     0.01045194301421     0.04432608673142     0.01886683314560     0.00186466245239     0.87751208780937
   16     0.00042762846213     0.00089462066951     0.01083522485463     0.00256175262554     0.00025753732657
   17     0.00025545481264     0.00082673949785     0.01090709006463     0.06102132003286     0.00043077061674
   18     0.00007948322656     0.00023556879836     0.00288373236608     0.01116933888221     0.00012329080622
   19     0.78397311519915     0.07015792628062     0.01443455642124     0.00434506002536     0.02770683448341

                 6                   7                   8                   9                  10

    1     0.03005214930789     0.00387603705798     0.00802048405780     0.00528170445581     0.00169727021875
    2     0.12071006541965     0.01575703741112     0.01300109043644     0.01615499666646     0.01533628149630
    3     1.40578145505183     0.13688280609587     0.13499575498977     0.13822873615345     0.05558126017653
    4     0.12841325359229     0.14332788385357     0.13992442836139     1.52316103476331     0.00951984336613
    5     0.05746052501742     0.00677393464254     0.00344182070364     0.00339707316242     0.01644467310668
    6     0.00000000000000     1.52200647857115     0.14004237783205     0.14296486357659     0.80994167651479
    7     1.52200647857115     0.00000000000000     1.52140409407173     0.14035633333167     0.05651302899042
    8     0.14004237783205     1.52140409407173     0.00000000000000     1.51622404111925     0.01064256271335
    9     0.14296486357659     0.14035633333167     1.51622404111925     0.00000000000000     0.00244973086529
   10     0.80994167651479     0.05651302899042     0.01064256271335     0.00244973086529     0.00000000000000
   11     0.00921289773892     0.00239482927402     0.01046009490039     0.05630371772371     0.00041028779056
   12     0.01054080104356     0.00278498575055     0.00545553552114     0.00853131409735     0.00020719538333
   13     0.00499289447208     0.00025187517811     0.00031610235827     0.00031463305957     0.00067182054016
   14     0.00239230223957     0.00033492966639     0.00044034851873     0.00022264925984     0.00035776478830
   15     0.01752894607183     0.00164049022558     0.00052449800525     0.00057882415497     0.00254323570018
   16     0.06138568238033     0.83167425223715     0.05944978139668     0.01149620840369     0.00565059486427
   17     0.00254665444990     0.01149721984595     0.05965142239520     0.83130767504240     0.00023440551094
   18     0.01130589436949     0.06022896670856     0.83352107117075     0.05994569665357     0.00020549778872
   19     0.00204204111182     0.00057115617217     0.00025883735202     0.00056505492632     0.00008144561371

                11                  12                  13                  14                  15

    1     0.01051816607138     2.31532483399976     0.01690385766314     0.02084650189478     0.01045194301421
    2     0.01473617325369     0.24885856334018     0.05129936990006     0.04874685784162     0.04432608673142
    3     0.05415575993904     0.05047221377536     0.00826245451495     0.00900251815137     0.01886683314560
    4     0.79839089410043     0.07177316238952     0.00101919692428     0.00105714823818     0.00186466245239
    5     0.00123559364407     0.03104156057195     0.88800736070708     0.88826212773787     0.87751208780937
    6     0.00921289773892     0.01054080104356     0.00499289447208     0.00239230223957     0.01752894607183
    7     0.00239482927402     0.00278498575055     0.00025187517811     0.00033492966639     0.00164049022558
    8     0.01046009490039     0.00545553552114     0.00031610235827     0.00044034851873     0.00052449800525
    9     0.05630371772371     0.00853131409735     0.00031463305957     0.00022264925984     0.00057882415497
   10     0.00041028779056     0.00020719538333     0.00067182054016     0.00035776478830     0.00254323570018
   11     0.00000000000000     0.01957815699834     0.00007928549843     0.00002440975445     0.00005913264055
   12     0.01957815699834     0.00000000000000     0.00339243399053     0.00258374984723     0.00194361783295
   13     0.00007928549843     0.00339243399053     0.00000000000000     0.00821417263370     0.00813500469816
   14     0.00002440975445     0.00258374984723     0.00821417263370     0.00000000000000     0.00991325751983
   15     0.00005913264055     0.00194361783295     0.00813500469816     0.00991325751983     0.00000000000000
   16     0.00020574313552     0.00009183180410     0.00004376797741     0.00001856347048     0.00002797845906
   17     0.00555603688054     0.00025113812292     0.00000900841677     0.00000583351240     0.00006342426156
   18     0.00022671735035     0.00010737324968     0.00003269746105     0.00000630802563     0.00002324480686
   19     0.00017992860516     0.08279354927588     0.00090791036537     0.00275766300301     0.00069232855742

                16                  17                  18                  19

    1     0.00042762846213     0.00025545481264     0.00007948322656     0.78397311519915
    2     0.00089462066951     0.00082673949785     0.00023556879836     0.07015792628062
    3     0.01083522485463     0.01090709006463     0.00288373236608     0.01443455642124
    4     0.00256175262554     0.06102132003286     0.01116933888221     0.00434506002536
    5     0.00025753732657     0.00043077061674     0.00012329080622     0.02770683448341
    6     0.06138568238033     0.00254665444990     0.01130589436949     0.00204204111182
    7     0.83167425223715     0.01149721984595     0.06022896670856     0.00057115617217
    8     0.05944978139668     0.05965142239520     0.83352107117075     0.00025883735202
    9     0.01149620840369     0.83130767504240     0.05994569665357     0.00056505492632
   10     0.00565059486427     0.00023440551094     0.00020549778872     0.00008144561371
   11     0.00020574313552     0.00555603688054     0.00022671735035     0.00017992860516
   12     0.00009183180410     0.00025113812292     0.00010737324968     0.08279354927588
   13     0.00004376797741     0.00000900841677     0.00003269746105     0.00090791036537
   14     0.00001856347048     0.00000583351240     0.00000630802563     0.00275766300301
   15     0.00002797845906     0.00006342426156     0.00002324480686     0.00069232855742
   16     0.00000000000000     0.00026791780869     0.00536288681556     0.00002373746581
   17     0.00026791780869     0.00000000000000     0.00532845112961     0.00000808627967
   18     0.00536288681556     0.00532845112961     0.00000000000000     0.00003256147697
   19     0.00002373746581     0.00000808627967     0.00003256147697     0.00000000000000



  Atomic Valences: 

 #  #
 Irrep: 1
      1:    4.907290361173739
      2:    4.485115020258498
      3:    4.793508414194161
      4:    4.483237679557977
      5:    4.228992851174901
      6:    4.479320958761146
      7:    4.458276339084529
      8:    4.457774345903849
      9:    4.457484287415653
     10:    0.988488575428404
     11:    0.983727825299551
     12:    2.855732016994323
     13:    0.992853846359104
     14:    0.995187106103377
     15:    0.996695596087166
     16:    0.990675710157157
     17:    0.990168648681248
     18:    0.990818781086242
     19:    0.991531792615093


    Psi4 stopped on: Saturday, 18 November 2023 08:31AM
    Psi4 wall time for execution: 0:00:14.28

*** Psi4 exiting successfully. Buy a developer a beer!
