      -----------------------------------------------------------      
     |                   =====================                   |     
     |                           x T B                           |     
     |                   =====================                   |     
     |                         S. Grimme                         |     
     |          Mulliken Center for Theoretical Chemistry        |     
     |                    University of Bonn                     |     
      -----------------------------------------------------------      

   * xtb version 6.5.0 (97a52f5) compiled by 'conda@d2599ee0d4f4' on 2022-05-15

   xtb is free software: you can redistribute it and/or modify it under
   the terms of the GNU Lesser General Public License as published by
   the Free Software Foundation, either version 3 of the License, or
   (at your option) any later version.
   
   xtb is distributed in the hope that it will be useful,
   but WITHOUT ANY WARRANTY; without even the implied warranty of
   MERCHANTABILITY or FITNESS FOR A PARTICULAR PURPOSE.  See the
   GNU Lesser General Public License for more details.
   
   Cite this work as:
   * C. Bannwarth, E. Caldeweyher, S. Ehlert, A. Hansen, P. Pracht,
     J. Seibert, S. Spicher, S. Grimme, WIREs Comput. Mol. Sci., 2020, 11,
     e01493. DOI: 10.1002/wcms.1493
   
   for GFN2-xTB:
   * C. Bannwarth, S. Ehlert and S. Grimme., J. Chem. Theory Comput., 2019,
     15, 1652-1671. DOI: 10.1021/acs.jctc.8b01176
   for GFN1-xTB:
   * S. Grimme, C. Bannwarth, P. Shushkov, J. Chem. Theory Comput., 2017,
     13, 1989-2009. DOI: 10.1021/acs.jctc.7b00118
   for GFN0-xTB:
   * P. Pracht, E. Caldeweyher, S. Ehlert, S. Grimme, ChemRxiv, 2019, preprint.
     DOI: 10.26434/chemrxiv.8326202.v1
   for GFN-FF:
   * S. Spicher and S. Grimme, Angew. Chem. Int. Ed., 2020, 59, 15665-15673.
     DOI: 10.1002/anie.202004239
   
   for ALPB and GBSA implicit solvation:
   * S. Ehlert, M. Stahn, S. Spicher, S. Grimme, J. Chem. Theory Comput.,
     2021, 17, 4250-4261. DOI: 10.1021/acs.jctc.1c00471
   
   for DFT-D4:
   * E. Caldeweyher, C. Bannwarth and S. Grimme, J. Chem. Phys., 2017,
     147, 034112. DOI: 10.1063/1.4993215
   * E. Caldeweyher, S. Ehlert, A. Hansen, H. Neugebauer, S. Spicher,
     C. Bannwarth and S. Grimme, J. Chem. Phys., 2019, 150, 154122.
     DOI: 10.1063/1.5090222
   * E. Caldeweyher, J.-M. Mewes, S. Ehlert and S. Grimme, Phys. Chem. Chem. Phys.
     2020, 22, 8499-8512. DOI: 10.1039/D0CP00502A
   
   for sTDA-xTB:
   * S. Grimme and C. Bannwarth, J. Chem. Phys., 2016, 145, 054103.
     DOI: 10.1063/1.4959605
   
   in the mass-spec context:
   * V. Asgeirsson, C. Bauer and S. Grimme, Chem. Sci., 2017, 8, 4879.
     DOI: 10.1039/c7sc00601b
   * J. Koopman and S. Grimme, ACS Omega 2019, 4, 12, 15120-15133.
     DOI: 10.1021/acsomega.9b02011
   
   for metadynamics refer to:
   * S. Grimme, J. Chem. Theory Comput., 2019, 155, 2847-2862
     DOI: 10.1021/acs.jctc.9b00143
   
   for SPH calculations refer to:
   * S. Spicher and S. Grimme, J. Chem. Theory Comput., 2021, 17, 1701-1714
     DOI: 10.1021/acs.jctc.0c01306
   
   with help from (in alphabetical order)
   P. Atkinson, C. Bannwarth, F. Bohle, G. Brandenburg, E. Caldeweyher
   M. Checinski, S. Dohm, S. Ehlert, S. Ehrlich, I. Gerasimov, C. Hölzer
   A. Katbashev, J. Koopman, C. Lavigne, S. Lehtola, F. März, M. Müller,
   F. Musil, H. Neugebauer, J. Pisarek, C. Plett, P. Pracht, F. Pultar,
   J. Seibert, P. Shushkov, S. Spicher, M. Stahn, M. Steiner, T. Strunk,
   J. Stückrath, T. Rose, and J. Unsleber
   
 * started run on 2023/11/18 at 08:20:44.452     

           -------------------------------------------------
          |                Calculation Setup                |
           -------------------------------------------------

          program call               : /home/liuchw/anaconda3/envs/xtbenv/bin/xtb --gfn 2 --chrg 0 --uhf 0 3_24_Index_0-opt-2-3-247_preQMOPTprefit_xyzformat.xyz --opt --input xtb-opt-2-3-247_constr.txt
          hostname                   : node165.bme.utexas.edu
          coordinate file            : 3_24_Index_0-opt-2-3-247_preQMOPTprefit_xyzformat.xyz
          omp threads                :                    64

   ID    Z sym.   atoms
    1    6 C      1, 3-9
    2    7 N      2
    3    1 H      10, 11, 13-19
    4    8 O      12
constraining angle 1 2 3 4 to  247.0246673°, actual value: -112.9753327°
constraining angle 1 2 5 14 to  220.9894611°, actual value: -139.0105389°
constraining angle 12 1 2 3 to  357.9947134°, actual value:   -2.0052866°

           -------------------------------------------------
          |                 G F N 2 - x T B                 |
           -------------------------------------------------

        Reference                      10.1021/acs.jctc.8b01176
      * Hamiltonian:
        H0-scaling (s, p, d)           1.850000    2.230000    2.230000
        zeta-weighting                 0.500000
      * Dispersion:
        s8                             2.700000
        a1                             0.520000
        a2                             5.000000
        s9                             5.000000
      * Repulsion:
        kExp                           1.500000    1.000000
        rExp                           1.000000
      * Coulomb:
        alpha                          2.000000
        third order                    shell-resolved
        anisotropic                    true
        a3                             3.000000
        a5                             4.000000
        cn-shift                       1.200000
        cn-exp                         4.000000
        max-rad                        5.000000

q/qsh data taken from xtbrestart
CAMM data taken from xtbrestart

          ...................................................
          :                      SETUP                      :
          :.................................................:
          :  # basis functions                  49          :
          :  # atomic orbitals                  49          :
          :  # shells                           29          :
          :  # electrons                        52          :
          :  max. iterations                   250          :
          :  Hamiltonian                  GFN2-xTB          :
          :  restarted?                       true          :
          :  GBSA solvation                  false          :
          :  PC potential                    false          :
          :  electronic temp.          300.0000000     K    :
          :  accuracy                    1.0000000          :
          :  -> integral cutoff          0.2500000E+02      :
          :  -> integral neglect         0.1000000E-07      :
          :  -> SCF convergence          0.1000000E-05 Eh   :
          :  -> wf. convergence          0.1000000E-03 e    :
          :  Broyden damping             0.4000000          :
          ...................................................

 iter      E             dE          RMSdq      gap      omega  full diag
   1    -29.0927407 -0.290927E+02  0.148E+00    4.05       0.0  T
   2    -29.0933564 -0.615693E-03  0.879E-01    4.05       1.0  T
   3    -29.0918721  0.148435E-02  0.283E-01    4.08       1.0  T
   4    -29.0936377 -0.176558E-02  0.389E-02    4.07       1.0  T
   5    -29.0936638 -0.261858E-04  0.149E-02    4.07       1.5  T
   6    -29.0936642 -0.330185E-06  0.752E-03    4.07       3.1  T
   7    -29.0936646 -0.380484E-06  0.290E-03    4.07       7.9  T
   8    -29.0936646 -0.357876E-07  0.126E-03    4.07      18.2  T
   9    -29.0936646 -0.111780E-07  0.480E-04    4.07      47.8  T
  10    -29.0936646 -0.890232E-09  0.194E-04    4.07     118.4  T

   *** convergence criteria satisfied after 10 iterations ***

         #    Occupation            Energy/Eh            Energy/eV
      -------------------------------------------------------------
         1        2.0000           -0.6899868             -18.7755
       ...           ...                  ...                  ...
        20        2.0000           -0.4795311             -13.0487
        21        2.0000           -0.4437004             -12.0737
        22        2.0000           -0.4383866             -11.9291
        23        2.0000           -0.4144443             -11.2776
        24        2.0000           -0.4115255             -11.1982
        25        2.0000           -0.3965414             -10.7904
        26        2.0000           -0.3917690             -10.6606 (HOMO)
        27                         -0.2421714              -6.5898 (LUMO)
        28                         -0.2366291              -6.4390
        29                         -0.2209240              -6.0116
        30                         -0.1164370              -3.1684
        31                         -0.0417764              -1.1368
       ...                                ...                  ...
        49                          0.6059329              16.4883
      -------------------------------------------------------------
                  HL-Gap            0.1495976 Eh            4.0708 eV
             Fermi-level           -0.3169702 Eh           -8.6252 eV

 SCC (total)                   0 d,  0 h,  0 min,  1.355 sec
 SCC setup                      ...        0 min,  0.012 sec (  0.855%)
 Dispersion                     ...        0 min,  0.038 sec (  2.773%)
 classical contributions        ...        0 min,  0.011 sec (  0.838%)
 integral evaluation            ...        0 min,  0.047 sec (  3.483%)
 iterations                     ...        0 min,  1.096 sec ( 80.844%)
 molecular gradient             ...        0 min,  0.151 sec ( 11.176%)
 printout                       ...        0 min,  0.000 sec (  0.014%)

         :::::::::::::::::::::::::::::::::::::::::::::::::::::
         ::                     SUMMARY                     ::
         :::::::::::::::::::::::::::::::::::::::::::::::::::::
         :: total energy             -28.689980671999 Eh    ::
         :: gradient norm              0.068578085044 Eh/a0 ::
         :: HOMO-LUMO gap              4.070757494996 eV    ::
         ::.................................................::
         :: SCC energy               -29.093664604580 Eh    ::
         :: -> isotropic ES            0.034756000918 Eh    ::
         :: -> anisotropic ES          0.003622814239 Eh    ::
         :: -> anisotropic XC          0.015531817724 Eh    ::
         :: -> dispersion             -0.015662234503 Eh    ::
         :: repulsion energy           0.403610186716 Eh    ::
         :: add. restraining           0.000000000000 Eh    ::
         :: total charge               0.000000000000 e     ::
         :::::::::::::::::::::::::::::::::::::::::::::::::::::

      ----------------------------------------------------------- 
     |                   =====================                   |
     |                        A N C O P T                        |
     |                   =====================                   |
     |               Approximate Normal Coordinate               |
     |                Rational Function Optimizer                |
      ----------------------------------------------------------- 

          ...................................................
          :                      SETUP                      :
          :.................................................:
          :   optimization level            normal          :
          :   max. optcycles                   200          :
          :   ANC micro-cycles                  20          :
          :   degrees of freedom                51          :
          :.................................................:
          :   RF solver                   davidson          :
          :   write xtbopt.log                true          :
          :   linear?                        false          :
          :   energy convergence         0.5000000E-05 Eh   :
          :   grad. convergence          0.1000000E-02 Eh/α :
          :   maximium RF displ.         1.0000000          :
          :   Hlow (freq-cutoff)         0.1000000E-01      :
          :   Hmax (freq-cutoff)         5.0000000          :
          :   S6 in model hess.         20.0000000          :
          ...................................................

generating ANC from model Hessian ...
Using Lindh-Hessian (1995)
 Shifting diagonal of input Hessian by    7.3807847817657967E-003
 Lowest  eigenvalues of input Hessian
    0.000000    0.000000    0.000000    0.000000    0.000000    0.000000
    0.010000    0.011997    0.014515    0.018917    0.020462    0.023474
    0.027419    0.029629    0.036315    0.047908    0.055175    0.064873
 Highest eigenvalues
    1.869595    1.938046    2.185284    3.178961    3.420566   17.490764


........................................................................
.............................. CYCLE    1 ..............................
........................................................................
   1    -29.0936646 -0.290937E+02  0.610E-05    4.07       0.0  T
   2    -29.0936646 -0.208153E-10  0.379E-05    4.07     605.9  T
   3    -29.0936646 -0.114468E-10  0.212E-05    4.07    1084.2  T
     SCC iter.                  ...        0 min,  0.301 sec
     gradient                   ...        0 min,  0.141 sec
 * total energy  :   -28.6899807 Eh     change       -0.1234604E-09 Eh
   gradient norm :     0.0685768 Eh/α   predicted     0.0000000E+00 (-100.00%)
   displ. norm   :     0.2925128 α      lambda       -0.1055967E-01
   maximum displ.:     0.1759040 α      in ANC's #11, #6, #25, ...

........................................................................
.............................. CYCLE    2 ..............................
........................................................................
   1    -29.1359242 -0.291359E+02  0.231E-01    4.18       0.0  T
   2    -29.1360549 -0.130748E-03  0.147E-01    4.20       1.0  T
   3    -29.1360542  0.760865E-06  0.756E-02    4.19       1.0  T
   4    -29.1360861 -0.319035E-04  0.187E-02    4.20       1.2  T
   5    -29.1360920 -0.588669E-05  0.532E-03    4.20       4.3  T
   6    -29.1360922 -0.217673E-06  0.216E-03    4.20      10.6  T
   7    -29.1360922 -0.153741E-07  0.110E-03    4.20      20.8  T
   8    -29.1360922 -0.815760E-09  0.356E-04    4.20      64.4  T
   9    -29.1360922 -0.122040E-08  0.119E-04    4.20     192.8  T
     SCC iter.                  ...        0 min,  0.979 sec
     gradient                   ...        0 min,  0.152 sec
 * total energy  :   -28.6967588 Eh     change       -0.6778125E-02 Eh
   gradient norm :     0.0247042 Eh/α   predicted    -0.5733993E-02 ( -15.40%)
   displ. norm   :     0.2323896 α      lambda       -0.1909626E-02
   maximum displ.:     0.1093363 α      in ANC's #6, #2, #11, ...

........................................................................
.............................. CYCLE    3 ..............................
........................................................................
   1    -29.1512176 -0.291512E+02  0.136E-01    4.24       0.0  T
   2    -29.1512986 -0.809705E-04  0.910E-02    4.25       1.0  T
   3    -29.1513077 -0.915195E-05  0.463E-02    4.24       1.0  T
   4    -29.1513093 -0.160046E-05  0.148E-02    4.25       1.6  T
   5    -29.1513137 -0.434586E-05  0.233E-03    4.24       9.8  T
   6    -29.1513137 -0.230436E-07  0.109E-03    4.24      21.1  T
   7    -29.1513137 -0.467404E-08  0.427E-04    4.24      53.7  T
   8    -29.1513137 -0.317222E-09  0.172E-04    4.24     133.3  T
     SCC iter.                  ...        0 min,  0.813 sec
     gradient                   ...        0 min,  0.145 sec
 * total energy  :   -28.6976980 Eh     change       -0.9392262E-03 Eh
   gradient norm :     0.0581662 Eh/α   predicted    -0.1006380E-02 (   7.15%)
   displ. norm   :     0.1930234 α      lambda       -0.9155954E-03
   maximum displ.:     0.1212371 α      in ANC's #2, #1, #6, ...

........................................................................
.............................. CYCLE    4 ..............................
........................................................................
   1    -29.1543419 -0.291543E+02  0.967E-02    4.24       0.0  T
   2    -29.1543610 -0.190871E-04  0.595E-02    4.25       1.0  T
   3    -29.1543596  0.136596E-05  0.249E-02    4.25       1.0  T
   4    -29.1543630 -0.344169E-05  0.703E-03    4.25       3.3  T
   5    -29.1543641 -0.104855E-05  0.133E-03    4.25      17.3  T
   6    -29.1543641 -0.281071E-08  0.557E-04    4.25      41.2  T
   7    -29.1543641 -0.117832E-08  0.201E-04    4.25     114.0  T
     SCC iter.                  ...        0 min,  0.717 sec
     gradient                   ...        0 min,  0.141 sec
 * total energy  :   -28.6976295 Eh     change        0.6848344E-04 Eh
   gradient norm :     0.1148104 Eh/α   predicted    -0.4748551E-03 (-793.39%)
   displ. norm   :     0.0851085 α      lambda       -0.9237174E-03
   maximum displ.:     0.0526471 α      in ANC's #1, #2, #11, ...

........................................................................
.............................. CYCLE    5 ..............................
........................................................................
   1    -29.1495117 -0.291495E+02  0.473E-02    4.23       0.0  T
   2    -29.1495163 -0.459725E-05  0.295E-02    4.23       1.0  T
   3    -29.1495159  0.383495E-06  0.135E-02    4.23       1.7  T
   4    -29.1495171 -0.123513E-05  0.337E-03    4.23       6.8  T
   5    -29.1495174 -0.225075E-06  0.857E-04    4.23      26.8  T
   6    -29.1495174 -0.223926E-08  0.399E-04    4.23      57.5  T
     SCC iter.                  ...        0 min,  0.655 sec
     gradient                   ...        0 min,  0.147 sec
 * total energy  :   -28.6981647 Eh     change       -0.5352006E-03 Eh
   gradient norm :     0.0099220 Eh/α   predicted    -0.4652219E-03 ( -13.08%)
   displ. norm   :     0.1428704 α      lambda       -0.2141148E-03
   maximum displ.:     0.0963492 α      in ANC's #2, #1, #4, ...

........................................................................
.............................. CYCLE    6 ..............................
........................................................................
   1    -29.1481998 -0.291482E+02  0.770E-02    4.22       0.0  T
   2    -29.1482012 -0.139836E-05  0.452E-02    4.22       1.0  T
   3    -29.1481992  0.199704E-05  0.107E-02    4.22       2.1  T
   4    -29.1482016 -0.244325E-05  0.201E-03    4.22      11.4  T
   5    -29.1482016 -0.495296E-07  0.909E-04    4.22      25.2  T
   6    -29.1482016 -0.828525E-09  0.302E-04    4.22      76.1  T
     SCC iter.                  ...        0 min,  0.688 sec
     gradient                   ...        0 min,  0.165 sec
 * total energy  :   -28.6983206 Eh     change       -0.1558727E-03 Eh
   gradient norm :     0.0100645 Eh/α   predicted    -0.1092432E-03 ( -29.92%)
   displ. norm   :     0.1888353 α      lambda       -0.1852647E-03
   maximum displ.:     0.1292417 α      in ANC's #2, #1, #4, ...

........................................................................
.............................. CYCLE    7 ..............................
........................................................................
   1    -29.1473580 -0.291474E+02  0.827E-02    4.21       0.0  T
   2    -29.1473594 -0.135584E-05  0.483E-02    4.21       1.0  T
   3    -29.1473582  0.122075E-05  0.855E-03    4.21       2.7  T
   4    -29.1473598 -0.159584E-05  0.216E-03    4.21      10.6  T
   5    -29.1473598 -0.452427E-07  0.945E-04    4.21      24.3  T
   6    -29.1473598 -0.268191E-08  0.262E-04    4.21      87.6  T
     SCC iter.                  ...        0 min,  0.674 sec
     gradient                   ...        0 min,  0.147 sec
 * total energy  :   -28.6984666 Eh     change       -0.1459495E-03 Eh
   gradient norm :     0.0136083 Eh/α   predicted    -0.9593720E-04 ( -34.27%)
   displ. norm   :     0.2266036 α      lambda       -0.1705656E-03
   maximum displ.:     0.1547479 α      in ANC's #1, #2, #4, ...

........................................................................
.............................. CYCLE    8 ..............................
........................................................................
   1    -29.1477296 -0.291477E+02  0.992E-02    4.20       0.0  T
   2    -29.1477311 -0.151897E-05  0.577E-02    4.20       1.0  T
   3    -29.1477299  0.117207E-05  0.887E-03    4.20       2.6  T
   4    -29.1477316 -0.162247E-05  0.237E-03    4.20       9.7  T
   5    -29.1477316 -0.361197E-07  0.917E-04    4.20      25.0  T
   6    -29.1477316 -0.295190E-08  0.291E-04    4.20      79.0  T
     SCC iter.                  ...        0 min,  0.656 sec
     gradient                   ...        0 min,  0.169 sec
 * total energy  :   -28.6985844 Eh     change       -0.1178716E-03 Eh
   gradient norm :     0.0052288 Eh/α   predicted    -0.8966274E-04 ( -23.93%)
   displ. norm   :     0.1354565 α      lambda       -0.6769055E-04
   maximum displ.:     0.1006243 α      in ANC's #1, #2, #11, ...

........................................................................
.............................. CYCLE    9 ..............................
........................................................................
   1    -29.1487121 -0.291487E+02  0.600E-02    4.19       0.0  T
   2    -29.1487127 -0.600024E-06  0.350E-02    4.20       1.0  T
   3    -29.1487123  0.414798E-06  0.546E-03    4.20       4.2  T
   4    -29.1487129 -0.567134E-06  0.148E-03    4.20      15.5  T
   5    -29.1487129 -0.154009E-07  0.513E-04    4.20      44.7  T
   6    -29.1487129 -0.358220E-09  0.186E-04    4.20     123.6  T
     SCC iter.                  ...        0 min,  0.649 sec
     gradient                   ...        0 min,  0.152 sec
 * total energy  :   -28.6986293 Eh     change       -0.4488988E-04 Eh
   gradient norm :     0.0024339 Eh/α   predicted    -0.3446726E-04 ( -23.22%)
   displ. norm   :     0.0625665 α      lambda       -0.2081609E-04
   maximum displ.:     0.0519060 α      in ANC's #1, #2, #6, ...

........................................................................
.............................. CYCLE   10 ..............................
........................................................................
   1    -29.1494355 -0.291494E+02  0.312E-02    4.19       0.0  T
   2    -29.1494357 -0.176975E-06  0.182E-02    4.20       1.3  T
   3    -29.1494356  0.121283E-06  0.286E-03    4.20       8.0  T
   4    -29.1494357 -0.157808E-06  0.740E-04    4.20      31.0  T
   5    -29.1494357 -0.578746E-08  0.274E-04    4.20      83.8  T
     SCC iter.                  ...        0 min,  0.534 sec
     gradient                   ...        0 min,  0.159 sec
 * total energy  :   -28.6986424 Eh     change       -0.1308511E-04 Eh
   gradient norm :     0.0032579 Eh/α   predicted    -0.1045017E-04 ( -20.14%)
   displ. norm   :     0.0291695 α      lambda       -0.6707136E-05
   maximum displ.:     0.0275090 α      in ANC's #1, #2, #3, ...

........................................................................
.............................. CYCLE   11 ..............................
........................................................................
   1    -29.1495645 -0.291496E+02  0.161E-02    4.20       0.0  T
   2    -29.1495645 -0.240231E-07  0.943E-03    4.20       2.4  T
   3    -29.1495645  0.321296E-07  0.134E-03    4.20      17.1  T
   4    -29.1495645 -0.404275E-07  0.255E-04    4.20      89.9  T
   5    -29.1495645 -0.446200E-09  0.115E-04    4.20     199.1  T
     SCC iter.                  ...        0 min,  0.552 sec
     gradient                   ...        0 min,  0.149 sec
 * total energy  :   -28.6986462 Eh     change       -0.3741774E-05 Eh
   gradient norm :     0.0010394 Eh/α   predicted    -0.3357206E-05 ( -10.28%)
   displ. norm   :     0.0210520 α      lambda       -0.2676472E-05
   maximum displ.:     0.0176384 α      in ANC's #1, #6, #2, ...

........................................................................
.............................. CYCLE   12 ..............................
........................................................................
   1    -29.1494330 -0.291494E+02  0.124E-02    4.20       0.0  T
   2    -29.1494330 -0.158586E-07  0.735E-03    4.20       3.1  T
   3    -29.1494330  0.753741E-08  0.718E-04    4.20      31.9  T
   4    -29.1494330 -0.107882E-07  0.202E-04    4.20     113.8  T
     SCC iter.                  ...        0 min,  0.466 sec
     gradient                   ...        0 min,  0.165 sec
 * total energy  :   -28.6986481 Eh     change       -0.1921677E-05 Eh
   gradient norm :     0.0006277 Eh/α   predicted    -0.1339312E-05 ( -30.31%)
   displ. norm   :     0.0107561 α      lambda       -0.1029228E-05
   maximum displ.:     0.0076954 α      in ANC's #2, #1, #3, ...

   *** GEOMETRY OPTIMIZATION CONVERGED AFTER 12 ITERATIONS ***

------------------------------------------------------------------------
 total energy gain   :        -0.0086674 Eh       -5.4389 kcal/mol
 total RMSD          :         0.3020187 a0        0.1598 Å
 total power (kW/mol):        -1.8963548 (step)   -2.1242 (real)
------------------------------------------------------------------------

 ANCopt (total)                0 d,  0 h,  0 min, 10.713 sec
 optimizer setup                ...        0 min,  0.000 sec (  0.002%)
 model hessian                  ...        0 min,  0.006 sec (  0.053%)
 ANC generation                 ...        0 min,  0.001 sec (  0.007%)
 coordinate transformation      ...        0 min,  0.000 sec (  0.004%)
 single point calculation       ...        0 min, 10.537 sec ( 98.357%)
 optimization log               ...        0 min,  0.006 sec (  0.060%)
 hessian update                 ...        0 min,  0.134 sec (  1.250%)
 rational function              ...        0 min,  0.026 sec (  0.246%)

================
 final structure:
================
19
 xtb: 6.5.0 (97a52f5)
C            1.85018218974947       -1.45500486910403        0.64077953518535
N            1.01757363346162       -0.45464205693486        0.99521596074884
C           -0.16393356258762       -0.21436870825367        0.23789131155797
C           -0.30381324618062        0.95234002994085       -0.50204912762776
C            1.35860936927486        0.50395567432638        2.01963550053818
C           -1.16014142812332       -1.18025013997734        0.20554505563753
C           -2.30156090097243       -0.96708475544234       -0.54642469332065
C           -2.45256992803996        0.20568899882627       -1.26654304917968
C           -1.45195279055251        1.16248199711941       -1.24424995921925
H           -1.02941830516756       -2.09585862607296        0.76117574636638
H            0.48226309595667        1.69284202705321       -0.49948251943278
O            1.68239441988182       -2.22668475815969       -0.26957921749886
H            2.15271742245192        0.09927285084096        2.64489697266617
H            0.48320671542559        0.70373687721214        2.63960799982579
H            1.70119841216172        1.44870680605214        1.58878414044043
H           -3.07441365076007       -1.72066005512697       -0.57056337234479
H           -1.55893127378423        2.07205145897542       -1.81661033339509
H           -3.34487500027106        0.37116360750794       -1.85145540100824
H            2.73714883807640       -1.49890236878352        1.30401146005985

 Bond Distances (Angstroems)
 ---------------------------
C1-N2=1.3489         C1-O12=1.2052        C1-H19=1.1084        N2-C1=1.3489         N2-C3=1.4238         N2-C5=1.4438         
C3-N2=1.4238         C3-C4=1.3886         C3-C6=1.3879         C4-C3=1.3886         C4-C9=1.3832         C4-H11=1.0799        
C5-N2=1.4438         C5-H13=1.0887        C5-H14=1.0912        C5-H15=1.0934        C6-C3=1.3879         C6-C7=1.3834         
C6-H10=1.0790        C7-C6=1.3834         C7-C8=1.3845         C7-H16=1.0797        C8-C7=1.3845         C8-C9=1.3846         
C8-H18=1.0797        C9-C4=1.3832         C9-C8=1.3846         C9-H17=1.0800        H10-C6=1.0790        H11-C4=1.0799        
O12-C1=1.2052        H13-C5=1.0887        H14-C5=1.0912        H15-C5=1.0934        H16-C7=1.0797        H17-C9=1.0800        
H18-C8=1.0797        H19-C1=1.1084        
 C  H  Rav=1.0867 sigma=0.0094  Rmin=1.0790  Rmax=1.1084     9
 C  C  Rav=1.3854 sigma=0.0021  Rmin=1.3832  Rmax=1.3886     6
 N  C  Rav=1.4055 sigma=0.0408  Rmin=1.3489  Rmax=1.4438     3
 O  C  Rav=1.2052 sigma=0.0000  Rmin=1.2052  Rmax=1.2052     1

 selected bond angles (degree)
 --------------------
O12-C1-N2=125.97               H19-C1-N2=111.47               H19-C1-O12=122.55              C3-N2-C1=119.84                
C5-N2-C1=122.21                C5-N2-C3=117.47                C4-C3-N2=120.58                C6-C3-N2=119.38                
C6-C3-C4=120.00                C9-C4-C3=119.81                H11-C4-C3=120.10               H11-C4-C9=120.09               
H13-C5-N2=109.45               H14-C5-N2=109.58               H14-C5-H13=109.08              H15-C5-N2=111.60               
H15-C5-H13=108.60              H15-C5-H14=108.49              C7-C6-C3=119.84                H10-C6-C3=119.44               
H10-C6-C7=120.71               C8-C7-C6=120.22                H16-C7-C6=119.68               H16-C7-C8=120.10               
C9-C8-C7=119.88                H18-C8-C7=120.12               H18-C8-C9=120.00               C8-C9-C4=120.23                
H17-C9-C4=119.64               H17-C9-C8=120.12               

 selected dihedral angles (degree)
 ---------------------------------
C3-N2-C1-O12=357.98           C3-N2-C1-H19=178.33           C5-N2-C1-O12=186.10           C5-N2-C1-H19=  6.44           
C4-C3-N2-C1=246.97            C4-C3-N2-C5= 59.23            C6-C3-N2-C1= 64.68            C6-C3-N2-C5=236.94            
C9-C4-C3-N2=179.26            C9-C4-C3-C6=  1.57            H11-C4-C3-N2=359.37           H11-C4-C3-C6=181.68           
H13-C5-N2-C1=340.58           H13-C5-N2-C3=168.52           H14-C5-N2-C1=221.00           H14-C5-N2-C3= 48.94           
H15-C5-N2-C1=100.82           H15-C5-N2-C3=288.75           C7-C6-C3-N2=181.16            C7-C6-C3-C4=358.87            
H10-C6-C3-N2=  0.52           H10-C6-C3-C4=178.24           C8-C7-C6-C3=  0.02            C8-C7-C6-H10=180.67           
H16-C7-C6-C3=179.94           H16-C7-C6-H10=  0.58          C9-C8-C7-C6=  0.63            C9-C8-C7-H16=180.72           
H18-C8-C7-C6=180.11           H18-C8-C7-H16=  0.20          C8-C9-C4-C3=359.08            C8-C9-C4-H11=178.98           
H17-C9-C4-C3=179.84           H17-C9-C4-H11=359.73          C4-C9-C8-C7=359.82            C4-C9-C8-H18=180.33           
H17-C9-C8-C7=179.06           H17-C9-C8-H18=359.58          
           -------------------------------------------------
          |                Final Singlepoint                |
           -------------------------------------------------

          ...................................................
          :                      SETUP                      :
          :.................................................:
          :  # basis functions                  49          :
          :  # atomic orbitals                  49          :
          :  # shells                           29          :
          :  # electrons                        52          :
          :  max. iterations                   250          :
          :  Hamiltonian                  GFN2-xTB          :
          :  restarted?                      false          :
          :  GBSA solvation                  false          :
          :  PC potential                    false          :
          :  electronic temp.          300.0000000     K    :
          :  accuracy                    1.0000000          :
          :  -> integral cutoff          0.2500000E+02      :
          :  -> integral neglect         0.1000000E-07      :
          :  -> SCF convergence          0.1000000E-05 Eh   :
          :  -> wf. convergence          0.1000000E-03 e    :
          :  Broyden damping             0.4000000          :
          ...................................................

 iter      E             dE          RMSdq      gap      omega  full diag
   1    -29.1494330 -0.291494E+02  0.969E-05    4.20       0.0  T
   2    -29.1494330 -0.164384E-10  0.572E-05    4.20     401.4  T
   3    -29.1494330  0.283862E-11  0.352E-05    4.20     651.6  T

   *** convergence criteria satisfied after 3 iterations ***

         #    Occupation            Energy/Eh            Energy/eV
      -------------------------------------------------------------
         1        2.0000           -0.6969496             -18.9650
       ...           ...                  ...                  ...
        20        2.0000           -0.4843388             -13.1795
        21        2.0000           -0.4421514             -12.0316
        22        2.0000           -0.4386071             -11.9351
        23        2.0000           -0.4192279             -11.4078
        24        2.0000           -0.4135243             -11.2526
        25        2.0000           -0.3971177             -10.8061
        26        2.0000           -0.3903478             -10.6219 (HOMO)
        27                         -0.2361666              -6.4264 (LUMO)
        28                         -0.2318022              -6.3077
        29                         -0.2059621              -5.6045
        30                         -0.1020230              -2.7762
        31                         -0.0034453              -0.0938
       ...                                ...                  ...
        49                          0.6690333              18.2053
      -------------------------------------------------------------
                  HL-Gap            0.1541811 Eh            4.1955 eV
             Fermi-level           -0.3132572 Eh           -8.5242 eV

 SCC (total)                   0 d,  0 h,  0 min,  0.553 sec
 SCC setup                      ...        0 min,  0.012 sec (  2.107%)
 Dispersion                     ...        0 min,  0.023 sec (  4.071%)
 classical contributions        ...        0 min,  0.011 sec (  2.063%)
 integral evaluation            ...        0 min,  0.034 sec (  6.219%)
 iterations                     ...        0 min,  0.305 sec ( 55.174%)
 molecular gradient             ...        0 min,  0.167 sec ( 30.271%)
 printout                       ...        0 min,  0.000 sec (  0.028%)

         :::::::::::::::::::::::::::::::::::::::::::::::::::::
         ::                     SUMMARY                     ::
         :::::::::::::::::::::::::::::::::::::::::::::::::::::
         :: total energy             -28.698648073152 Eh    ::
         :: gradient norm              0.000628142694 Eh/a0 ::
         :: HOMO-LUMO gap              4.195482522605 eV    ::
         ::.................................................::
         :: SCC energy               -29.149433027184 Eh    ::
         :: -> isotropic ES            0.034553037622 Eh    ::
         :: -> anisotropic ES          0.003379442196 Eh    ::
         :: -> anisotropic XC          0.013993067580 Eh    ::
         :: -> dispersion             -0.016049903148 Eh    ::
         :: repulsion energy           0.450713724464 Eh    ::
         :: add. restraining           0.000002173807 Eh    ::
         :: total charge               0.000000000000 e     ::
         :::::::::::::::::::::::::::::::::::::::::::::::::::::

           -------------------------------------------------
          |                Property Printout                |
           -------------------------------------------------

    * Orbital Energies and Occupations

         #    Occupation            Energy/Eh            Energy/eV
      -------------------------------------------------------------
         1        2.0000           -0.6969496             -18.9650
       ...           ...                  ...                  ...
        14        2.0000           -0.5089777             -13.8500
        15        2.0000           -0.5051844             -13.7468
        16        2.0000           -0.5016610             -13.6509
        17        2.0000           -0.4930820             -13.4174
        18        2.0000           -0.4898048             -13.3283
        19        2.0000           -0.4859220             -13.2226
        20        2.0000           -0.4843388             -13.1795
        21        2.0000           -0.4421514             -12.0316
        22        2.0000           -0.4386071             -11.9351
        23        2.0000           -0.4192279             -11.4078
        24        2.0000           -0.4135243             -11.2526
        25        2.0000           -0.3971177             -10.8061
        26        2.0000           -0.3903478             -10.6219 (HOMO)
        27                         -0.2361666              -6.4264 (LUMO)
        28                         -0.2318022              -6.3077
        29                         -0.2059621              -5.6045
        30                         -0.1020230              -2.7762
        31                         -0.0034453              -0.0938
        32                          0.0778766               2.1191
        33                          0.1109570               3.0193
        34                          0.1283582               3.4928
        35                          0.1472704               4.0074
        36                          0.1604132               4.3651
        37                          0.1673170               4.5529
       ...                                ...                  ...
        49                          0.6690333              18.2053
      -------------------------------------------------------------
                  HL-Gap            0.1541811 Eh            4.1955 eV
             Fermi-level           -0.3132572 Eh           -8.5242 eV

     #   Z          covCN         q      C6AA      α(0)
     1   6 C        2.713     0.249    22.819     7.819
     2   7 N        2.735    -0.088    22.964     7.117
     3   6 C        2.928     0.073    26.370     8.421
     4   6 C        2.922    -0.039    28.974     8.827
     5   6 C        3.698    -0.045    21.557     6.641
     6   6 C        2.923    -0.031    28.761     8.795
     7   6 C        2.921    -0.025    28.629     8.774
     8   6 C        2.920    -0.030    28.748     8.793
     9   6 C        2.921    -0.028    28.688     8.783
    10   1 H        0.926     0.049     2.329     2.386
    11   1 H        0.926     0.037     2.488     2.467
    12   8 O        0.857    -0.409    21.855     6.268
    13   1 H        0.925     0.059     2.213     2.327
    14   1 H        0.924     0.058     2.227     2.334
    15   1 H        0.924     0.053     2.280     2.361
    16   1 H        0.926     0.042     2.426     2.436
    17   1 H        0.926     0.039     2.468     2.457
    18   1 H        0.926     0.039     2.466     2.456
    19   1 H        0.922    -0.002     3.096     2.752

 Mol. C6AA /au·bohr⁶  :       4196.073340
 Mol. C8AA /au·bohr⁸  :      98810.000302
 Mol. α(0) /au        :        102.213152


Wiberg/Mayer (AO) data.
largest (>0.10) Wiberg bond orders for each atom

 ---------------------------------------------------------------------------
     #   Z sym  total        # sym  WBO       # sym  WBO       # sym  WBO
 ---------------------------------------------------------------------------
     1   6 C    3.955 --    12 O    1.729     2 N    1.248    19 H    0.917
     2   7 N    3.513 --     1 C    1.248     5 C    0.997     3 C    0.992
                            12 O    0.208
     3   6 C    3.963 --     6 C    1.402     4 C    1.401     2 N    0.992
                             8 C    0.106
     4   6 C    3.992 --     9 C    1.445     3 C    1.401    11 H    0.968
                             7 C    0.111
     5   6 C    3.972 --     2 N    0.997    14 H    0.980    13 H    0.977
                            15 H    0.974
     6   6 C    3.991 --     7 C    1.443     3 C    1.402    10 H    0.968
                             9 C    0.111
     7   6 C    3.992 --     6 C    1.443     8 C    1.440    16 H    0.970
                             4 C    0.111
     8   6 C    3.992 --     7 C    1.440     9 C    1.437    18 H    0.971
                             3 C    0.106
     9   6 C    3.992 --     4 C    1.445     8 C    1.437    17 H    0.970
                             6 C    0.111
    10   1 H    0.998 --     6 C    0.968
    11   1 H    0.999 --     4 C    0.968
    12   8 O    2.034 --     1 C    1.729     2 N    0.208
    13   1 H    0.996 --     5 C    0.977
    14   1 H    0.997 --     5 C    0.980
    15   1 H    0.997 --     5 C    0.974
    16   1 H    0.998 --     7 C    0.970
    17   1 H    0.998 --     9 C    0.970
    18   1 H    0.998 --     8 C    0.971
    19   1 H    0.999 --     1 C    0.917
 ---------------------------------------------------------------------------

Topologies differ in total number of bonds
Writing topology from bond orders to xtbtopo.mol

molecular dipole:
                 x           y           z       tot (Debye)
 q only:       -0.536       1.215       0.850
   full:       -0.384       1.354       1.032       4.436
molecular quadrupole (traceless):
                xx          xy          yy          xz          yz          zz
 q only:        1.762       6.457      -5.869       5.408      -2.241       4.107
  q+dip:        3.649       7.977      -6.299       8.153      -5.765       2.650
   full:        2.922       7.487      -6.863       6.694      -4.433       3.941

           -------------------------------------------------
          |                Geometry Summary                 |
           -------------------------------------------------

      molecular mass/u    :      135.1634621
   center of mass at/Å    :       -0.1172231      -0.3908627       0.0620762
  moments of inertia/u·Å² :        0.2021295E+03   0.4986103E+03   0.5915884E+03
rotational constants/cm⁻¹ :        0.8340014E-01   0.3380923E-01   0.2849554E-01

 * 18 selected distances

     #   Z          #   Z                                           value/Å
     1   6 C        2   7 N                                       1.3489212
     2   7 N        3   6 C                                       1.4238088
     3   6 C        4   6 C                                       1.3886280
     2   7 N        5   6 C                                       1.4438320 (max)
     3   6 C        6   6 C                                       1.3879495
     6   6 C        7   6 C                                       1.3833787
     7   6 C        8   6 C                                       1.3844756
     4   6 C        9   6 C                                       1.3832015
     8   6 C        9   6 C                                       1.3846244
     6   6 C       10   1 H                                       1.0789593 (min)
     4   6 C       11   1 H                                       1.0799380
     1   6 C       12   8 O                                       1.2051539
     5   6 C       13   1 H                                       1.0887277
     5   6 C       14   1 H                                       1.0911501
     5   6 C       15   1 H                                       1.0934144
     7   6 C       16   1 H                                       1.0797037
     9   6 C       17   1 H                                       1.0799804
     8   6 C       18   1 H                                       1.0796818

 * 4 distinct bonds (by element types)

   Z      Z             #   av. dist./Å        max./Å        min./Å
   1 H    6 C           8     1.0839444     1.0934144     1.0789593
   6 C    6 C           6     1.3853763     1.3886280     1.3832015
   6 C    7 N           3     1.4055206     1.4438320     1.3489212
   6 C    8 O           1     1.2051539     1.2051539     1.2051539


optimized geometry written to: xtbopt.xyz


           -------------------------------------------------
          | TOTAL ENERGY              -28.698648073152 Eh   |
          | GRADIENT NORM               0.000628142694 Eh/α |
          | HOMO-LUMO GAP               4.195482522605 eV   |
           -------------------------------------------------
########################################################################
[WARNING] Runtime exception occurred
-1- restart_readRestart: Number of electron missmatch in restart file.
########################################################################

------------------------------------------------------------------------
 * finished run on 2023/11/18 at 08:20:57.235     
------------------------------------------------------------------------
 total:
 * wall-time:     0 d,  0 h,  0 min, 12.782 sec
 *  cpu-time:     0 d,  0 h,  8 min, 19.188 sec
 * ratio c/w:    39.053 speedup
 SCF:
 * wall-time:     0 d,  0 h,  0 min,  1.355 sec
 *  cpu-time:     0 d,  0 h,  0 min, 54.410 sec
 * ratio c/w:    40.144 speedup
 ANC optimizer:
 * wall-time:     0 d,  0 h,  0 min, 11.275 sec
 *  cpu-time:     0 d,  0 h,  7 min, 19.324 sec
 * ratio c/w:    38.964 speedup

