19
 energy: -28.697515128559 gnorm: 0.000827174463 xtb: 6.5.0 (97a52f5)
C            1.98744255021781        0.78014864635005        0.98851738318466
N            1.09147288036747       -0.22279533220198        0.95073078472473
C           -0.12016371112264       -0.06762631874925        0.20823007012320
C           -0.20545566655719       -0.57284417081210       -1.08062864344848
C            1.23257004873313       -1.43891915817233        1.71403287492655
C           -1.20033540592875        0.59320326254028        0.77328283042032
C           -2.37079699224055        0.73756985117478        0.04936818490574
C           -2.46242600086434        0.22516264568107       -1.23334611508804
C           -1.37917167737759       -0.42643323681508       -1.79829699129614
H           -1.11520573811597        0.99916934182645        1.77009847617027
H            0.64878347373920       -1.06955337186994       -1.51620909664768
O            1.88767229173597        1.83291991250472        0.40950073718158
H            2.26832498461157       -1.55950698981769        2.02688941244141
H            0.93821838102312       -2.29295964902735        1.10189322691756
H            0.59319854055907       -1.41858615560085        2.60240125240688
H           -3.21176480231555        1.25429481091590        0.48726021452209
H           -1.44596014794324       -0.81704082867267       -2.80283781980186
H           -3.37671705154711        0.33968566141386       -1.79634016576651
H            2.86399903302556        0.52289905933216        1.61603739412375
