      -----------------------------------------------------------      
     |                   =====================                   |     
     |                           x T B                           |     
     |                   =====================                   |     
     |                         S. Grimme                         |     
     |          Mulliken Center for Theoretical Chemistry        |     
     |                    University of Bonn                     |     
      -----------------------------------------------------------      

   * xtb version 6.5.0 (97a52f5) compiled by 'conda@d2599ee0d4f4' on 2022-05-15

   xtb is free software: you can redistribute it and/or modify it under
   the terms of the GNU Lesser General Public License as published by
   the Free Software Foundation, either version 3 of the License, or
   (at your option) any later version.
   
   xtb is distributed in the hope that it will be useful,
   but WITHOUT ANY WARRANTY; without even the implied warranty of
   MERCHANTABILITY or FITNESS FOR A PARTICULAR PURPOSE.  See the
   GNU Lesser General Public License for more details.
   
   Cite this work as:
   * C. Bannwarth, E. Caldeweyher, S. Ehlert, A. Hansen, P. Pracht,
     J. Seibert, S. Spicher, S. Grimme, WIREs Comput. Mol. Sci., 2020, 11,
     e01493. DOI: 10.1002/wcms.1493
   
   for GFN2-xTB:
   * C. Bannwarth, S. Ehlert and S. Grimme., J. Chem. Theory Comput., 2019,
     15, 1652-1671. DOI: 10.1021/acs.jctc.8b01176
   for GFN1-xTB:
   * S. Grimme, C. Bannwarth, P. Shushkov, J. Chem. Theory Comput., 2017,
     13, 1989-2009. DOI: 10.1021/acs.jctc.7b00118
   for GFN0-xTB:
   * P. Pracht, E. Caldeweyher, S. Ehlert, S. Grimme, ChemRxiv, 2019, preprint.
     DOI: 10.26434/chemrxiv.8326202.v1
   for GFN-FF:
   * S. Spicher and S. Grimme, Angew. Chem. Int. Ed., 2020, 59, 15665-15673.
     DOI: 10.1002/anie.202004239
   
   for ALPB and GBSA implicit solvation:
   * S. Ehlert, M. Stahn, S. Spicher, S. Grimme, J. Chem. Theory Comput.,
     2021, 17, 4250-4261. DOI: 10.1021/acs.jctc.1c00471
   
   for DFT-D4:
   * E. Caldeweyher, C. Bannwarth and S. Grimme, J. Chem. Phys., 2017,
     147, 034112. DOI: 10.1063/1.4993215
   * E. Caldeweyher, S. Ehlert, A. Hansen, H. Neugebauer, S. Spicher,
     C. Bannwarth and S. Grimme, J. Chem. Phys., 2019, 150, 154122.
     DOI: 10.1063/1.5090222
   * E. Caldeweyher, J.-M. Mewes, S. Ehlert and S. Grimme, Phys. Chem. Chem. Phys.
     2020, 22, 8499-8512. DOI: 10.1039/D0CP00502A
   
   for sTDA-xTB:
   * S. Grimme and C. Bannwarth, J. Chem. Phys., 2016, 145, 054103.
     DOI: 10.1063/1.4959605
   
   in the mass-spec context:
   * V. Asgeirsson, C. Bauer and S. Grimme, Chem. Sci., 2017, 8, 4879.
     DOI: 10.1039/c7sc00601b
   * J. Koopman and S. Grimme, ACS Omega 2019, 4, 12, 15120-15133.
     DOI: 10.1021/acsomega.9b02011
   
   for metadynamics refer to:
   * S. Grimme, J. Chem. Theory Comput., 2019, 155, 2847-2862
     DOI: 10.1021/acs.jctc.9b00143
   
   for SPH calculations refer to:
   * S. Spicher and S. Grimme, J. Chem. Theory Comput., 2021, 17, 1701-1714
     DOI: 10.1021/acs.jctc.0c01306
   
   with help from (in alphabetical order)
   P. Atkinson, C. Bannwarth, F. Bohle, G. Brandenburg, E. Caldeweyher
   M. Checinski, S. Dohm, S. Ehlert, S. Ehrlich, I. Gerasimov, C. Hölzer
   A. Katbashev, J. Koopman, C. Lavigne, S. Lehtola, F. März, M. Müller,
   F. Musil, H. Neugebauer, J. Pisarek, C. Plett, P. Pracht, F. Pultar,
   J. Seibert, P. Shushkov, S. Spicher, M. Stahn, M. Steiner, T. Strunk,
   J. Stückrath, T. Rose, and J. Unsleber
   
 * started run on 2023/11/18 at 08:23:15.464     

           -------------------------------------------------
          |                Calculation Setup                |
           -------------------------------------------------

          program call               : /home/liuchw/anaconda3/envs/xtbenv/bin/xtb --gfn 2 --chrg 0 --uhf 0 3_24_Index_0-opt-2-5-191_preQMOPTprefit_xyzformat.xyz --opt --input xtb-opt-2-5-191_constr.txt
          hostname                   : node165.bme.utexas.edu
          coordinate file            : 3_24_Index_0-opt-2-5-191_preQMOPTprefit_xyzformat.xyz
          omp threads                :                    64

   ID    Z sym.   atoms
    1    6 C      1, 3-9
    2    7 N      2
    3    1 H      10, 11, 13-19
    4    8 O      12
constraining angle 1 2 5 14 to  191.0084737°, actual value: -168.9915263°
constraining angle 1 2 3 4 to   37.0918984°, actual value:   37.0918984°
constraining angle 12 1 2 3 to  357.9970446°, actual value:   -2.0029554°

           -------------------------------------------------
          |                 G F N 2 - x T B                 |
           -------------------------------------------------

        Reference                      10.1021/acs.jctc.8b01176
      * Hamiltonian:
        H0-scaling (s, p, d)           1.850000    2.230000    2.230000
        zeta-weighting                 0.500000
      * Dispersion:
        s8                             2.700000
        a1                             0.520000
        a2                             5.000000
        s9                             5.000000
      * Repulsion:
        kExp                           1.500000    1.000000
        rExp                           1.000000
      * Coulomb:
        alpha                          2.000000
        third order                    shell-resolved
        anisotropic                    true
        a3                             3.000000
        a5                             4.000000
        cn-shift                       1.200000
        cn-exp                         4.000000
        max-rad                        5.000000

q/qsh data taken from xtbrestart
CAMM data taken from xtbrestart

          ...................................................
          :                      SETUP                      :
          :.................................................:
          :  # basis functions                  49          :
          :  # atomic orbitals                  49          :
          :  # shells                           29          :
          :  # electrons                        52          :
          :  max. iterations                   250          :
          :  Hamiltonian                  GFN2-xTB          :
          :  restarted?                       true          :
          :  GBSA solvation                  false          :
          :  PC potential                    false          :
          :  electronic temp.          300.0000000     K    :
          :  accuracy                    1.0000000          :
          :  -> integral cutoff          0.2500000E+02      :
          :  -> integral neglect         0.1000000E-07      :
          :  -> SCF convergence          0.1000000E-05 Eh   :
          :  -> wf. convergence          0.1000000E-03 e    :
          :  Broyden damping             0.4000000          :
          ...................................................

 iter      E             dE          RMSdq      gap      omega  full diag
   1    -29.0846524 -0.290847E+02  0.139E+00    3.87       0.0  T
   2    -29.0884214 -0.376891E-02  0.845E-01    3.77       1.0  T
   3    -29.0879806  0.440736E-03  0.388E-01    3.80       1.0  T
   4    -29.0890905 -0.110986E-02  0.135E-01    3.78       1.0  T
   5    -29.0893313 -0.240810E-03  0.512E-02    3.78       1.0  T
   6    -29.0893310  0.239708E-06  0.209E-02    3.78       1.1  T
   7    -29.0893334 -0.232792E-05  0.397E-03    3.78       5.8  T
   8    -29.0893335 -0.164420E-06  0.155E-03    3.78      14.8  T
   9    -29.0893335 -0.848778E-08  0.658E-04    3.78      34.9  T
  10    -29.0893336 -0.314751E-08  0.219E-04    3.78     104.7  T

   *** convergence criteria satisfied after 10 iterations ***

         #    Occupation            Energy/Eh            Energy/eV
      -------------------------------------------------------------
         1        2.0000           -0.6942409             -18.8913
       ...           ...                  ...                  ...
        20        2.0000           -0.4775129             -12.9938
        21        2.0000           -0.4419258             -12.0254
        22        2.0000           -0.4362847             -11.8719
        23        2.0000           -0.4224873             -11.4965
        24        2.0000           -0.4074975             -11.0886
        25        2.0000           -0.3986719             -10.8484
        26        2.0000           -0.3854723             -10.4892 (HOMO)
        27                         -0.2466148              -6.7107 (LUMO)
        28                         -0.2326442              -6.3306
        29                         -0.2167259              -5.8974
        30                         -0.1102742              -3.0007
        31                         -0.0529586              -1.4411
       ...                                ...                  ...
        49                          0.6054048              16.4739
      -------------------------------------------------------------
                  HL-Gap            0.1388574 Eh            3.7785 eV
             Fermi-level           -0.3160436 Eh           -8.6000 eV

 SCC (total)                   0 d,  0 h,  0 min,  1.384 sec
 SCC setup                      ...        0 min,  0.016 sec (  1.163%)
 Dispersion                     ...        0 min,  0.044 sec (  3.205%)
 classical contributions        ...        0 min,  0.018 sec (  1.299%)
 integral evaluation            ...        0 min,  0.067 sec (  4.820%)
 iterations                     ...        0 min,  1.081 sec ( 78.106%)
 molecular gradient             ...        0 min,  0.157 sec ( 11.371%)
 printout                       ...        0 min,  0.000 sec (  0.012%)

         :::::::::::::::::::::::::::::::::::::::::::::::::::::
         ::                     SUMMARY                     ::
         :::::::::::::::::::::::::::::::::::::::::::::::::::::
         :: total energy             -28.689296741873 Eh    ::
         :: gradient norm              0.067232576348 Eh/a0 ::
         :: HOMO-LUMO gap              3.778502634360 eV    ::
         ::.................................................::
         :: SCC energy               -29.089333551319 Eh    ::
         :: -> isotropic ES            0.033217936426 Eh    ::
         :: -> anisotropic ES          0.003470412897 Eh    ::
         :: -> anisotropic XC          0.015555147337 Eh    ::
         :: -> dispersion             -0.015589859926 Eh    ::
         :: repulsion energy           0.399977654343 Eh    ::
         :: add. restraining           0.000000000000 Eh    ::
         :: total charge              -0.000000000000 e     ::
         :::::::::::::::::::::::::::::::::::::::::::::::::::::

      ----------------------------------------------------------- 
     |                   =====================                   |
     |                        A N C O P T                        |
     |                   =====================                   |
     |               Approximate Normal Coordinate               |
     |                Rational Function Optimizer                |
      ----------------------------------------------------------- 

          ...................................................
          :                      SETUP                      :
          :.................................................:
          :   optimization level            normal          :
          :   max. optcycles                   200          :
          :   ANC micro-cycles                  20          :
          :   degrees of freedom                51          :
          :.................................................:
          :   RF solver                   davidson          :
          :   write xtbopt.log                true          :
          :   linear?                        false          :
          :   energy convergence         0.5000000E-05 Eh   :
          :   grad. convergence          0.1000000E-02 Eh/α :
          :   maximium RF displ.         1.0000000          :
          :   Hlow (freq-cutoff)         0.1000000E-01      :
          :   Hmax (freq-cutoff)         5.0000000          :
          :   S6 in model hess.         20.0000000          :
          ...................................................

generating ANC from model Hessian ...
Using Lindh-Hessian (1995)
 Shifting diagonal of input Hessian by    7.1521605624520999E-003
 Lowest  eigenvalues of input Hessian
    0.000000    0.000000    0.000000    0.000000    0.000000    0.000000
    0.010000    0.011372    0.013587    0.018888    0.020225    0.022463
    0.023515    0.029125    0.034706    0.043766    0.053080    0.067023
 Highest eigenvalues
    1.875536    1.926080    2.197694    2.618877    3.717769   21.225137


........................................................................
.............................. CYCLE    1 ..............................
........................................................................
   1    -29.0893336 -0.290893E+02  0.919E-05    3.78       0.0  T
   2    -29.0893336 -0.234870E-10  0.592E-05    3.78     387.3  T
   3    -29.0893336 -0.749978E-11  0.381E-05    3.78     601.9  T
     SCC iter.                  ...        0 min,  0.285 sec
     gradient                   ...        0 min,  0.174 sec
 * total energy  :   -28.6892967 Eh     change       -0.2379252E-09 Eh
   gradient norm :     0.0672309 Eh/α   predicted     0.0000000E+00 (-100.00%)
   displ. norm   :     0.3482281 α      lambda       -0.1315007E-01
   maximum displ.:     0.2018058 α      in ANC's #11, #7, #15, ...

........................................................................
.............................. CYCLE    2 ..............................
........................................................................
   1    -29.1337489 -0.291337E+02  0.312E-01    3.95       0.0  T
   2    -29.1339493 -0.200400E-03  0.206E-01    3.97       1.0  T
   3    -29.1339401  0.924348E-05  0.103E-01    3.96       1.0  T
   4    -29.1340120 -0.718964E-04  0.232E-02    3.97       1.0  T
   5    -29.1340190 -0.703972E-05  0.618E-03    3.97       3.7  T
   6    -29.1340192 -0.224346E-06  0.272E-03    3.97       8.4  T
   7    -29.1340193 -0.278308E-07  0.131E-03    3.97      17.5  T
   8    -29.1340193 -0.190000E-08  0.377E-04    3.97      60.8  T
   9    -29.1340193 -0.939181E-09  0.132E-04    3.97     173.4  T
     SCC iter.                  ...        0 min,  1.079 sec
     gradient                   ...        0 min,  0.151 sec
 * total energy  :   -28.6976331 Eh     change       -0.8336390E-02 Eh
   gradient norm :     0.0284531 Eh/α   predicted    -0.7373672E-02 ( -11.55%)
   displ. norm   :     0.2708384 α      lambda       -0.2696226E-02
   maximum displ.:     0.1474979 α      in ANC's #11, #2, #6, ...

........................................................................
.............................. CYCLE    3 ..............................
........................................................................
   1    -29.1532192 -0.291532E+02  0.180E-01    4.00       0.0  T
   2    -29.1533486 -0.129412E-03  0.123E-01    4.02       1.0  T
   3    -29.1533656 -0.170564E-04  0.621E-02    4.02       1.0  T
   4    -29.1533711 -0.543843E-05  0.199E-02    4.02       1.2  T
   5    -29.1533767 -0.558421E-05  0.320E-03    4.02       7.2  T
   6    -29.1533767 -0.363712E-07  0.163E-03    4.02      14.1  T
   7    -29.1533767 -0.108542E-07  0.646E-04    4.02      35.5  T
   8    -29.1533767 -0.825754E-09  0.228E-04    4.02     100.4  T
     SCC iter.                  ...        0 min,  0.884 sec
     gradient                   ...        0 min,  0.206 sec
 * total energy  :   -28.6985152 Eh     change       -0.8820623E-03 Eh
   gradient norm :     0.1157715 Eh/α   predicted    -0.1447003E-02 (  64.05%)
   displ. norm   :     0.1782273 α      lambda       -0.1827907E-02
   maximum displ.:     0.1424273 α      in ANC's #2, #11, #7, ...

........................................................................
.............................. CYCLE    4 ..............................
........................................................................
   1    -29.1569166 -0.291569E+02  0.933E-02    4.01       0.0  T
   2    -29.1569488 -0.321567E-04  0.625E-02    4.02       1.0  T
   3    -29.1569514 -0.264944E-05  0.304E-02    4.02       1.0  T
   4    -29.1569531 -0.161994E-05  0.995E-03    4.02       2.3  T
   5    -29.1569545 -0.144651E-05  0.140E-03    4.02      16.4  T
   6    -29.1569545 -0.462746E-08  0.669E-04    4.02      34.3  T
   7    -29.1569545 -0.176423E-08  0.250E-04    4.02      91.7  T
     SCC iter.                  ...        0 min,  0.766 sec
     gradient                   ...        0 min,  0.200 sec
 * total energy  :   -28.6981641 Eh     change        0.3510569E-03 Eh
   gradient norm :     0.1845578 Eh/α   predicted    -0.9429850E-03 (-368.61%)
   displ. norm   :     0.1134412 α      lambda       -0.2109285E-02
   maximum displ.:     0.0577189 α      in ANC's #11, #3, #2, ...

........................................................................
.............................. CYCLE    5 ..............................
........................................................................
   1    -29.1478113 -0.291478E+02  0.926E-02    3.99       0.0  T
   2    -29.1478267 -0.153868E-04  0.596E-02    3.98       1.0  T
   3    -29.1478248  0.189748E-05  0.265E-02    3.99       1.0  T
   4    -29.1478300 -0.514933E-05  0.648E-03    3.98       3.5  T
   5    -29.1478306 -0.642925E-06  0.166E-03    3.98      13.8  T
   6    -29.1478306 -0.790398E-08  0.804E-04    3.98      28.5  T
   7    -29.1478306 -0.254756E-08  0.287E-04    3.98      79.8  T
     SCC iter.                  ...        0 min,  0.768 sec
     gradient                   ...        0 min,  0.163 sec
 * total energy  :   -28.6992146 Eh     change       -0.1050426E-02 Eh
   gradient norm :     0.0103794 Eh/α   predicted    -0.1068227E-02 (   1.69%)
   displ. norm   :     0.1213620 α      lambda       -0.2618077E-03
   maximum displ.:     0.0978009 α      in ANC's #2, #4, #7, ...

........................................................................
.............................. CYCLE    6 ..............................
........................................................................
   1    -29.1487393 -0.291487E+02  0.873E-02    3.98       0.0  T
   2    -29.1487399 -0.573091E-06  0.519E-02    3.98       1.0  T
   3    -29.1487395  0.361520E-06  0.546E-03    3.98       4.2  T
   4    -29.1487401 -0.592164E-06  0.184E-03    3.98      12.5  T
   5    -29.1487402 -0.147243E-07  0.965E-04    3.98      23.8  T
   6    -29.1487402 -0.262751E-08  0.237E-04    3.98      96.8  T
     SCC iter.                  ...        0 min,  0.651 sec
     gradient                   ...        0 min,  0.143 sec
 * total energy  :   -28.6993808 Eh     change       -0.1662330E-03 Eh
   gradient norm :     0.0120378 Eh/α   predicted    -0.1328361E-03 ( -20.09%)
   displ. norm   :     0.1329233 α      lambda       -0.1579558E-03
   maximum displ.:     0.1184501 α      in ANC's #2, #4, #3, ...

........................................................................
.............................. CYCLE    7 ..............................
........................................................................
   1    -29.1488969 -0.291489E+02  0.567E-02    3.97       0.0  T
   2    -29.1488976 -0.687778E-06  0.331E-02    3.97       1.0  T
   3    -29.1488972  0.406935E-06  0.685E-03    3.97       3.3  T
   4    -29.1488978 -0.588212E-06  0.150E-03    3.97      15.3  T
   5    -29.1488978 -0.997693E-08  0.632E-04    3.97      36.3  T
   6    -29.1488978 -0.808807E-09  0.242E-04    3.97      95.0  T
     SCC iter.                  ...        0 min,  0.610 sec
     gradient                   ...        0 min,  0.147 sec
 * total energy  :   -28.6995159 Eh     change       -0.1351271E-03 Eh
   gradient norm :     0.0088389 Eh/α   predicted    -0.8037583E-04 ( -40.52%)
   displ. norm   :     0.1614503 α      lambda       -0.1608440E-03
   maximum displ.:     0.1452915 α      in ANC's #2, #4, #10, ...

........................................................................
.............................. CYCLE    8 ..............................
........................................................................
   1    -29.1489743 -0.291490E+02  0.680E-02    3.96       0.0  T
   2    -29.1489753 -0.101747E-05  0.397E-02    3.96       1.0  T
   3    -29.1489747  0.606158E-06  0.801E-03    3.96       2.9  T
   4    -29.1489755 -0.861690E-06  0.181E-03    3.96      12.7  T
   5    -29.1489756 -0.157553E-07  0.696E-04    3.96      33.0  T
   6    -29.1489756 -0.339643E-09  0.275E-04    3.96      83.5  T
     SCC iter.                  ...        0 min,  0.643 sec
     gradient                   ...        0 min,  0.172 sec
 * total energy  :   -28.6996398 Eh     change       -0.1239052E-03 Eh
   gradient norm :     0.0020822 Eh/α   predicted    -0.8251784E-04 ( -33.40%)
   displ. norm   :     0.1315452 α      lambda       -0.7923292E-04
   maximum displ.:     0.1220059 α      in ANC's #2, #4, #10, ...

........................................................................
.............................. CYCLE    9 ..............................
........................................................................
   1    -29.1491760 -0.291492E+02  0.562E-02    3.96       0.0  T
   2    -29.1491767 -0.700364E-06  0.328E-02    3.96       1.0  T
   3    -29.1491761  0.564352E-06  0.728E-03    3.96       3.2  T
   4    -29.1491769 -0.757395E-06  0.142E-03    3.96      16.2  T
   5    -29.1491769 -0.936168E-08  0.558E-04    3.96      41.1  T
   6    -29.1491769 -0.331212E-09  0.226E-04    3.96     101.4  T
     SCC iter.                  ...        0 min,  0.680 sec
     gradient                   ...        0 min,  0.131 sec
 * total energy  :   -28.6996983 Eh     change       -0.5850050E-04 Eh
   gradient norm :     0.0035541 Eh/α   predicted    -0.4030370E-04 ( -31.11%)
   displ. norm   :     0.0804702 α      lambda       -0.3064872E-04
   maximum displ.:     0.0762800 α      in ANC's #2, #4, #10, ...

........................................................................
.............................. CYCLE   10 ..............................
........................................................................
   1    -29.1493337 -0.291493E+02  0.364E-02    3.96       0.0  T
   2    -29.1493340 -0.233572E-06  0.213E-02    3.96       1.1  T
   3    -29.1493338  0.185538E-06  0.404E-03    3.96       5.7  T
   4    -29.1493340 -0.250877E-06  0.830E-04    3.96      27.6  T
   5    -29.1493340 -0.352562E-08  0.341E-04    3.96      67.4  T
     SCC iter.                  ...        0 min,  0.531 sec
     gradient                   ...        0 min,  0.133 sec
 * total energy  :   -28.6997182 Eh     change       -0.1991240E-04 Eh
   gradient norm :     0.0021444 Eh/α   predicted    -0.1542385E-04 ( -22.54%)
   displ. norm   :     0.0548118 α      lambda       -0.1702274E-04
   maximum displ.:     0.0502479 α      in ANC's #2, #1, #3, ...

........................................................................
.............................. CYCLE   11 ..............................
........................................................................
   1    -29.1495290 -0.291495E+02  0.265E-02    3.95       0.0  T
   2    -29.1495291 -0.958381E-07  0.154E-02    3.95       1.5  T
   3    -29.1495290  0.952818E-07  0.297E-03    3.95       7.7  T
   4    -29.1495291 -0.127867E-06  0.512E-04    3.95      44.8  T
   5    -29.1495291 -0.103356E-08  0.229E-04    3.95     100.2  T
     SCC iter.                  ...        0 min,  0.457 sec
     gradient                   ...        0 min,  0.159 sec
 * total energy  :   -28.6997265 Eh     change       -0.8214939E-05 Eh
   gradient norm :     0.0032866 Eh/α   predicted    -0.8537270E-05 (   3.92%)
   displ. norm   :     0.0185083 α      lambda       -0.4246532E-05
   maximum displ.:     0.0168151 α      in ANC's #2, #1, #10, ...

........................................................................
.............................. CYCLE   12 ..............................
........................................................................
   1    -29.1494681 -0.291495E+02  0.912E-03    3.95       0.0  T
   2    -29.1494681 -0.855755E-08  0.534E-03    3.95       4.3  T
   3    -29.1494681  0.672089E-08  0.772E-04    3.95      29.7  T
   4    -29.1494681 -0.940831E-08  0.164E-04    3.95     140.2  T
     SCC iter.                  ...        0 min,  0.393 sec
     gradient                   ...        0 min,  0.150 sec
 * total energy  :   -28.6997294 Eh     change       -0.2985471E-05 Eh
   gradient norm :     0.0010672 Eh/α   predicted    -0.2125912E-05 ( -28.79%)
   displ. norm   :     0.0228754 α      lambda       -0.1632660E-05
   maximum displ.:     0.0192338 α      in ANC's #2, #1, #3, ...

........................................................................
.............................. CYCLE   13 ..............................
........................................................................
   1    -29.1494894 -0.291495E+02  0.116E-02    3.95       0.0  T
   2    -29.1494894 -0.850617E-08  0.680E-03    3.95       3.4  T
   3    -29.1494894  0.116269E-07  0.948E-04    3.95      24.2  T
   4    -29.1494894 -0.153439E-07  0.145E-04    3.95     158.3  T
     SCC iter.                  ...        0 min,  0.388 sec
     gradient                   ...        0 min,  0.147 sec
 * total energy  :   -28.6997306 Eh     change       -0.1158357E-05 Eh
   gradient norm :     0.0005617 Eh/α   predicted    -0.8180875E-06 ( -29.38%)
   displ. norm   :     0.0056179 α      lambda       -0.2749967E-06
   maximum displ.:     0.0038881 α      in ANC's #2, #1, #6, ...

   *** GEOMETRY OPTIMIZATION CONVERGED AFTER 13 ITERATIONS ***

------------------------------------------------------------------------
 total energy gain   :        -0.0104339 Eh       -6.5473 kcal/mol
 total RMSD          :         0.2774831 a0        0.1468 Å
 total power (kW/mol):        -2.1072379 (step)   -2.3884 (real)
------------------------------------------------------------------------

 ANCopt (total)                0 d,  0 h,  0 min, 11.469 sec
 optimizer setup                ...        0 min,  0.000 sec (  0.002%)
 model hessian                  ...        0 min,  0.005 sec (  0.041%)
 ANC generation                 ...        0 min,  0.001 sec (  0.007%)
 coordinate transformation      ...        0 min,  0.000 sec (  0.003%)
 single point calculation       ...        0 min, 11.290 sec ( 98.437%)
 optimization log               ...        0 min,  0.009 sec (  0.076%)
 hessian update                 ...        0 min,  0.142 sec (  1.237%)
 rational function              ...        0 min,  0.021 sec (  0.184%)

================
 final structure:
================
19
 xtb: 6.5.0 (97a52f5)
C            2.23852458478131        0.32582658602581        0.52499331921142
N            1.08237247649724       -0.27052579250569        0.90298017522485
C           -0.11594451370992       -0.12417674971075        0.16739142152349
C           -0.08675010403009       -0.07373161776642       -1.22325455314380
C            1.05655994881524       -0.98099592244358        2.16648289337654
C           -1.33665674606959       -0.00062822101682        0.82664608217248
C           -2.50651220664164        0.14528949938298        0.10374217137811
C           -2.47552967838529        0.18451945168467       -1.27924785294928
C           -1.26149845085256        0.07990524416697       -1.93609120169040
H           -1.38000977752201        0.00210184422236        1.90527088078452
H            0.85301880949552       -0.15498866449199       -1.74278428426675
O            2.42521137957330        1.00305144132103       -0.45389068675173
H            1.90947362629454       -1.65788761624417        2.22668762438808
H            0.14017155464052       -1.56124766200643        2.23872655537051
H            1.09808751351334       -0.29042954289596        3.01380011754361
H           -3.44607891910443        0.23879337815584        0.62827626247389
H           -1.22533911350475        0.11486588834600       -3.01458046917577
H           -3.39064631963915        0.30201727588423       -1.83973019419302
H            3.04522793584848        0.11702717989199        1.25516672872309

 Bond Distances (Angstroems)
 ---------------------------
C1-N2=1.3547         C1-O12=1.2049        C1-H19=1.1079        N2-C1=1.3547         N2-C3=1.4137         N2-C5=1.4498         
C3-N2=1.4137         C3-C4=1.3919         C3-C6=1.3928         C4-C3=1.3919         C4-C9=1.3827         C4-H11=1.0769        
C5-N2=1.4498         C5-H13=1.0905        C5-H14=1.0871        C5-H15=1.0939        C6-C3=1.3928         C6-C7=1.3829         
C6-H10=1.0795        C7-C6=1.3829         C7-C8=1.3839         C7-H16=1.0801        C8-C7=1.3839         C8-C9=1.3843         
C8-H18=1.0795        C9-C4=1.3827         C9-C8=1.3843         C9-H17=1.0797        H10-C6=1.0795        H11-C4=1.0769        
O12-C1=1.2049        H13-C5=1.0905        H14-C5=1.0871        H15-C5=1.0939        H16-C7=1.0801        H17-C9=1.0797        
H18-C8=1.0795        H19-C1=1.1079        
 C  H  Rav=1.0861 sigma=0.0095  Rmin=1.0769  Rmax=1.1079     9
 C  C  Rav=1.3864 sigma=0.0042  Rmin=1.3827  Rmax=1.3928     6
 N  C  Rav=1.4061 sigma=0.0392  Rmin=1.3547  Rmax=1.4498     3
 O  C  Rav=1.2049 sigma=0.0000  Rmin=1.2049  Rmax=1.2049     1

 selected bond angles (degree)
 --------------------
O12-C1-N2=127.33               H19-C1-N2=110.77               H19-C1-O12=121.91              C3-N2-C1=122.19                
C5-N2-C1=118.30                C5-N2-C3=119.28                C4-C3-N2=120.39                C6-C3-N2=120.38                
C6-C3-C4=119.21                C9-C4-C3=120.09                H11-C4-C3=119.84               H11-C4-C9=120.07               
H13-C5-N2=109.78               H14-C5-N2=109.54               H14-C5-H13=108.93              H15-C5-N2=111.41               
H15-C5-H13=108.63              H15-C5-H14=108.51              C7-C6-C3=120.22                H10-C6-C3=120.55               
H10-C6-C7=119.21               C8-C7-C6=120.43                H16-C7-C6=119.42               H16-C7-C8=120.15               
C9-C8-C7=119.45                H18-C8-C7=120.20               H18-C8-C9=120.35               C8-C9-C4=120.59                
H17-C9-C4=119.35               H17-C9-C8=120.06               

 selected dihedral angles (degree)
 ---------------------------------
C3-N2-C1-O12=358.01           C3-N2-C1-H19=177.82           C5-N2-C1-O12=183.57           C5-N2-C1-H19=  3.38           
C4-C3-N2-C1= 37.13            C4-C3-N2-C5=211.51            C6-C3-N2-C1=218.48            C6-C3-N2-C5= 32.86            
C9-C4-C3-N2=180.50            C9-C4-C3-C6=359.16            H11-C4-C3-N2=  0.52           H11-C4-C3-C6=179.19           
H13-C5-N2-C1=310.61           H13-C5-N2-C3=136.00           H14-C5-N2-C1=191.04           H14-C5-N2-C3= 16.44           
H15-C5-N2-C1= 70.97           H15-C5-N2-C3=256.37           C7-C6-C3-N2=179.86            C7-C6-C3-C4=  1.19            
H10-C6-C3-N2=  1.07           H10-C6-C3-C4=182.40           C8-C7-C6-C3=359.30            C8-C7-C6-H10=178.11           
H16-C7-C6-C3=179.92           H16-C7-C6-H10=358.73          C9-C8-C7-C6=359.83            C9-C8-C7-H16=179.20           
H18-C8-C7-C6=180.21           H18-C8-C7-H16=359.59          C8-C9-C4-C3=  0.00            C8-C9-C4-H11=179.96           
H17-C9-C4-C3=180.16           H17-C9-C4-H11=  0.14          C4-C9-C8-C7=  0.53            C4-C9-C8-H18=180.15           
H17-C9-C8-C7=180.34           H17-C9-C8-H18=359.96          
           -------------------------------------------------
          |                Final Singlepoint                |
           -------------------------------------------------

          ...................................................
          :                      SETUP                      :
          :.................................................:
          :  # basis functions                  49          :
          :  # atomic orbitals                  49          :
          :  # shells                           29          :
          :  # electrons                        52          :
          :  max. iterations                   250          :
          :  Hamiltonian                  GFN2-xTB          :
          :  restarted?                      false          :
          :  GBSA solvation                  false          :
          :  PC potential                    false          :
          :  electronic temp.          300.0000000     K    :
          :  accuracy                    1.0000000          :
          :  -> integral cutoff          0.2500000E+02      :
          :  -> integral neglect         0.1000000E-07      :
          :  -> SCF convergence          0.1000000E-05 Eh   :
          :  -> wf. convergence          0.1000000E-03 e    :
          :  Broyden damping             0.4000000          :
          ...................................................

 iter      E             dE          RMSdq      gap      omega  full diag
   1    -29.1494894 -0.291495E+02  0.624E-05    3.95       0.0  T
   2    -29.1494894 -0.582645E-11  0.362E-05    3.95     633.5  T
   3    -29.1494894  0.227374E-12  0.179E-05    3.95    1281.5  T

   *** convergence criteria satisfied after 3 iterations ***

         #    Occupation            Energy/Eh            Energy/eV
      -------------------------------------------------------------
         1        2.0000           -0.7023226             -19.1112
       ...           ...                  ...                  ...
        20        2.0000           -0.4799356             -13.0597
        21        2.0000           -0.4410622             -12.0019
        22        2.0000           -0.4390523             -11.9472
        23        2.0000           -0.4256062             -11.5813
        24        2.0000           -0.4096834             -11.1481
        25        2.0000           -0.3974657             -10.8156
        26        2.0000           -0.3849128             -10.4740 (HOMO)
        27                         -0.2396816              -6.5221 (LUMO)
        28                         -0.2276010              -6.1933
        29                         -0.2011832              -5.4745
        30                         -0.0948676              -2.5815
        31                         -0.0088738              -0.2415
       ...                                ...                  ...
        49                          0.6708612              18.2551
      -------------------------------------------------------------
                  HL-Gap            0.1452312 Eh            3.9519 eV
             Fermi-level           -0.3122972 Eh           -8.4980 eV

 SCC (total)                   0 d,  0 h,  0 min,  0.533 sec
 SCC setup                      ...        0 min,  0.005 sec (  0.995%)
 Dispersion                     ...        0 min,  0.027 sec (  5.106%)
 classical contributions        ...        0 min,  0.010 sec (  1.903%)
 integral evaluation            ...        0 min,  0.027 sec (  4.980%)
 iterations                     ...        0 min,  0.325 sec ( 61.078%)
 molecular gradient             ...        0 min,  0.138 sec ( 25.869%)
 printout                       ...        0 min,  0.000 sec (  0.032%)

         :::::::::::::::::::::::::::::::::::::::::::::::::::::
         ::                     SUMMARY                     ::
         :::::::::::::::::::::::::::::::::::::::::::::::::::::
         :: total energy             -28.699730600754 Eh    ::
         :: gradient norm              0.000561857953 Eh/a0 ::
         :: HOMO-LUMO gap              3.951940911497 eV    ::
         ::.................................................::
         :: SCC energy               -29.149489397767 Eh    ::
         :: -> isotropic ES            0.032800457867 Eh    ::
         :: -> anisotropic ES          0.003214013733 Eh    ::
         :: -> anisotropic XC          0.013840935047 Eh    ::
         :: -> dispersion             -0.015965820919 Eh    ::
         :: repulsion energy           0.449702062692 Eh    ::
         :: add. restraining           0.000001845683 Eh    ::
         :: total charge              -0.000000000000 e     ::
         :::::::::::::::::::::::::::::::::::::::::::::::::::::

           -------------------------------------------------
          |                Property Printout                |
           -------------------------------------------------

    * Orbital Energies and Occupations

         #    Occupation            Energy/Eh            Energy/eV
      -------------------------------------------------------------
         1        2.0000           -0.7023226             -19.1112
       ...           ...                  ...                  ...
        14        2.0000           -0.5124965             -13.9457
        15        2.0000           -0.5086363             -13.8407
        16        2.0000           -0.4991266             -13.5819
        17        2.0000           -0.4951431             -13.4735
        18        2.0000           -0.4865868             -13.2407
        19        2.0000           -0.4828431             -13.1388
        20        2.0000           -0.4799356             -13.0597
        21        2.0000           -0.4410622             -12.0019
        22        2.0000           -0.4390523             -11.9472
        23        2.0000           -0.4256062             -11.5813
        24        2.0000           -0.4096834             -11.1481
        25        2.0000           -0.3974657             -10.8156
        26        2.0000           -0.3849128             -10.4740 (HOMO)
        27                         -0.2396816              -6.5221 (LUMO)
        28                         -0.2276010              -6.1933
        29                         -0.2011832              -5.4745
        30                         -0.0948676              -2.5815
        31                         -0.0088738              -0.2415
        32                          0.0801937               2.1822
        33                          0.1129720               3.0741
        34                          0.1341861               3.6514
        35                          0.1431006               3.8940
        36                          0.1557014               4.2368
        37                          0.1745917               4.7509
       ...                                ...                  ...
        49                          0.6708612              18.2551
      -------------------------------------------------------------
                  HL-Gap            0.1452312 Eh            3.9519 eV
             Fermi-level           -0.3122972 Eh           -8.4980 eV

     #   Z          covCN         q      C6AA      α(0)
     1   6 C        2.714     0.248    22.837     7.823
     2   7 N        2.734    -0.078    22.766     7.086
     3   6 C        2.919     0.069    26.457     8.435
     4   6 C        2.922    -0.037    28.916     8.818
     5   6 C        3.702    -0.050    21.633     6.651
     6   6 C        2.922    -0.049    29.227     8.866
     7   6 C        2.920    -0.029    28.734     8.790
     8   6 C        2.919    -0.034    28.840     8.806
     9   6 C        2.921    -0.026    28.660     8.779
    10   1 H        0.926     0.034     2.524     2.485
    11   1 H        0.926     0.062     2.170     2.304
    12   8 O        0.857    -0.399    21.666     6.241
    13   1 H        0.924     0.057     2.231     2.336
    14   1 H        0.925     0.069     2.102     2.267
    15   1 H        0.924     0.053     2.286     2.365
    16   1 H        0.926     0.034     2.525     2.485
    17   1 H        0.926     0.040     2.452     2.449
    18   1 H        0.926     0.035     2.515     2.480
    19   1 H        0.922     0.002     3.026     2.720

 Mol. C6AA /au·bohr⁶  :       4193.135799
 Mol. C8AA /au·bohr⁸  :      98817.525579
 Mol. α(0) /au        :        102.184886


Wiberg/Mayer (AO) data.
largest (>0.10) Wiberg bond orders for each atom

 ---------------------------------------------------------------------------
     #   Z sym  total        # sym  WBO       # sym  WBO       # sym  WBO
 ---------------------------------------------------------------------------
     1   6 C    3.954 --    12 O    1.738     2 N    1.233    19 H    0.920
     2   7 N    3.539 --     1 C    1.233     3 C    1.031     5 C    0.995
                            12 O    0.192
     3   6 C    3.960 --     4 C    1.382     6 C    1.382     2 N    1.031
                             8 C    0.101
     4   6 C    3.989 --     9 C    1.449     3 C    1.382    11 H    0.965
                             7 C    0.109
     5   6 C    3.970 --     2 N    0.995    14 H    0.979    13 H    0.978
                            15 H    0.977
     6   6 C    3.990 --     7 C    1.449     3 C    1.382    10 H    0.967
                             9 C    0.108
     7   6 C    3.992 --     6 C    1.449     8 C    1.435    16 H    0.971
                             4 C    0.109
     8   6 C    3.992 --     7 C    1.435     9 C    1.435    18 H    0.971
                             3 C    0.101
     9   6 C    3.992 --     4 C    1.449     8 C    1.435    17 H    0.970
                             6 C    0.108
    10   1 H    0.999 --     6 C    0.967
    11   1 H    0.996 --     4 C    0.965
    12   8 O    2.044 --     1 C    1.738     2 N    0.192
    13   1 H    0.996 --     5 C    0.978
    14   1 H    0.995 --     5 C    0.979
    15   1 H    0.997 --     5 C    0.977
    16   1 H    0.998 --     7 C    0.971
    17   1 H    0.998 --     9 C    0.970
    18   1 H    0.999 --     8 C    0.971
    19   1 H    0.999 --     1 C    0.920
 ---------------------------------------------------------------------------

Topologies differ in total number of bonds
Writing topology from bond orders to xtbtopo.mol

molecular dipole:
                 x           y           z       tot (Debye)
 q only:       -0.750      -0.890       0.898
   full:       -0.707      -0.980       1.160       4.258
molecular quadrupole (traceless):
                xx          xy          yy          xz          yz          zz
 q only:       -4.057      -5.231      -1.876       5.250      -0.811       5.933
  q+dip:       -1.953      -6.892      -5.776       6.656       0.071       7.729
   full:       -3.545      -6.625      -2.999       6.621       0.282       6.544

           -------------------------------------------------
          |                Geometry Summary                 |
           -------------------------------------------------

      molecular mass/u    :      135.1634621
   center of mass at/Å    :       -0.0174202       0.0296951       0.0169772
  moments of inertia/u·Å² :        0.1987892E+03   0.4794364E+03   0.6386543E+03
rotational constants/cm⁻¹ :        0.8480156E-01   0.3516135E-01   0.2639555E-01

 * 18 selected distances

     #   Z          #   Z                                           value/Å
     1   6 C        2   7 N                                       1.3546949
     2   7 N        3   6 C                                       1.4136735
     3   6 C        4   6 C                                       1.3918670
     2   7 N        5   6 C                                       1.4497840 (max)
     3   6 C        6   6 C                                       1.3928459
     6   6 C        7   6 C                                       1.3829115
     7   6 C        8   6 C                                       1.3838933
     4   6 C        9   6 C                                       1.3826693
     8   6 C        9   6 C                                       1.3842902
     6   6 C       10   1 H                                       1.0794992
     4   6 C       11   1 H                                       1.0768842 (min)
     1   6 C       12   8 O                                       1.2048650
     5   6 C       13   1 H                                       1.0905361
     5   6 C       14   1 H                                       1.0870507
     5   6 C       15   1 H                                       1.0938707
     7   6 C       16   1 H                                       1.0801226
     9   6 C       17   1 H                                       1.0796615
     8   6 C       18   1 H                                       1.0795299

 * 4 distinct bonds (by element types)

   Z      Z             #   av. dist./Å        max./Å        min./Å
   1 H    6 C           8     1.0833944     1.0938707     1.0768842
   6 C    6 C           6     1.3864129     1.3928459     1.3826693
   6 C    7 N           3     1.4060508     1.4497840     1.3546949
   6 C    8 O           1     1.2048650     1.2048650     1.2048650


optimized geometry written to: xtbopt.xyz


           -------------------------------------------------
          | TOTAL ENERGY              -28.699730600754 Eh   |
          | GRADIENT NORM               0.000561857953 Eh/α |
          | HOMO-LUMO GAP               3.951940911497 eV   |
           -------------------------------------------------
########################################################################
[WARNING] Runtime exception occurred
-1- restart_readRestart: Number of electron missmatch in restart file.
########################################################################

------------------------------------------------------------------------
 * finished run on 2023/11/18 at 08:23:29.000     
------------------------------------------------------------------------
 total:
 * wall-time:     0 d,  0 h,  0 min, 13.536 sec
 *  cpu-time:     0 d,  0 h,  8 min, 33.584 sec
 * ratio c/w:    37.941 speedup
 SCF:
 * wall-time:     0 d,  0 h,  0 min,  1.384 sec
 *  cpu-time:     0 d,  0 h,  0 min, 52.834 sec
 * ratio c/w:    38.174 speedup
 ANC optimizer:
 * wall-time:     0 d,  0 h,  0 min, 12.011 sec
 *  cpu-time:     0 d,  0 h,  7 min, 35.910 sec
 * ratio c/w:    37.957 speedup

