
    -----------------------------------------------------------------------
          Psi4: An Open-Source Ab Initio Electronic Structure Package
                               Psi4 1.6 release

                         Git: Rev {HEAD} 77475b5 


    D. G. A. Smith, L. A. Burns, A. C. Simmonett, R. M. Parrish,
    M. C. Schieber, R. Galvelis, P. Kraus, H. Kruse, R. Di Remigio,
    A. Alenaizan, A. M. James, S. Lehtola, J. P. Misiewicz, M. Scheurer,
    R. A. Shaw, J. B. Schriber, Y. Xie, Z. L. Glick, D. A. Sirianni,
    J. S. O'Brien, J. M. Waldrop, A. Kumar, E. G. Hohenstein,
    B. P. Pritchard, B. R. Brooks, H. F. Schaefer III, A. Yu. Sokolov,
    K. Patkowski, A. E. DePrince III, U. Bozkaya, R. A. King,
    F. A. Evangelista, J. M. Turney, T. D. Crawford, C. D. Sherrill,
    J. Chem. Phys. 152(18) 184108 (2020). https://doi.org/10.1063/5.0006002

                            Additional Code Authors
    E. T. Seidl, C. L. Janssen, E. F. Valeev, M. L. Leininger,
    J. F. Gonthier, R. M. Richard, H. R. McAlexander, M. Saitow, X. Wang,
    P. Verma, M. H. Lechner, and A. Jiang

             Previous Authors, Complete List of Code Contributors,
                       and Citations for Specific Modules
    https://github.com/psi4/psi4/blob/master/codemeta.json
    https://github.com/psi4/psi4/graphs/contributors
    http://psicode.org/psi4manual/master/introduction.html#citing-psifour

    -----------------------------------------------------------------------


    Psi4 started on: Saturday, 18 November 2023 08:30AM

    Process ID: 1127368
    Host:       node165.bme.utexas.edu
    PSIDATADIR: /home/liuchw/anaconda3/envs/poltype2022/share/psi4
    Memory:     500.0 MiB
    Threads:    1
    
  ==> Input File <==

--------------------------------------------------------------------------
molecule { 
0 1
 C    2.248907    0.293380    0.492925
 N    1.082868   -0.237841    0.928571
 C   -0.123449   -0.088015    0.196362
 C   -0.108415   -0.121680   -1.194976
 C    1.059951   -1.045483    2.127937
 C   -1.332493    0.116651    0.855114
 C   -2.501638    0.274739    0.133788
 C   -2.483461    0.236524   -1.249471
 C   -1.282101    0.040926   -1.907972
 H   -1.372566    0.171335    1.932045
 H    0.821294   -0.272674   -1.717084
 O    2.435532    0.902891   -0.529531
 H    2.022484   -0.968617    2.631703
 H    0.887341   -2.094482    1.872596
 H    0.286129   -0.717227    2.819639
 H   -3.431416    0.434771    0.659764
 H   -1.254788    0.010585   -2.986918
 H   -3.398548    0.361174   -1.808442
 H    3.068052    0.101831    1.214535
}
memory 20GB
set_num_threads(5)
psi4_io.set_default_path("/scratch/liuchw/Psi4-3_24_Index_0-farH_in17")
set freeze_core True
E, wfn = energy('wb97x-d/6-311+G*',return_wfn=True)
oeprop(wfn,"WIBERG_LOWDIN_INDICES")
clean()
--------------------------------------------------------------------------

  Memory set to  18.626 GiB by Python driver.
  Threads set to 5 by Python driver.

Scratch directory: /scratch/liuchw/Psi4-3_24_Index_0-farH_in17/

*** tstart() called on node165.bme.utexas.edu
*** at Sat Nov 18 08:30:21 2023

   => Loading Basis Set <=

    Name: 6-311+G*
    Role: ORBITAL
    Keyword: BASIS
    atoms 1, 3-9       entry C          line   130 file /home/liuchw/anaconda3/envs/poltype2022/share/psi4/basis/6-311pgs.gbs 
    atoms 2            entry N          line   151 file /home/liuchw/anaconda3/envs/poltype2022/share/psi4/basis/6-311pgs.gbs 
    atoms 10-11, 13-19 entry H          line    47 file /home/liuchw/anaconda3/envs/poltype2022/share/psi4/basis/6-311pgs.gbs 
    atoms 12           entry O          line   172 file /home/liuchw/anaconda3/envs/poltype2022/share/psi4/basis/6-311pgs.gbs 

   => WB97X-D: Empirical Dispersion <=

    Chai and Head-Gordon Dispersion Correction
    Chai, J.-D.; Head-Gordon, M. (2010), J. Chem. Phys., 132: 6615-6620

        s6 =       1.000000


         ---------------------------------------------------------
                                   SCF
               by Justin Turney, Rob Parrish, Andy Simmonett
                          and Daniel G. A. Smith
                              RKS Reference
                        5 Threads,  19073 MiB Core
         ---------------------------------------------------------

  ==> Geometry <==

    Molecular point group: c1
    Full point group: C1

    Geometry (in Angstrom), charge = 0, multiplicity = 1:

       Center              X                  Y                   Z               Mass       
    ------------   -----------------  -----------------  -----------------  -----------------
         C            2.267737161022     0.259329899028     0.473442265637    12.000000000000
         N            1.101698161022    -0.271891100972     0.909088265637    14.003074004430
         C           -0.104618838978    -0.122065100972     0.176879265637    12.000000000000
         C           -0.089584838978    -0.155730100972    -1.214458734363    12.000000000000
         C            1.078781161022    -1.079533100972     2.108454265637    12.000000000000
         C           -1.313662838978     0.082600899028     0.835631265637    12.000000000000
         C           -2.482807838978     0.240688899028     0.114305265637    12.000000000000
         C           -2.464630838978     0.202473899028    -1.268953734363    12.000000000000
         C           -1.263270838978     0.006875899028    -1.927454734363    12.000000000000
         H           -1.353735838978     0.137284899028     1.912562265637     1.007825032230
         H            0.840124161022    -0.306724100972    -1.736566734363     1.007825032230
         O            2.454362161022     0.868840899028    -0.549013734363    15.994914619570
         H            2.041314161022    -1.002667100972     2.612220265637     1.007825032230
         H            0.906171161022    -2.128532100972     1.853113265637     1.007825032230
         H            0.304959161022    -0.751277100972     2.800156265637     1.007825032230
         H           -3.412585838978     0.400720899028     0.640281265637     1.007825032230
         H           -1.235957838978    -0.023465100972    -3.006400734363     1.007825032230
         H           -3.379717838978     0.327123899028    -1.827924734363     1.007825032230
         H            3.086882161022     0.067780899028     1.195052265637     1.007825032230

  Running in c1 symmetry.

  Rotational constants: A =      0.08463  B =      0.03512  C =      0.02660 [cm^-1]
  Rotational constants: A =   2537.04007  B =   1052.89063  C =    797.45962 [MHz]
  Nuclear repulsion =  499.560062153557794

  Charge       = 0
  Multiplicity = 1
  Electrons    = 72
  Nalpha       = 36
  Nbeta        = 36

  ==> Algorithm <==

  SCF Algorithm Type is DF.
  DIIS enabled.
  MOM disabled.
  Fractional occupation disabled.
  Guess Type is SAD.
  Energy threshold   = 1.00e-06
  Density threshold  = 1.00e-06
  Integral threshold = 1.00e-12

  ==> Primary Basis <==

  Basis Set: 6-311+G*
    Blend: 6-311+G*
    Number of shells: 127
    Number of basis functions: 247
    Number of Cartesian functions: 257
    Spherical Harmonics?: true
    Max angular momentum: 2

  ==> DFT Potential <==

   => LibXC <=

    Version 5.1.5
    S. Lehtola, C. Steigemann, M. J. Oliveira, and M. A. Marques, SoftwareX 7, 1 (2018) (10.1016/j.softx.2017.11.002)

   => Composite Functional: WB97X-D <= 

    wB97X-D Hyb-GGA Exchange-Correlation Functional

    J.-D. Chai and M. Head-Gordon, Phys. Chem. Chem. Phys. 10, 6615 (2008) (10.1039/B810189B)

    Deriv               =              1
    GGA                 =           TRUE
    Meta                =          FALSE

    Exchange Hybrid     =           TRUE
    MP2 Hybrid          =          FALSE

   => Exchange-Correlation Functionals <=

    1.0000   wB97X-D range-separated functional

   => Exact (HF) Exchange <=

    0.7780            HF,LR [omega = 0.2000]
    0.2220               HF 

   => LibXC Density Thresholds  <==

    XC_HYB_GGA_XC_WB97X_D:  1.00E-14 

   => Molecular Quadrature <=

    Radial Scheme          =       TREUTLER
    Pruning Scheme         =           NONE
    Nuclear Scheme         =       TREUTLER

    Blocking Scheme        =         OCTREE
    BS radius alpha        =              1
    Pruning alpha          =              1
    Radial Points          =             75
    Spherical Points       =            302
    Total Points           =         400918
    Total Blocks           =           3005
    Max Points             =            256
    Max Functions          =            227
    Weights Tolerance      =       1.00E-15

   => Loading Basis Set <=

    Name: (6-311+G* AUX)
    Role: JKFIT
    Keyword: DF_BASIS_SCF
    atoms 1, 3-9       entry C          line   200 file /home/liuchw/anaconda3/envs/poltype2022/share/psi4/basis/heavy-aug-cc-pvtz-jkfit.gbs 
    atoms 2            entry N          line   262 file /home/liuchw/anaconda3/envs/poltype2022/share/psi4/basis/heavy-aug-cc-pvtz-jkfit.gbs 
    atoms 10-11, 13-19 entry H          line   116 file /home/liuchw/anaconda3/envs/poltype2022/share/psi4/basis/heavy-aug-cc-pvtz-jkfit.gbs 
    atoms 12           entry O          line   324 file /home/liuchw/anaconda3/envs/poltype2022/share/psi4/basis/heavy-aug-cc-pvtz-jkfit.gbs 

  ==> Integral Setup <==

  DFHelper Memory: AOs need 1.702 GiB; user supplied 11.961 GiB. Using in-core AOs.

  ==> MemDFJK: Density-Fitted J/K Matrices <==

    J tasked:                   Yes
    K tasked:                   Yes
    wK tasked:                  Yes
    Omega:                2.000E-01
    OpenMP threads:               5
    Memory [MiB]:             12248
    Algorithm:                 Core
    Schwarz Cutoff:           1E-12
    Mask sparsity (%):       6.2515
    Fitting Condition:        1E-10

   => Auxiliary Basis Set <=

  Basis Set: (6-311+G* AUX)
    Blend: HEAVY-AUG-CC-PVTZ-JKFIT
    Number of shells: 390
    Number of basis functions: 1310
    Number of Cartesian functions: 1625
    Spherical Harmonics?: true
    Max angular momentum: 4

  Cached 100.0% of DFT collocation blocks in 2.009 [GiB].

  Minimum eigenvalue in the overlap matrix is 2.2898825065E-06.
  Reciprocal condition number of the overlap matrix is 1.6727778918E-07.
    Using symmetric orthogonalization.

  ==> Pre-Iterations <==

  SCF Guess: Superposition of Atomic Densities via on-the-fly atomic UHF (no occupation information).

   -------------------------
    Irrep   Nso     Nmo    
   -------------------------
     A        247     247 
   -------------------------
    Total     247     247
   -------------------------

  ==> Iterations <==

                           Total Energy        Delta E     RMS |[F,P]|

   @DF-RKS iter SAD:  -439.71272968515342   -4.39713e+02   0.00000e+00 
   @DF-RKS iter   1:  -439.74418253165140   -3.14528e-02   3.92258e-03 ADIIS/DIIS
   @DF-RKS iter   2:  -439.88150969879939   -1.37327e-01   3.56854e-03 ADIIS/DIIS
   @DF-RKS iter   3:  -440.18309881805226   -3.01589e-01   8.21968e-04 ADIIS/DIIS
   @DF-RKS iter   4:  -440.19683779979721   -1.37390e-02   2.22838e-04 ADIIS/DIIS
   @DF-RKS iter   5:  -440.19799578657813   -1.15799e-03   6.37746e-05 DIIS
   @DF-RKS iter   6:  -440.19809583392833   -1.00047e-04   2.07149e-05 DIIS
   @DF-RKS iter   7:  -440.19810709908461   -1.12652e-05   4.48319e-06 DIIS
   @DF-RKS iter   8:  -440.19810793430497   -8.35220e-07   1.89038e-06 DIIS
   @DF-RKS iter   9:  -440.19810810926185   -1.74957e-07   5.69919e-07 DIIS
  Energy and wave function converged.


  ==> Post-Iterations <==

   Electrons on quadrature grid:
      Ntotal   =   71.9999778361 ; deviation = -2.216e-05 

    Orbital Energies [Eh]
    ---------------------

    Doubly Occupied:                                                      

       1A    -19.220898     2A    -14.483800     3A    -10.389083  
       4A    -10.337371     5A    -10.333557     6A    -10.296099  
       7A    -10.293511     8A    -10.290426     9A    -10.288929  
      10A    -10.287852    11A     -1.157205    12A     -1.069989  
      13A     -0.966825    14A     -0.865532    15A     -0.859957  
      16A     -0.822003    17A     -0.751664    18A     -0.712857  
      19A     -0.673078    20A     -0.617484    21A     -0.608317  
      22A     -0.576722    23A     -0.575472    24A     -0.544590  
      25A     -0.537593    26A     -0.516011    27A     -0.508935  
      28A     -0.499802    29A     -0.489040    30A     -0.466874  
      31A     -0.450276    32A     -0.438779    33A     -0.376839  
      34A     -0.353062    35A     -0.334950    36A     -0.309067  

    Virtual:                                                              

      37A      0.041915    38A      0.050849    39A      0.056253  
      40A      0.068251    41A      0.076332    42A      0.081733  
      43A      0.089868    44A      0.091985    45A      0.101878  
      46A      0.106763    47A      0.118053    48A      0.123095  
      49A      0.124270    50A      0.131258    51A      0.147166  
      52A      0.150326    53A      0.158852    54A      0.165463  
      55A      0.172841    56A      0.175808    57A      0.191384  
      58A      0.195175    59A      0.198242    60A      0.210788  
      61A      0.212384    62A      0.218380    63A      0.222547  
      64A      0.223286    65A      0.234364    66A      0.241900  
      67A      0.248001    68A      0.251903    69A      0.255699  
      70A      0.263038    71A      0.268909    72A      0.277938  
      73A      0.279478    74A      0.284595    75A      0.288581  
      76A      0.296915    77A      0.301027    78A      0.304996  
      79A      0.308649    80A      0.310810    81A      0.324751  
      82A      0.329061    83A      0.339323    84A      0.351582  
      85A      0.356926    86A      0.369373    87A      0.380514  
      88A      0.394457    89A      0.401804    90A      0.409354  
      91A      0.412956    92A      0.416478    93A      0.427843  
      94A      0.436690    95A      0.473389    96A      0.491445  
      97A      0.511841    98A      0.525129    99A      0.544296  
     100A      0.554555   101A      0.584459   102A      0.602291  
     103A      0.606924   104A      0.617370   105A      0.621076  
     106A      0.625697   107A      0.650157   108A      0.660828  
     109A      0.663576   110A      0.685668   111A      0.693326  
     112A      0.700454   113A      0.708681   114A      0.723395  
     115A      0.737798   116A      0.752889   117A      0.756417  
     118A      0.773798   119A      0.781398   120A      0.786888  
     121A      0.792564   122A      0.811672   123A      0.814934  
     124A      0.817915   125A      0.845849   126A      0.851824  
     127A      0.872412   128A      0.915822   129A      0.918805  
     130A      0.943706   131A      0.950952   132A      0.952247  
     133A      0.965856   134A      0.978630   135A      0.980860  
     136A      0.983091   137A      1.025912   138A      1.062566  
     139A      1.079616   140A      1.106292   141A      1.137609  
     142A      1.157508   143A      1.198611   144A      1.217811  
     145A      1.243870   146A      1.258842   147A      1.275685  
     148A      1.286054   149A      1.301619   150A      1.332453  
     151A      1.347967   152A      1.365347   153A      1.425017  
     154A      1.445398   155A      1.468075   156A      1.498422  
     157A      1.583599   158A      1.609013   159A      1.619606  
     160A      1.643716   161A      1.653939   162A      1.683647  
     163A      1.708106   164A      1.717541   165A      1.734151  
     166A      1.780663   167A      1.822550   168A      1.851491  
     169A      1.863544   170A      1.873943   171A      1.895050  
     172A      1.902591   173A      1.927919   174A      1.949746  
     175A      2.019339   176A      2.028680   177A      2.045702  
     178A      2.089161   179A      2.107678   180A      2.121358  
     181A      2.211617   182A      2.253792   183A      2.312702  
     184A      2.372527   185A      2.385630   186A      2.411122  
     187A      2.431573   188A      2.478919   189A      2.482827  
     190A      2.508780   191A      2.529416   192A      2.554419  
     193A      2.601714   194A      2.614770   195A      2.686071  
     196A      2.701619   197A      2.773820   198A      2.779771  
     199A      2.817531   200A      2.868512   201A      2.881973  
     202A      2.919616   203A      2.941808   204A      2.957473  
     205A      2.998491   206A      3.018945   207A      3.033699  
     208A      3.045380   209A      3.099695   210A      3.184316  
     211A      3.244042   212A      3.294545   213A      3.300382  
     214A      3.404233   215A      3.415266   216A      3.429785  
     217A      3.433181   218A      3.448179   219A      3.468797  
     220A      3.479685   221A      3.486894   222A      3.604216  
     223A      3.638448   224A      3.695345   225A      3.739864  
     226A      3.771200   227A      3.902619   228A      4.012976  
     229A      4.031439   230A      4.128916   231A      4.153587  
     232A      4.885736   233A      4.906984   234A      5.082464  
     235A      5.176955   236A      5.306481   237A      5.871709  
     238A     23.482657   239A     23.692309   240A     23.989989  
     241A     23.998936   242A     24.024794   243A     24.186055  
     244A     24.211290   245A     24.315799   246A     35.680418  
     247A     50.130909  

    Final Occupation by Irrep:
              A 
    DOCC [    36 ]

  @DF-RKS Final Energy:  -440.19810810926185

   => Energetics <=

    Nuclear Repulsion Energy =            499.5600621535577943
    One-Electron Energy =               -1585.7384829220850406
    Two-Electron Energy =                 688.9422176901385910
    DFT Exchange-Correlation Energy =     -42.9519649469146430
    Empirical Dispersion Energy =          -0.0099400839585720
    VV10 Nonlocal Energy =                  0.0000000000000000
    Total Energy =                       -440.1981081092619092

Computation Completed


Properties will be evaluated at   0.000000,   0.000000,   0.000000 [a0]

Properties computed using the SCF density matrix


 Multipole Moments:

 ------------------------------------------------------------------------------------
     Multipole            Electronic (a.u.)      Nuclear  (a.u.)        Total (a.u.)
 ------------------------------------------------------------------------------------

 L = 1.  Multiply by 2.5417464519 to convert [e a0] to [Debye]
 Dipole X            :          1.4540080           -2.0562269           -0.6022189
 Dipole Y            :          2.2295344           -3.0697056           -0.8401712
 Dipole Z            :         -3.0647223            4.1594235            1.0947012
 Magnitude           :                                                    1.5056314

 ------------------------------------------------------------------------------------

*** tstop() called on node165.bme.utexas.edu at Sat Nov 18 08:30:41 2023
Module time:
	user time   =      66.23 seconds =       1.10 minutes
	system time =       7.04 seconds =       0.12 minutes
	total time  =         20 seconds =       0.33 minutes
Total time:
	user time   =      66.23 seconds =       1.10 minutes
	system time =       7.04 seconds =       0.12 minutes
	total time  =         20 seconds =       0.33 minutes


Properties will be evaluated at   0.000000,   0.000000,   0.000000 [a0]
OEProp: No title given, name of density matrix used for the following properties is 'SCF density'


  Wiberg Bond Indices using Orthogonal Lowdin Orbitals:

  Irrep: 1 Size: 19 x 19

                 1                   2                   3                   4                   5

    1     0.00000000000000     1.41735179279559     0.10728418965551     0.04897338092213     0.13475870737104
    2     1.41735179279559     0.00000000000000     1.11790984981385     0.11725373593076     1.16988397930593
    3     0.10728418965551     1.11790984981385     0.00000000000000     1.40101799141133     0.10702064418398
    4     0.04897338092213     0.11725373593076     1.40101799141133     0.00000000000000     0.02182207619187
    5     0.13475870737104     1.16988397930593     0.10702064418398     0.02182207619187     0.00000000000000
    6     0.02906514870914     0.11776045593728     1.40994830138451     0.12940261111426     0.05538693853806
    7     0.00381660414030     0.01570359039474     0.13716236965411     0.14329528858505     0.00583958401287
    8     0.00749007314007     0.01193846645205     0.13596540353852     0.14005201214109     0.00376526036630
    9     0.00537544201011     0.01567397175121     0.13791169166237     1.52019956859183     0.00328368512786
   10     0.00167398713841     0.01542668851883     0.05563381109333     0.00956467954855     0.01513034584339
   11     0.01070101810400     0.01475804319060     0.05386990419324     0.79778639606375     0.00144301990192
   12     2.30633797919111     0.25252869011085     0.05087648069610     0.07350893853116     0.03091231997558
   13     0.02619380798564     0.04744850319467     0.01056152559432     0.00131874139076     0.88457221432707
   14     0.01402478389077     0.05007282333697     0.01410106712988     0.00195660623851     0.88445300585883
   15     0.01255200580272     0.04946197056897     0.01264454485893     0.00146262326208     0.88212213705454
   16     0.00043344549022     0.00088596054148     0.01082333479954     0.00256494913355     0.00026933180055
   17     0.00028139284026     0.00083736568124     0.01085221135634     0.06100695559844     0.00039529036936
   18     0.00007908894653     0.00023457199379     0.00288720340541     0.01118345266343     0.00012567123740
   19     0.78497127277204     0.07021226643794     0.01439623181609     0.00458301885023     0.02694777017418

                 6                   7                   8                   9                  10

    1     0.02906514870914     0.00381660414030     0.00749007314007     0.00537544201011     0.00167398713841
    2     0.11776045593728     0.01570359039474     0.01193846645205     0.01567397175121     0.01542668851883
    3     1.40994830138451     0.13716236965411     0.13596540353852     0.13791169166237     0.05563381109333
    4     0.12940261111426     0.14329528858505     0.14005201214109     1.52019956859183     0.00956467954855
    5     0.05538693853806     0.00583958401287     0.00376526036630     0.00328368512786     0.01513034584339
    6     0.00000000000000     1.52332142659039     0.13977644755565     0.14384175407579     0.81153992105237
    7     1.52332142659039     0.00000000000000     1.52009925576789     0.14048244200345     0.05701225784415
    8     0.13977644755565     1.52009925576789     0.00000000000000     1.51844968752923     0.01070017866452
    9     0.14384175407579     0.14048244200345     1.51844968752923     0.00000000000000     0.00245051414628
   10     0.81153992105237     0.05701225784415     0.01070017866452     0.00245051414628     0.00000000000000
   11     0.00918840678177     0.00241540331770     0.01045120830001     0.05622307801937     0.00041941530909
   12     0.00979633553280     0.00287394282426     0.00495362470556     0.00904552361164     0.00017040232316
   13     0.00215493285013     0.00023192005139     0.00029351380395     0.00045065714392     0.00022351623681
   14     0.00486285722033     0.00034504674034     0.00036437848952     0.00026786934307     0.00044887296451
   15     0.01523786070301     0.00148830368664     0.00076267414330     0.00025824608581     0.00393889577902
   16     0.06137314897881     0.83157327865783     0.05948257470165     0.01150097413188     0.00572802181045
   17     0.00253585962879     0.01152216667199     0.05970372209871     0.83121793225826     0.00023647648327
   18     0.01127900965295     0.06022038741591     0.83351924725414     0.05991291042349     0.00020094311744
   19     0.00204153265906     0.00055943490978     0.00028692052038     0.00058998445368     0.00007665846725

                11                  12                  13                  14                  15

    1     0.01070101810400     2.30633797919111     0.02619380798564     0.01402478389077     0.01255200580272
    2     0.01475804319060     0.25252869011085     0.04744850319467     0.05007282333697     0.04946197056897
    3     0.05386990419324     0.05087648069610     0.01056152559432     0.01410106712988     0.01264454485893
    4     0.79778639606375     0.07350893853116     0.00131874139076     0.00195660623851     0.00146262326208
    5     0.00144301990192     0.03091231997558     0.88457221432707     0.88445300585883     0.88212213705454
    6     0.00918840678177     0.00979633553280     0.00215493285013     0.00486285722033     0.01523786070301
    7     0.00241540331770     0.00287394282426     0.00023192005139     0.00034504674034     0.00148830368664
    8     0.01045120830001     0.00495362470556     0.00029351380395     0.00036437848952     0.00076267414330
    9     0.05622307801937     0.00904552361164     0.00045065714392     0.00026786934307     0.00025824608581
   10     0.00041941530909     0.00017040232316     0.00022351623681     0.00044887296451     0.00393889577902
   11     0.00000000000000     0.02006271929908     0.00005273133822     0.00001755056963     0.00005933413728
   12     0.02006271929908     0.00000000000000     0.00293438304972     0.00386375103463     0.00355206829753
   13     0.00005273133822     0.00293438304972     0.00000000000000     0.00874869266077     0.00929428581569
   14     0.00001755056963     0.00386375103463     0.00874869266077     0.00000000000000     0.00755751008314
   15     0.00005933413728     0.00355206829753     0.00929428581569     0.00755751008314     0.00000000000000
   16     0.00020419474028     0.00009665605904     0.00001268727511     0.00001103695337     0.00004603762565
   17     0.00556209743653     0.00027926933014     0.00001510649210     0.00003417973859     0.00003258809917
   18     0.00022776272560     0.00010462745932     0.00000818094171     0.00001110065811     0.00002755671735
   19     0.00018159053269     0.08318622235741     0.00580742177166     0.00009292862782     0.00011084538347

                16                  17                  18                  19

    1     0.00043344549022     0.00028139284026     0.00007908894653     0.78497127277204
    2     0.00088596054148     0.00083736568124     0.00023457199379     0.07021226643794
    3     0.01082333479954     0.01085221135634     0.00288720340541     0.01439623181609
    4     0.00256494913355     0.06100695559844     0.01118345266343     0.00458301885023
    5     0.00026933180055     0.00039529036936     0.00012567123740     0.02694777017418
    6     0.06137314897881     0.00253585962879     0.01127900965295     0.00204153265906
    7     0.83157327865783     0.01152216667199     0.06022038741591     0.00055943490978
    8     0.05948257470165     0.05970372209871     0.83351924725414     0.00028692052038
    9     0.01150097413188     0.83121793225826     0.05991291042349     0.00058998445368
   10     0.00572802181045     0.00023647648327     0.00020094311744     0.00007665846725
   11     0.00020419474028     0.00556209743653     0.00022776272560     0.00018159053269
   12     0.00009665605904     0.00027926933014     0.00010462745932     0.08318622235741
   13     0.00001268727511     0.00001510649210     0.00000818094171     0.00580742177166
   14     0.00001103695337     0.00003417973859     0.00001110065811     0.00009292862782
   15     0.00004603762565     0.00003258809917     0.00002755671735     0.00011084538347
   16     0.00000000000000     0.00027158450516     0.00535622593823     0.00002235553481
   17     0.00027158450516     0.00000000000000     0.00531628667898     0.00000622385618
   18     0.00535622593823     0.00531628667898     0.00000000000000     0.00003307601719
   19     0.00002235553481     0.00000622385618     0.00003307601719     0.00000000000000



  Atomic Valences: 

 #  #
 Irrep: 1
      1:    4.911364120905624
      2:    4.485342725956762
      3:    4.790866756247372
      4:    4.486953026168774
      5:    4.228131981640710
      6:    4.478512948965096
      7:    4.457962703268801
      8:    4.458054649172560
      9:    4.457135932369254
     10:    0.990575586340835
     11:    0.983623873960757
     12:    2.855083934389100
     13:    1.000322821923640
     14:    0.991234061538809
     15:    1.000609488104315
     16:    0.990655798677590
     17:    0.990106709123505
     18:    0.990727303246989
     19:    0.994105755141871


    Psi4 stopped on: Saturday, 18 November 2023 08:30AM
    Psi4 wall time for execution: 0:00:21.16

*** Psi4 exiting successfully. Buy a developer a beer!
