
    -----------------------------------------------------------------------
          Psi4: An Open-Source Ab Initio Electronic Structure Package
                               Psi4 1.6 release

                         Git: Rev {HEAD} 77475b5 


    D. G. A. Smith, L. A. Burns, A. C. Simmonett, R. M. Parrish,
    M. C. Schieber, R. Galvelis, P. Kraus, H. Kruse, R. Di Remigio,
    A. Alenaizan, A. M. James, S. Lehtola, J. P. Misiewicz, M. Scheurer,
    R. A. Shaw, J. B. Schriber, Y. Xie, Z. L. Glick, D. A. Sirianni,
    J. S. O'Brien, J. M. Waldrop, A. Kumar, E. G. Hohenstein,
    B. P. Pritchard, B. R. Brooks, H. F. Schaefer III, A. Yu. Sokolov,
    K. Patkowski, A. E. DePrince III, U. Bozkaya, R. A. King,
    F. A. Evangelista, J. M. Turney, T. D. Crawford, C. D. Sherrill,
    J. Chem. Phys. 152(18) 184108 (2020). https://doi.org/10.1063/5.0006002

                            Additional Code Authors
    E. T. Seidl, C. L. Janssen, E. F. Valeev, M. L. Leininger,
    J. F. Gonthier, R. M. Richard, H. R. McAlexander, M. Saitow, X. Wang,
    P. Verma, M. H. Lechner, and A. Jiang

             Previous Authors, Complete List of Code Contributors,
                       and Citations for Specific Modules
    https://github.com/psi4/psi4/blob/master/codemeta.json
    https://github.com/psi4/psi4/graphs/contributors
    http://psicode.org/psi4manual/master/introduction.html#citing-psifour

    -----------------------------------------------------------------------


    Psi4 started on: Saturday, 18 November 2023 08:28AM

    Process ID: 1126924
    Host:       node165.bme.utexas.edu
    PSIDATADIR: /home/liuchw/anaconda3/envs/poltype2022/share/psi4
    Memory:     500.0 MiB
    Threads:    1
    
  ==> Input File <==

--------------------------------------------------------------------------
molecule { 
0 1
 C    2.187058   -0.831800    0.288185
 N    1.073191   -0.400405    0.916760
 C   -0.125713   -0.185438    0.182388
 C   -0.110175    0.627067   -0.943942
 C    1.078766   -0.056853    2.319596
 C   -1.311710   -0.788312    0.583414
 C   -2.473100   -0.571505   -0.135226
 C   -2.458257    0.240127   -1.257065
 C   -1.274625    0.832985   -1.661709
 H   -1.324802   -1.439962    1.444721
 H    0.815905    1.081410   -1.258691
 O    2.284527   -1.102470   -0.882304
 H    1.946409   -0.501367    2.804382
 H    0.175119   -0.421212    2.806160
 H    1.120663    1.029683    2.446821
 H   -3.391367   -1.045821    0.178250
 H   -1.257031    1.463446   -2.538012
 H   -3.366756    0.405332   -1.816550
 H    3.035584   -0.936121    0.993409
}
memory 20GB
set_num_threads(5)
psi4_io.set_default_path("/scratch/liuchw/Psi4-3_24_Index_0-farH_in17")
set freeze_core True
E, wfn = energy('wb97x-d/6-311+G*',return_wfn=True)
oeprop(wfn,"WIBERG_LOWDIN_INDICES")
clean()
--------------------------------------------------------------------------

  Memory set to  18.626 GiB by Python driver.
  Threads set to 5 by Python driver.

Scratch directory: /scratch/liuchw/Psi4-3_24_Index_0-farH_in17/

*** tstart() called on node165.bme.utexas.edu
*** at Sat Nov 18 08:28:54 2023

   => Loading Basis Set <=

    Name: 6-311+G*
    Role: ORBITAL
    Keyword: BASIS
    atoms 1, 3-9       entry C          line   130 file /home/liuchw/anaconda3/envs/poltype2022/share/psi4/basis/6-311pgs.gbs 
    atoms 2            entry N          line   151 file /home/liuchw/anaconda3/envs/poltype2022/share/psi4/basis/6-311pgs.gbs 
    atoms 10-11, 13-19 entry H          line    47 file /home/liuchw/anaconda3/envs/poltype2022/share/psi4/basis/6-311pgs.gbs 
    atoms 12           entry O          line   172 file /home/liuchw/anaconda3/envs/poltype2022/share/psi4/basis/6-311pgs.gbs 

   => WB97X-D: Empirical Dispersion <=

    Chai and Head-Gordon Dispersion Correction
    Chai, J.-D.; Head-Gordon, M. (2010), J. Chem. Phys., 132: 6615-6620

        s6 =       1.000000


         ---------------------------------------------------------
                                   SCF
               by Justin Turney, Rob Parrish, Andy Simmonett
                          and Daniel G. A. Smith
                              RKS Reference
                        5 Threads,  19073 MiB Core
         ---------------------------------------------------------

  ==> Geometry <==

    Molecular point group: c1
    Full point group: C1

    Geometry (in Angstrom), charge = 0, multiplicity = 1:

       Center              X                  Y                   Z               Mass       
    ------------   -----------------  -----------------  -----------------  -----------------
         C            2.220730845822    -0.591825112247     0.315335230173    12.000000000000
         N            1.106863845822    -0.160430112247     0.943910230173    14.003074004430
         C           -0.092040154178     0.054536887753     0.209538230173    12.000000000000
         C           -0.076502154178     0.867041887753    -0.916791769827    12.000000000000
         C            1.112438845822     0.183121887753     2.346746230173    12.000000000000
         C           -1.278037154178    -0.548337112247     0.610564230173    12.000000000000
         C           -2.439427154178    -0.331530112247    -0.108075769827    12.000000000000
         C           -2.424584154178     0.480101887753    -1.229914769827    12.000000000000
         C           -1.240952154178     1.072959887753    -1.634558769827    12.000000000000
         H           -1.291129154178    -1.199987112247     1.471871230173     1.007825032230
         H            0.849577845822     1.321384887753    -1.231540769827     1.007825032230
         O            2.318199845822    -0.862495112247    -0.855153769827    15.994914619570
         H            1.980081845822    -0.261392112247     2.831532230173     1.007825032230
         H            0.208791845822    -0.181237112247     2.833310230173     1.007825032230
         H            1.154335845822     1.269657887753     2.473971230173     1.007825032230
         H           -3.357694154178    -0.805846112247     0.205400230173     1.007825032230
         H           -1.223358154178     1.703420887753    -2.510861769827     1.007825032230
         H           -3.333083154178     0.645306887753    -1.789399769827     1.007825032230
         H            3.069256845822    -0.696146112247     1.020559230173     1.007825032230

  Running in c1 symmetry.

  Rotational constants: A =      0.08393  B =      0.03430  C =      0.02782 [cm^-1]
  Rotational constants: A =   2516.01125  B =   1028.19580  C =    834.14197 [MHz]
  Nuclear repulsion =  499.766266444281769

  Charge       = 0
  Multiplicity = 1
  Electrons    = 72
  Nalpha       = 36
  Nbeta        = 36

  ==> Algorithm <==

  SCF Algorithm Type is DF.
  DIIS enabled.
  MOM disabled.
  Fractional occupation disabled.
  Guess Type is SAD.
  Energy threshold   = 1.00e-06
  Density threshold  = 1.00e-06
  Integral threshold = 1.00e-12

  ==> Primary Basis <==

  Basis Set: 6-311+G*
    Blend: 6-311+G*
    Number of shells: 127
    Number of basis functions: 247
    Number of Cartesian functions: 257
    Spherical Harmonics?: true
    Max angular momentum: 2

  ==> DFT Potential <==

   => LibXC <=

    Version 5.1.5
    S. Lehtola, C. Steigemann, M. J. Oliveira, and M. A. Marques, SoftwareX 7, 1 (2018) (10.1016/j.softx.2017.11.002)

   => Composite Functional: WB97X-D <= 

    wB97X-D Hyb-GGA Exchange-Correlation Functional

    J.-D. Chai and M. Head-Gordon, Phys. Chem. Chem. Phys. 10, 6615 (2008) (10.1039/B810189B)

    Deriv               =              1
    GGA                 =           TRUE
    Meta                =          FALSE

    Exchange Hybrid     =           TRUE
    MP2 Hybrid          =          FALSE

   => Exchange-Correlation Functionals <=

    1.0000   wB97X-D range-separated functional

   => Exact (HF) Exchange <=

    0.7780            HF,LR [omega = 0.2000]
    0.2220               HF 

   => LibXC Density Thresholds  <==

    XC_HYB_GGA_XC_WB97X_D:  1.00E-14 

   => Molecular Quadrature <=

    Radial Scheme          =       TREUTLER
    Pruning Scheme         =           NONE
    Nuclear Scheme         =       TREUTLER

    Blocking Scheme        =         OCTREE
    BS radius alpha        =              1
    Pruning alpha          =              1
    Radial Points          =             75
    Spherical Points       =            302
    Total Points           =         401329
    Total Blocks           =           3015
    Max Points             =            256
    Max Functions          =            230
    Weights Tolerance      =       1.00E-15

   => Loading Basis Set <=

    Name: (6-311+G* AUX)
    Role: JKFIT
    Keyword: DF_BASIS_SCF
    atoms 1, 3-9       entry C          line   200 file /home/liuchw/anaconda3/envs/poltype2022/share/psi4/basis/heavy-aug-cc-pvtz-jkfit.gbs 
    atoms 2            entry N          line   262 file /home/liuchw/anaconda3/envs/poltype2022/share/psi4/basis/heavy-aug-cc-pvtz-jkfit.gbs 
    atoms 10-11, 13-19 entry H          line   116 file /home/liuchw/anaconda3/envs/poltype2022/share/psi4/basis/heavy-aug-cc-pvtz-jkfit.gbs 
    atoms 12           entry O          line   324 file /home/liuchw/anaconda3/envs/poltype2022/share/psi4/basis/heavy-aug-cc-pvtz-jkfit.gbs 

  ==> Integral Setup <==

  DFHelper Memory: AOs need 1.703 GiB; user supplied 11.960 GiB. Using in-core AOs.

  ==> MemDFJK: Density-Fitted J/K Matrices <==

    J tasked:                   Yes
    K tasked:                   Yes
    wK tasked:                  Yes
    Omega:                2.000E-01
    OpenMP threads:               5
    Memory [MiB]:             12247
    Algorithm:                 Core
    Schwarz Cutoff:           1E-12
    Mask sparsity (%):       6.1860
    Fitting Condition:        1E-10

   => Auxiliary Basis Set <=

  Basis Set: (6-311+G* AUX)
    Blend: HEAVY-AUG-CC-PVTZ-JKFIT
    Number of shells: 390
    Number of basis functions: 1310
    Number of Cartesian functions: 1625
    Spherical Harmonics?: true
    Max angular momentum: 4

  Cached 100.0% of DFT collocation blocks in 2.010 [GiB].

  Minimum eigenvalue in the overlap matrix is 2.2465726179E-06.
  Reciprocal condition number of the overlap matrix is 1.6371689480E-07.
    Using symmetric orthogonalization.

  ==> Pre-Iterations <==

  SCF Guess: Superposition of Atomic Densities via on-the-fly atomic UHF (no occupation information).

   -------------------------
    Irrep   Nso     Nmo    
   -------------------------
     A        247     247 
   -------------------------
    Total     247     247
   -------------------------

  ==> Iterations <==

                           Total Energy        Delta E     RMS |[F,P]|

   @DF-RKS iter SAD:  -439.68208295492707   -4.39682e+02   0.00000e+00 
   @DF-RKS iter   1:  -439.74201528497747   -5.99323e-02   3.93770e-03 ADIIS/DIIS
   @DF-RKS iter   2:  -439.87462121230698   -1.32606e-01   3.61719e-03 ADIIS/DIIS
   @DF-RKS iter   3:  -440.18279826850119   -3.08177e-01   8.38512e-04 ADIIS/DIIS
   @DF-RKS iter   4:  -440.19713366823913   -1.43354e-02   2.20064e-04 ADIIS/DIIS
   @DF-RKS iter   5:  -440.19824908829435   -1.11542e-03   6.67660e-05 DIIS
   @DF-RKS iter   6:  -440.19835767486632   -1.08587e-04   2.11532e-05 DIIS
   @DF-RKS iter   7:  -440.19836945790473   -1.17830e-05   4.50794e-06 DIIS
   @DF-RKS iter   8:  -440.19837025726770   -7.99363e-07   1.86467e-06 DIIS
   @DF-RKS iter   9:  -440.19837041788873   -1.60621e-07   5.72013e-07 DIIS
  Energy and wave function converged.


  ==> Post-Iterations <==

   Electrons on quadrature grid:
      Ntotal   =   71.9999998719 ; deviation = -1.281e-07 

    Orbital Energies [Eh]
    ---------------------

    Doubly Occupied:                                                      

       1A    -19.216561     2A    -14.478025     3A    -10.385410  
       4A    -10.334900     5A    -10.332003     6A    -10.297099  
       7A    -10.294865     8A    -10.292835     9A    -10.292047  
      10A    -10.291590    11A     -1.153397    12A     -1.066094  
      13A     -0.967937    14A     -0.864839    15A     -0.861264  
      16A     -0.820879    17A     -0.749374    18A     -0.715699  
      19A     -0.672078    20A     -0.615830    21A     -0.609654  
      22A     -0.576507    23A     -0.573528    24A     -0.543593  
      25A     -0.536149    26A     -0.518382    27A     -0.507906  
      28A     -0.500139    29A     -0.483697    30A     -0.467283  
      31A     -0.450423    32A     -0.440777    33A     -0.366188  
      34A     -0.351421    35A     -0.336435    36A     -0.314572  

    Virtual:                                                              

      37A      0.042604    38A      0.050027    39A      0.055663  
      40A      0.067998    41A      0.073903    42A      0.082305  
      43A      0.088870    44A      0.090319    45A      0.099049  
      46A      0.107461    47A      0.117192    48A      0.121052  
      49A      0.125207    50A      0.132493    51A      0.146999  
      52A      0.148833    53A      0.156318    54A      0.166580  
      55A      0.173789    56A      0.175239    57A      0.189693  
      58A      0.192046    59A      0.196875    60A      0.209743  
      61A      0.212453    62A      0.219969    63A      0.222216  
      64A      0.222600    65A      0.227638    66A      0.241745  
      67A      0.243640    68A      0.254480    69A      0.261017  
      70A      0.262840    71A      0.265710    72A      0.273711  
      73A      0.282316    74A      0.285195    75A      0.288635  
      76A      0.293802    77A      0.300628    78A      0.302826  
      79A      0.311399    80A      0.314716    81A      0.326538  
      82A      0.335879    83A      0.344750    84A      0.353373  
      85A      0.354638    86A      0.377651    87A      0.383168  
      88A      0.392346    89A      0.398721    90A      0.404980  
      91A      0.417856    92A      0.424585    93A      0.428989  
      94A      0.446311    95A      0.476000    96A      0.485167  
      97A      0.521455    98A      0.528900    99A      0.549971  
     100A      0.556944   101A      0.575073   102A      0.598062  
     103A      0.607921   104A      0.616522   105A      0.623918  
     106A      0.624858   107A      0.645986   108A      0.660821  
     109A      0.668205   110A      0.686440   111A      0.693693  
     112A      0.699443   113A      0.711412   114A      0.720654  
     115A      0.736408   116A      0.751083   117A      0.758990  
     118A      0.773968   119A      0.780534   120A      0.784097  
     121A      0.796277   122A      0.803543   123A      0.809572  
     124A      0.817690   125A      0.829975   126A      0.849968  
     127A      0.872410   128A      0.913721   129A      0.919153  
     130A      0.935067   131A      0.944545   132A      0.948555  
     133A      0.961979   134A      0.978025   135A      0.989490  
     136A      0.991580   137A      1.011336   138A      1.050809  
     139A      1.097378   140A      1.107336   141A      1.134109  
     142A      1.160915   143A      1.201849   144A      1.218842  
     145A      1.251832   146A      1.266744   147A      1.281138  
     148A      1.284010   149A      1.310704   150A      1.335876  
     151A      1.345757   152A      1.354186   153A      1.415751  
     154A      1.454168   155A      1.482584   156A      1.511797  
     157A      1.577589   158A      1.601600   159A      1.618275  
     160A      1.638626   161A      1.655908   162A      1.674739  
     163A      1.714298   164A      1.720347   165A      1.732530  
     166A      1.770764   167A      1.823352   168A      1.852148  
     169A      1.863868   170A      1.874692   171A      1.897215  
     172A      1.915439   173A      1.938264   174A      1.961189  
     175A      2.017785   176A      2.027652   177A      2.047515  
     178A      2.085208   179A      2.110925   180A      2.120718  
     181A      2.203857   182A      2.248748   183A      2.324881  
     184A      2.369505   185A      2.385504   186A      2.402883  
     187A      2.439202   188A      2.484865   189A      2.489571  
     190A      2.508081   191A      2.527216   192A      2.559245  
     193A      2.600306   194A      2.630720   195A      2.685556  
     196A      2.710809   197A      2.769514   198A      2.778093  
     199A      2.826333   200A      2.866144   201A      2.880276  
     202A      2.920562   203A      2.948226   204A      2.961950  
     205A      2.994147   206A      3.008757   207A      3.039643  
     208A      3.052987   209A      3.099404   210A      3.184365  
     211A      3.234407   212A      3.283806   213A      3.317584  
     214A      3.408275   215A      3.409362   216A      3.429355  
     217A      3.437976   218A      3.449750   219A      3.479891  
     220A      3.481906   221A      3.487512   222A      3.593420  
     223A      3.641180   224A      3.697154   225A      3.740501  
     226A      3.772382   227A      3.904900   228A      4.014569  
     229A      4.045591   230A      4.127098   231A      4.154760  
     232A      4.889015   233A      4.909936   234A      5.074290  
     235A      5.182547   236A      5.299910   237A      5.867526  
     238A     23.482850   239A     23.700187   240A     23.991443  
     241A     24.000795   242A     24.021128   243A     24.191576  
     244A     24.208456   245A     24.314503   246A     35.687391  
     247A     50.136281  

    Final Occupation by Irrep:
              A 
    DOCC [    36 ]

  @DF-RKS Final Energy:  -440.19837041788873

   => Energetics <=

    Nuclear Repulsion Energy =            499.7662664442817686
    One-Electron Energy =               -1586.2027157452839674
    Two-Electron Energy =                 689.1976194439625942
    DFT Exchange-Correlation Energy =     -42.9493851985319850
    Empirical Dispersion Energy =          -0.0101553623172392
    VV10 Nonlocal Energy =                  0.0000000000000000
    Total Energy =                       -440.1983704178887251

Computation Completed


Properties will be evaluated at   0.000000,   0.000000,   0.000000 [a0]

Properties computed using the SCF density matrix


 Multipole Moments:

 ------------------------------------------------------------------------------------
     Multipole            Electronic (a.u.)      Nuclear  (a.u.)        Total (a.u.)
 ------------------------------------------------------------------------------------

 L = 1.  Multiply by 2.5417464519 to convert [e a0] to [Debye]
 Dipole X            :          1.2073316           -1.8137858           -0.6064542
 Dipole Y            :         -1.1708015            1.6792313            0.5084297
 Dipole Z            :         -3.6472244            4.9662769            1.3190525
 Magnitude           :                                                    1.5382415

 ------------------------------------------------------------------------------------

*** tstop() called on node165.bme.utexas.edu at Sat Nov 18 08:29:19 2023
Module time:
	user time   =      75.34 seconds =       1.26 minutes
	system time =       5.78 seconds =       0.10 minutes
	total time  =         25 seconds =       0.42 minutes
Total time:
	user time   =      75.34 seconds =       1.26 minutes
	system time =       5.78 seconds =       0.10 minutes
	total time  =         25 seconds =       0.42 minutes


Properties will be evaluated at   0.000000,   0.000000,   0.000000 [a0]
OEProp: No title given, name of density matrix used for the following properties is 'SCF density'


  Wiberg Bond Indices using Orthogonal Lowdin Orbitals:

  Irrep: 1 Size: 19 x 19

                 1                   2                   3                   4                   5

    1     0.00000000000000     1.42638530387307     0.11110283012920     0.04632069528259     0.13205206364968
    2     1.42638530387307     0.00000000000000     1.10082749412486     0.11882811871148     1.17230725756484
    3     0.11110283012920     1.10082749412486     0.00000000000000     1.40995201118368     0.10924417319477
    4     0.04632069528259     0.11882811871148     1.40995201118368     0.00000000000000     0.02488333465889
    5     0.13205206364968     1.17230725756484     0.10924417319477     0.02488333465889     0.00000000000000
    6     0.02903280171274     0.11848897298155     1.41738833608189     0.12971793140023     0.04934420444073
    7     0.00391217338640     0.01580471755476     0.13825715574803     0.14382098016781     0.00554524639419
    8     0.00617551513316     0.01066894303651     0.13828010056330     0.14026590345270     0.00445093158557
    9     0.00531374666635     0.01569785579654     0.13847642749552     1.51861747414541     0.00340240258075
   10     0.00228700102972     0.01635578945577     0.05634087320414     0.00948856248596     0.01132776155838
   11     0.00953646760822     0.01604631518573     0.05523842029894     0.80479770527851     0.00204667414167
   12     2.30549043142735     0.26072705238322     0.05719727625171     0.05296753016333     0.03160563172790
   13     0.02378742409941     0.04838862613980     0.01059081811747     0.00136892936800     0.88652372166898
   14     0.01241699876215     0.04908957411574     0.01483979381984     0.00212946904629     0.88110939635173
   15     0.01492033317041     0.05138680958360     0.01275485690491     0.00255300648419     0.88619004070977
   16     0.00042712082443     0.00088911952841     0.01084127364752     0.00251881978129     0.00022900712217
   17     0.00029697529827     0.00086512731684     0.01084691948656     0.06096919100054     0.00033948221490
   18     0.00006870155346     0.00022169426718     0.00299223665335     0.01130259062323     0.00009603753729
   19     0.78570641121018     0.07047719684999     0.01493726302879     0.00439670716267     0.02542550072749

                 6                   7                   8                   9                  10

    1     0.02903280171274     0.00391217338640     0.00617551513316     0.00531374666635     0.00228700102972
    2     0.11848897298155     0.01580471755476     0.01066894303651     0.01569785579654     0.01635578945577
    3     1.41738833608189     0.13825715574803     0.13828010056330     0.13847642749552     0.05634087320414
    4     0.12971793140023     0.14382098016781     0.14026590345270     1.51861747414541     0.00948856248596
    5     0.04934420444073     0.00554524639419     0.00445093158557     0.00340240258075     0.01132776155838
    6     0.00000000000000     1.52229778863782     0.14002528554287     0.14438188539243     0.81189237743555
    7     1.52229778863782     0.00000000000000     1.51931248198469     0.13974779160608     0.05659905171364
    8     0.14002528554287     1.51931248198469     0.00000000000000     1.51988122794531     0.01080093853825
    9     0.14438188539243     0.13974779160608     1.51988122794531     0.00000000000000     0.00243404110713
   10     0.81189237743555     0.05659905171364     0.01080093853825     0.00243404110713     0.00000000000000
   11     0.00916095421968     0.00239397220103     0.01061820169464     0.05587523013752     0.00038347933707
   12     0.01206523898114     0.00303382875024     0.00378173615396     0.00811702924654     0.00022777132219
   13     0.00180181385114     0.00017495520964     0.00033989836175     0.00038435914640     0.00017236970345
   14     0.01358936371313     0.00152730000675     0.00058292590576     0.00038865476826     0.00198801411858
   15     0.00311514349487     0.00021994938738     0.00026234782860     0.00018153092860     0.00014295518144
   16     0.06123013479966     0.83175803313048     0.05960924211368     0.01142289390737     0.00549419471248
   17     0.00248828752513     0.01144632138588     0.05978539411420     0.83143285426995     0.00024731739513
   18     0.01134007060172     0.05997534007050     0.83353591246353     0.05978246798171     0.00021116893196
   19     0.00214862855566     0.00055336814404     0.00034237747228     0.00064300908894     0.00004010650199

                11                  12                  13                  14                  15

    1     0.00953646760822     2.30549043142735     0.02378742409941     0.01241699876215     0.01492033317041
    2     0.01604631518573     0.26072705238322     0.04838862613980     0.04908957411574     0.05138680958360
    3     0.05523842029894     0.05719727625171     0.01059081811747     0.01483979381984     0.01275485690491
    4     0.80479770527851     0.05296753016333     0.00136892936800     0.00212946904629     0.00255300648419
    5     0.00204667414167     0.03160563172790     0.88652372166898     0.88110939635173     0.88619004070977
    6     0.00916095421968     0.01206523898114     0.00180181385114     0.01358936371313     0.00311514349487
    7     0.00239397220103     0.00303382875024     0.00017495520964     0.00152730000675     0.00021994938738
    8     0.01061820169464     0.00378173615396     0.00033989836175     0.00058292590576     0.00026234782860
    9     0.05587523013752     0.00811702924654     0.00038435914640     0.00038865476826     0.00018153092860
   10     0.00038347933707     0.00022777132219     0.00017236970345     0.00198801411858     0.00014295518144
   11     0.00000000000000     0.00969063912519     0.00003192046659     0.00005063075567     0.00006873582422
   12     0.00969063912519     0.00000000000000     0.00271236689503     0.00338119127029     0.00442910336814
   13     0.00003192046659     0.00271236689503     0.00000000000000     0.00931912240973     0.00849158702367
   14     0.00005063075567     0.00338119127029     0.00931912240973     0.00000000000000     0.00753742520766
   15     0.00006873582422     0.00442910336814     0.00849158702367     0.00753742520766     0.00000000000000
   16     0.00022780139095     0.00009879763648     0.00000835781791     0.00004323786391     0.00000980850136
   17     0.00535979774368     0.00021784793008     0.00001417605029     0.00002868846810     0.00003419402365
   18     0.00022648192832     0.00005712948585     0.00001173067045     0.00001863954147     0.00000732491912
   19     0.00023185386507     0.08316496423462     0.00456961205652     0.00017444543645     0.00014237702720

                16                  17                  18                  19

    1     0.00042712082443     0.00029697529827     0.00006870155346     0.78570641121018
    2     0.00088911952841     0.00086512731684     0.00022169426718     0.07047719684999
    3     0.01084127364752     0.01084691948656     0.00299223665335     0.01493726302879
    4     0.00251881978129     0.06096919100054     0.01130259062323     0.00439670716267
    5     0.00022900712217     0.00033948221490     0.00009603753729     0.02542550072749
    6     0.06123013479966     0.00248828752513     0.01134007060172     0.00214862855566
    7     0.83175803313048     0.01144632138588     0.05997534007050     0.00055336814404
    8     0.05960924211368     0.05978539411420     0.83353591246353     0.00034237747228
    9     0.01142289390737     0.83143285426995     0.05978246798171     0.00064300908894
   10     0.00549419471248     0.00024731739513     0.00021116893196     0.00004010650199
   11     0.00022780139095     0.00535979774368     0.00022648192832     0.00023185386507
   12     0.00009879763648     0.00021784793008     0.00005712948585     0.08316496423462
   13     0.00000835781791     0.00001417605029     0.00001173067045     0.00456961205652
   14     0.00004323786391     0.00002868846810     0.00001863954147     0.00017444543645
   15     0.00000980850136     0.00003419402365     0.00000732491912     0.00014237702720
   16     0.00000000000000     0.00026003166124     0.00539450595012     0.00002110579402
   17     0.00026003166124     0.00000000000000     0.00538069398728     0.00000370527107
   18     0.00539450595012     0.00538069398728     0.00000000000000     0.00002564176960
   19     0.00002110579402     0.00000370527107     0.00002564176960     0.00000000000000



  Atomic Valences: 

 #  #
 Irrep: 1
      1:    4.915232994816791
      2:    4.493455968469906
      3:    4.810108259934502
      4:    4.484898960396829
      5:    4.226122867829696
      6:    4.479509219367937
      7:    4.456380455479355
      8:    4.458719363890765
      9:    4.456180882210806
     10:    0.986433773732838
     11:    0.981985281202708
     12:    2.838965566353261
     13:    0.998691789056219
     14:    0.998214871561502
     15:    0.992447529568786
     16:    0.990483486183463
     17:    0.990017005142778
     18:    0.990648368936133
     19:    0.993004274196600


    Psi4 stopped on: Saturday, 18 November 2023 08:29AM
    Psi4 wall time for execution: 0:00:25.51

*** Psi4 exiting successfully. Buy a developer a beer!
