      -----------------------------------------------------------      
     |                   =====================                   |     
     |                           x T B                           |     
     |                   =====================                   |     
     |                         S. Grimme                         |     
     |          Mulliken Center for Theoretical Chemistry        |     
     |                    University of Bonn                     |     
      -----------------------------------------------------------      

   * xtb version 6.5.0 (97a52f5) compiled by 'conda@d2599ee0d4f4' on 2022-05-15

   xtb is free software: you can redistribute it and/or modify it under
   the terms of the GNU Lesser General Public License as published by
   the Free Software Foundation, either version 3 of the License, or
   (at your option) any later version.
   
   xtb is distributed in the hope that it will be useful,
   but WITHOUT ANY WARRANTY; without even the implied warranty of
   MERCHANTABILITY or FITNESS FOR A PARTICULAR PURPOSE.  See the
   GNU Lesser General Public License for more details.
   
   Cite this work as:
   * C. Bannwarth, E. Caldeweyher, S. Ehlert, A. Hansen, P. Pracht,
     J. Seibert, S. Spicher, S. Grimme, WIREs Comput. Mol. Sci., 2020, 11,
     e01493. DOI: 10.1002/wcms.1493
   
   for GFN2-xTB:
   * C. Bannwarth, S. Ehlert and S. Grimme., J. Chem. Theory Comput., 2019,
     15, 1652-1671. DOI: 10.1021/acs.jctc.8b01176
   for GFN1-xTB:
   * S. Grimme, C. Bannwarth, P. Shushkov, J. Chem. Theory Comput., 2017,
     13, 1989-2009. DOI: 10.1021/acs.jctc.7b00118
   for GFN0-xTB:
   * P. Pracht, E. Caldeweyher, S. Ehlert, S. Grimme, ChemRxiv, 2019, preprint.
     DOI: 10.26434/chemrxiv.8326202.v1
   for GFN-FF:
   * S. Spicher and S. Grimme, Angew. Chem. Int. Ed., 2020, 59, 15665-15673.
     DOI: 10.1002/anie.202004239
   
   for ALPB and GBSA implicit solvation:
   * S. Ehlert, M. Stahn, S. Spicher, S. Grimme, J. Chem. Theory Comput.,
     2021, 17, 4250-4261. DOI: 10.1021/acs.jctc.1c00471
   
   for DFT-D4:
   * E. Caldeweyher, C. Bannwarth and S. Grimme, J. Chem. Phys., 2017,
     147, 034112. DOI: 10.1063/1.4993215
   * E. Caldeweyher, S. Ehlert, A. Hansen, H. Neugebauer, S. Spicher,
     C. Bannwarth and S. Grimme, J. Chem. Phys., 2019, 150, 154122.
     DOI: 10.1063/1.5090222
   * E. Caldeweyher, J.-M. Mewes, S. Ehlert and S. Grimme, Phys. Chem. Chem. Phys.
     2020, 22, 8499-8512. DOI: 10.1039/D0CP00502A
   
   for sTDA-xTB:
   * S. Grimme and C. Bannwarth, J. Chem. Phys., 2016, 145, 054103.
     DOI: 10.1063/1.4959605
   
   in the mass-spec context:
   * V. Asgeirsson, C. Bauer and S. Grimme, Chem. Sci., 2017, 8, 4879.
     DOI: 10.1039/c7sc00601b
   * J. Koopman and S. Grimme, ACS Omega 2019, 4, 12, 15120-15133.
     DOI: 10.1021/acsomega.9b02011
   
   for metadynamics refer to:
   * S. Grimme, J. Chem. Theory Comput., 2019, 155, 2847-2862
     DOI: 10.1021/acs.jctc.9b00143
   
   for SPH calculations refer to:
   * S. Spicher and S. Grimme, J. Chem. Theory Comput., 2021, 17, 1701-1714
     DOI: 10.1021/acs.jctc.0c01306
   
   with help from (in alphabetical order)
   P. Atkinson, C. Bannwarth, F. Bohle, G. Brandenburg, E. Caldeweyher
   M. Checinski, S. Dohm, S. Ehlert, S. Ehrlich, I. Gerasimov, C. Hölzer
   A. Katbashev, J. Koopman, C. Lavigne, S. Lehtola, F. März, M. Müller,
   F. Musil, H. Neugebauer, J. Pisarek, C. Plett, P. Pracht, F. Pultar,
   J. Seibert, P. Shushkov, S. Spicher, M. Stahn, M. Steiner, T. Strunk,
   J. Stückrath, T. Rose, and J. Unsleber
   
 * started run on 2023/11/18 at 08:27:55.604     

           -------------------------------------------------
          |                Calculation Setup                |
           -------------------------------------------------

          program call               : /home/liuchw/anaconda3/envs/xtbenv/bin/xtb --gfn 2 --chrg 0 --uhf 0 3_25_Index_0_GrowFragment_3-opt-2-3-343_preQMOPTprefit_xyzformat.xyz --opt --input xtb-opt-2-3-343_constr.txt
          hostname                   : node165.bme.utexas.edu
          coordinate file            : 3_25_Index_0_GrowFragment_3-opt-2-3-343_preQMOPTprefit_xyzformat.xyz
          omp threads                :                    64

   ID    Z sym.   atoms
    1    6 C      1, 3-5, 7-11
    2    7 N      2, 15
    3    8 O      6
    4    1 H      12-14, 16-24
constraining angle 1 2 3 4 to  343.0035726°, actual value:  -16.9964274°
constraining angle 11 1 2 3 to   53.2164207°, actual value:   53.2164207°
constraining angle 2 3 4 15 to  183.9708879°, actual value: -176.0291121°
constraining angle 1 2 5 13 to   30.0043597°, actual value:   30.0043597°
constraining angle 16 4 15 22 to   71.0255912°, actual value:   71.0255912°
constraining angle 17 4 15 22 to  186.0341431°, actual value: -173.9658569°
constraining angle 16 4 15 24 to  181.9697260°, actual value: -178.0302740°
constraining angle 17 4 15 24 to  296.9782779°, actual value:  -63.0217221°

           -------------------------------------------------
          |                 G F N 2 - x T B                 |
           -------------------------------------------------

        Reference                      10.1021/acs.jctc.8b01176
      * Hamiltonian:
        H0-scaling (s, p, d)           1.850000    2.230000    2.230000
        zeta-weighting                 0.500000
      * Dispersion:
        s8                             2.700000
        a1                             0.520000
        a2                             5.000000
        s9                             5.000000
      * Repulsion:
        kExp                           1.500000    1.000000
        rExp                           1.000000
      * Coulomb:
        alpha                          2.000000
        third order                    shell-resolved
        anisotropic                    true
        a3                             3.000000
        a5                             4.000000
        cn-shift                       1.200000
        cn-exp                         4.000000
        max-rad                        5.000000

q/qsh data taken from xtbrestart
CAMM data taken from xtbrestart

          ...................................................
          :                      SETUP                      :
          :.................................................:
          :  # basis functions                  60          :
          :  # atomic orbitals                  60          :
          :  # shells                           36          :
          :  # electrons                        64          :
          :  max. iterations                   250          :
          :  Hamiltonian                  GFN2-xTB          :
          :  restarted?                       true          :
          :  GBSA solvation                  false          :
          :  PC potential                    false          :
          :  electronic temp.          300.0000000     K    :
          :  accuracy                    1.0000000          :
          :  -> integral cutoff          0.2500000E+02      :
          :  -> integral neglect         0.1000000E-07      :
          :  -> SCF convergence          0.1000000E-05 Eh   :
          :  -> wf. convergence          0.1000000E-03 e    :
          :  Broyden damping             0.4000000          :
          ...................................................

 iter      E             dE          RMSdq      gap      omega  full diag
   1    -35.7316766 -0.357317E+02  0.131E+00    3.43       0.0  T
   2    -35.7329828 -0.130620E-02  0.783E-01    3.42       1.0  T
   3    -35.7310367  0.194615E-02  0.362E-01    3.35       1.0  T
   4    -35.7335608 -0.252413E-02  0.583E-02    3.37       1.0  T
   5    -35.7336112 -0.504009E-04  0.211E-02    3.38       1.0  T
   6    -35.7336122 -0.996073E-06  0.920E-03    3.38       2.2  T
   7    -35.7336127 -0.488810E-06  0.287E-03    3.38       7.1  T
   8    -35.7336127 -0.674363E-07  0.940E-04    3.38      21.7  T
   9    -35.7336127  0.996963E-10  0.468E-04    3.38      43.6  T

   *** convergence criteria satisfied after 9 iterations ***

         #    Occupation            Energy/Eh            Energy/eV
      -------------------------------------------------------------
         1        2.0000           -0.6956081             -18.9285
       ...           ...                  ...                  ...
        26        2.0000           -0.4460590             -12.1379
        27        2.0000           -0.4385962             -11.9348
        28        2.0000           -0.4221322             -11.4868
        29        2.0000           -0.4170907             -11.3496
        30        2.0000           -0.4070920             -11.0775
        31        2.0000           -0.3872972             -10.5389
        32        2.0000           -0.3703186             -10.0769 (HOMO)
        33                         -0.2461966              -6.6994 (LUMO)
        34                         -0.2424735              -6.5980
        35                         -0.2318873              -6.3100
        36                         -0.1213841              -3.3030
        37                         -0.0606589              -1.6506
       ...                                ...                  ...
        60                          0.5921976              16.1145
      -------------------------------------------------------------
                  HL-Gap            0.1241221 Eh            3.3775 eV
             Fermi-level           -0.3082576 Eh           -8.3881 eV

 SCC (total)                   0 d,  0 h,  0 min,  1.257 sec
 SCC setup                      ...        0 min,  0.009 sec (  0.745%)
 Dispersion                     ...        0 min,  0.047 sec (  3.702%)
 classical contributions        ...        0 min,  0.015 sec (  1.211%)
 integral evaluation            ...        0 min,  0.035 sec (  2.817%)
 iterations                     ...        0 min,  1.002 sec ( 79.690%)
 molecular gradient             ...        0 min,  0.148 sec ( 11.799%)
 printout                       ...        0 min,  0.000 sec (  0.016%)

         :::::::::::::::::::::::::::::::::::::::::::::::::::::
         ::                     SUMMARY                     ::
         :::::::::::::::::::::::::::::::::::::::::::::::::::::
         :: total energy             -35.266983196798 Eh    ::
         :: gradient norm              0.071436692120 Eh/a0 ::
         :: HOMO-LUMO gap              3.377533074017 eV    ::
         ::.................................................::
         :: SCC energy               -35.733612729601 Eh    ::
         :: -> isotropic ES            0.045897494363 Eh    ::
         :: -> anisotropic ES          0.004781321788 Eh    ::
         :: -> anisotropic XC          0.021686858385 Eh    ::
         :: -> dispersion             -0.020520910659 Eh    ::
         :: repulsion energy           0.466487666898 Eh    ::
         :: add. restraining           0.000000000000 Eh    ::
         :: total charge              -0.000000000000 e     ::
         :::::::::::::::::::::::::::::::::::::::::::::::::::::

      ----------------------------------------------------------- 
     |                   =====================                   |
     |                        A N C O P T                        |
     |                   =====================                   |
     |               Approximate Normal Coordinate               |
     |                Rational Function Optimizer                |
      ----------------------------------------------------------- 

          ...................................................
          :                      SETUP                      :
          :.................................................:
          :   optimization level            normal          :
          :   max. optcycles                   200          :
          :   ANC micro-cycles                  20          :
          :   degrees of freedom                66          :
          :.................................................:
          :   RF solver                   davidson          :
          :   write xtbopt.log                true          :
          :   linear?                        false          :
          :   energy convergence         0.5000000E-05 Eh   :
          :   grad. convergence          0.1000000E-02 Eh/α :
          :   maximium RF displ.         1.0000000          :
          :   Hlow (freq-cutoff)         0.1000000E-01      :
          :   Hmax (freq-cutoff)         5.0000000          :
          :   S6 in model hess.         20.0000000          :
          ...................................................

generating ANC from model Hessian ...
Using Lindh-Hessian (1995)
 Shifting diagonal of input Hessian by    8.5729191154878780E-003
 Lowest  eigenvalues of input Hessian
    0.000000    0.000000    0.000000    0.000000    0.000000    0.000000
    0.010000    0.011763    0.013129    0.016273    0.017478    0.019507
    0.022881    0.024667    0.028379    0.030064    0.033387    0.037802
 Highest eigenvalues
    2.984309    6.001130    7.043853    9.253379   11.258187   21.274857


........................................................................
.............................. CYCLE    1 ..............................
........................................................................
   1    -35.7336127 -0.357336E+02  0.180E-04    3.38       0.0  T
   2    -35.7336127 -0.827143E-10  0.109E-04    3.38     186.7  T
   3    -35.7336127  0.348166E-12  0.736E-05    3.38     277.3  T
     SCC iter.                  ...        0 min,  0.321 sec
     gradient                   ...        0 min,  0.143 sec
 * total energy  :   -35.2669832 Eh     change       -0.3232856E-08 Eh
   gradient norm :     0.0714375 Eh/α   predicted     0.0000000E+00 (-100.00%)
   displ. norm   :     0.4317420 α      lambda       -0.1780304E-01
   maximum displ.:     0.2491471 α      in ANC's #13, #12, #16, ...

........................................................................
.............................. CYCLE    2 ..............................
........................................................................
   1    -35.7807491 -0.357807E+02  0.304E-01    3.48       0.0  T
   2    -35.7810903 -0.341239E-03  0.195E-01    3.43       1.0  T
   3    -35.7811060 -0.156945E-04  0.969E-02    3.44       1.0  T
   4    -35.7811459 -0.398660E-04  0.301E-02    3.43       1.0  T
   5    -35.7811681 -0.222009E-04  0.512E-03    3.43       4.0  T
   6    -35.7811681 -0.396993E-07  0.281E-03    3.43       7.3  T
   7    -35.7811682 -0.609397E-07  0.585E-04    3.43      34.9  T
   8    -35.7811682 -0.417664E-09  0.263E-04    3.43      77.6  T
     SCC iter.                  ...        0 min,  0.933 sec
     gradient                   ...        0 min,  0.148 sec
 * total energy  :   -35.2789887 Eh     change       -0.1200551E-01 Eh
   gradient norm :     0.1184536 Eh/α   predicted    -0.1068336E-01 ( -11.01%)
   displ. norm   :     0.4345470 α      lambda       -0.1059929E-01
   maximum displ.:     0.2529469 α      in ANC's #13, #12, #3, ...

........................................................................
.............................. CYCLE    3 ..............................
........................................................................
   1    -35.8135407 -0.358135E+02  0.246E-01    3.49       0.0  T
   2    -35.8139743 -0.433542E-03  0.163E-01    3.45       1.0  T
   3    -35.8140448 -0.705089E-04  0.866E-02    3.45       1.0  T
   4    -35.8140430  0.181969E-05  0.319E-02    3.45       1.0  T
   5    -35.8140643 -0.213070E-04  0.431E-03    3.45       4.7  T
   6    -35.8140643 -0.659249E-07  0.252E-03    3.45       8.1  T
   7    -35.8140644 -0.309768E-07  0.503E-04    3.45      40.6  T
   8    -35.8140644 -0.412676E-09  0.242E-04    3.45      84.3  T
     SCC iter.                  ...        0 min,  0.920 sec
     gradient                   ...        0 min,  0.138 sec
 * total energy  :   -35.2774208 Eh     change        0.1567864E-02 Eh
   gradient norm :     0.5144840 Eh/α   predicted    -0.6300928E-02 (-501.88%)
   displ. norm   :     0.1778628 α      lambda       -0.1428598E-01
   maximum displ.:     0.0766973 α      in ANC's #3, #4, #2, ...

........................................................................
.............................. CYCLE    4 ..............................
........................................................................
   1    -35.8164525 -0.358165E+02  0.965E-02    3.44       0.0  T
   2    -35.8164730 -0.204992E-04  0.588E-02    3.45       1.0  T
   3    -35.8164705  0.244689E-05  0.239E-02    3.46       1.0  T
   4    -35.8164760 -0.550803E-05  0.504E-03    3.46       4.1  T
   5    -35.8164762 -0.178985E-06  0.242E-03    3.45       8.4  T
   6    -35.8164763 -0.590225E-07  0.983E-04    3.45      20.8  T
   7    -35.8164763 -0.353202E-08  0.333E-04    3.45      61.4  T
     SCC iter.                  ...        0 min,  0.718 sec
     gradient                   ...        0 min,  0.141 sec
 * total energy  :   -35.2839289 Eh     change       -0.6508069E-02 Eh
   gradient norm :     0.0897769 Eh/α   predicted    -0.7368955E-02 (  13.23%)
   displ. norm   :     0.2295725 α      lambda       -0.2141612E-02
   maximum displ.:     0.1424881 α      in ANC's #3, #2, #4, ...

........................................................................
.............................. CYCLE    5 ..............................
........................................................................
   1    -35.8061559 -0.358062E+02  0.115E-01    3.41       0.0  T
   2    -35.8061648 -0.891781E-05  0.678E-02    3.42       1.0  T
   3    -35.8061581  0.672751E-05  0.220E-02    3.42       1.0  T
   4    -35.8061673 -0.918833E-05  0.405E-03    3.42       5.0  T
   5    -35.8061674 -0.142890E-06  0.196E-03    3.42      10.4  T
   6    -35.8061675 -0.421652E-07  0.672E-04    3.42      30.4  T
   7    -35.8061675 -0.197503E-08  0.253E-04    3.42      80.6  T
     SCC iter.                  ...        0 min,  0.747 sec
     gradient                   ...        0 min,  0.147 sec
 * total energy  :   -35.2851363 Eh     change       -0.1207372E-02 Eh
   gradient norm :     0.0657482 Eh/α   predicted    -0.1127240E-02 (  -6.64%)
   displ. norm   :     0.3683251 α      lambda       -0.1780691E-02
   maximum displ.:     0.2436791 α      in ANC's #3, #2, #4, ...

........................................................................
.............................. CYCLE    6 ..............................
........................................................................
   1    -35.8020089 -0.358020E+02  0.148E-01    3.41       0.0  T
   2    -35.8020192 -0.103334E-04  0.869E-02    3.43       1.0  T
   3    -35.8020160  0.318855E-05  0.164E-02    3.44       1.2  T
   4    -35.8020208 -0.481087E-05  0.457E-03    3.44       4.5  T
   5    -35.8020211 -0.263435E-06  0.207E-03    3.44       9.8  T
   6    -35.8020211 -0.215890E-07  0.797E-04    3.44      25.6  T
   7    -35.8020211 -0.355414E-08  0.247E-04    3.44      82.7  T
     SCC iter.                  ...        0 min,  0.726 sec
     gradient                   ...        0 min,  0.145 sec
 * total energy  :   -35.2863289 Eh     change       -0.1192610E-02 Eh
   gradient norm :     0.0212574 Eh/α   predicted    -0.1011141E-02 ( -15.22%)
   displ. norm   :     0.3988190 α      lambda       -0.1194990E-02
   maximum displ.:     0.2317790 α      in ANC's #3, #2, #4, ...

........................................................................
.............................. CYCLE    7 ..............................
........................................................................
   1    -35.8052005 -0.358052E+02  0.154E-01    3.43       0.0  T
   2    -35.8052147 -0.141851E-04  0.900E-02    3.44       1.0  T
   3    -35.8052034  0.112867E-04  0.296E-02    3.44       1.0  T
   4    -35.8052183 -0.148572E-04  0.511E-03    3.44       4.0  T
   5    -35.8052185 -0.196154E-06  0.230E-03    3.44       8.9  T
   6    -35.8052185 -0.343767E-07  0.926E-04    3.44      22.0  T
   7    -35.8052185 -0.260716E-08  0.268E-04    3.44      76.2  T
     SCC iter.                  ...        0 min,  0.771 sec
     gradient                   ...        0 min,  0.157 sec
 * total energy  :   -35.2870861 Eh     change       -0.7571820E-03 Eh
   gradient norm :     0.0193384 Eh/α   predicted    -0.6925347E-03 (  -8.54%)
   displ. norm   :     0.2667786 α      lambda       -0.8105147E-03
   maximum displ.:     0.1720405 α      in ANC's #2, #1, #3, ...

........................................................................
.............................. CYCLE    8 ..............................
........................................................................
   1    -35.8092925 -0.358093E+02  0.113E-01    3.44       0.0  T
   2    -35.8092982 -0.567550E-05  0.658E-02    3.44       1.0  T
   3    -35.8092946  0.362168E-05  0.169E-02    3.44       1.2  T
   4    -35.8092993 -0.473371E-05  0.401E-03    3.44       5.1  T
   5    -35.8092995 -0.203956E-06  0.156E-03    3.44      13.1  T
   6    -35.8092995 -0.185661E-08  0.573E-04    3.44      35.7  T
   7    -35.8092995 -0.316658E-08  0.180E-04    3.44     113.6  T
     SCC iter.                  ...        0 min,  0.845 sec
     gradient                   ...        0 min,  0.147 sec
 * total energy  :   -35.2875753 Eh     change       -0.4892191E-03 Eh
   gradient norm :     0.0211219 Eh/α   predicted    -0.4341003E-03 ( -11.27%)
   displ. norm   :     0.2911404 α      lambda       -0.5732396E-03
   maximum displ.:     0.2110744 α      in ANC's #2, #1, #3, ...

........................................................................
.............................. CYCLE    9 ..............................
........................................................................
   1    -35.8115601 -0.358116E+02  0.129E-01    3.44       0.0  T
   2    -35.8115732 -0.131181E-04  0.751E-02    3.45       1.0  T
   3    -35.8115711  0.205595E-05  0.177E-02    3.46       1.2  T
   4    -35.8115740 -0.285530E-05  0.508E-03    3.46       4.0  T
   5    -35.8115744 -0.375110E-06  0.140E-03    3.46      14.5  T
   6    -35.8115744 -0.775787E-08  0.548E-04    3.46      37.3  T
   7    -35.8115744 -0.160291E-09  0.164E-04    3.46     124.2  T
     SCC iter.                  ...        0 min,  0.764 sec
     gradient                   ...        0 min,  0.138 sec
 * total energy  :   -35.2878619 Eh     change       -0.2866261E-03 Eh
   gradient norm :     0.0263587 Eh/α   predicted    -0.3109219E-03 (   8.48%)
   displ. norm   :     0.1975961 α      lambda       -0.2927792E-03
   maximum displ.:     0.1303272 α      in ANC's #2, #1, #5, ...

........................................................................
.............................. CYCLE   10 ..............................
........................................................................
   1    -35.8092930 -0.358093E+02  0.828E-02    3.45       0.0  T
   2    -35.8092953 -0.225011E-05  0.485E-02    3.46       1.0  T
   3    -35.8092936  0.168904E-05  0.106E-02    3.46       1.9  T
   4    -35.8092958 -0.219774E-05  0.226E-03    3.46       9.0  T
   5    -35.8092958 -0.588009E-07  0.102E-03    3.46      20.0  T
   6    -35.8092958 -0.280004E-08  0.399E-04    3.46      51.1  T
   7    -35.8092958 -0.110672E-08  0.105E-04    3.46     193.5  T
     SCC iter.                  ...        0 min,  0.716 sec
     gradient                   ...        0 min,  0.173 sec
 * total energy  :   -35.2880367 Eh     change       -0.1747343E-03 Eh
   gradient norm :     0.0102041 Eh/α   predicted    -0.1521059E-03 ( -12.95%)
   displ. norm   :     0.1131444 α      lambda       -0.1949083E-03
   maximum displ.:     0.0568043 α      in ANC's #1, #2, #4, ...

........................................................................
.............................. CYCLE   11 ..............................
........................................................................
   1    -35.8120261 -0.358120E+02  0.528E-02    3.47       0.0  T
   2    -35.8120278 -0.173958E-05  0.306E-02    3.47       1.0  T
   3    -35.8120275  0.284065E-06  0.686E-03    3.48       3.0  T
   4    -35.8120280 -0.468470E-06  0.184E-03    3.48      11.1  T
   5    -35.8120280 -0.378172E-07  0.728E-04    3.48      28.0  T
   6    -35.8120280 -0.100687E-08  0.317E-04    3.48      64.3  T
     SCC iter.                  ...        0 min,  0.726 sec
     gradient                   ...        0 min,  0.151 sec
 * total energy  :   -35.2881024 Eh     change       -0.6571617E-04 Eh
   gradient norm :     0.0168762 Eh/α   predicted    -0.9871291E-04 (  50.21%)
   displ. norm   :     0.1101168 α      lambda       -0.1443153E-03
   maximum displ.:     0.0650914 α      in ANC's #5, #2, #1, ...

........................................................................
.............................. CYCLE   12 ..............................
........................................................................
   1    -35.8102313 -0.358102E+02  0.471E-02    3.47       0.0  T
   2    -35.8102403 -0.896169E-05  0.278E-02    3.47       1.0  T
   3    -35.8102405 -0.201089E-06  0.131E-02    3.47       1.6  T
   4    -35.8102409 -0.415780E-06  0.362E-03    3.47       5.6  T
   5    -35.8102412 -0.314642E-06  0.809E-04    3.47      25.2  T
   6    -35.8102412 -0.583980E-08  0.381E-04    3.47      53.5  T
     SCC iter.                  ...        0 min,  0.625 sec
     gradient                   ...        0 min,  0.162 sec
 * total energy  :   -35.2881462 Eh     change       -0.4382908E-04 Eh
   gradient norm :     0.0100683 Eh/α   predicted    -0.7304181E-04 (  66.65%)
   displ. norm   :     0.0488578 α      lambda       -0.7763770E-04
   maximum displ.:     0.0362367 α      in ANC's #3, #12, #4, ...

........................................................................
.............................. CYCLE   13 ..............................
........................................................................
   1    -35.8101087 -0.358101E+02  0.286E-02    3.48       0.0  T
   2    -35.8101154 -0.670008E-05  0.168E-02    3.48       1.2  T
   3    -35.8101158 -0.412505E-06  0.911E-03    3.48       2.2  T
   4    -35.8101158  0.223116E-07  0.258E-03    3.48       7.9  T
   5    -35.8101159 -0.134278E-06  0.716E-04    3.48      28.5  T
   6    -35.8101159 -0.665616E-08  0.327E-04    3.48      62.5  T
     SCC iter.                  ...        0 min,  0.695 sec
     gradient                   ...        0 min,  0.160 sec
 * total energy  :   -35.2881717 Eh     change       -0.2545291E-04 Eh
   gradient norm :     0.0070828 Eh/α   predicted    -0.3891275E-04 (  52.88%)
   displ. norm   :     0.0540973 α      lambda       -0.2882893E-04
   maximum displ.:     0.0403095 α      in ANC's #2, #3, #5, ...

........................................................................
.............................. CYCLE   14 ..............................
........................................................................
   1    -35.8110963 -0.358111E+02  0.238E-02    3.48       0.0  T
   2    -35.8110972 -0.874938E-06  0.139E-02    3.48       1.5  T
   3    -35.8110971  0.490865E-07  0.427E-03    3.48       4.8  T
   4    -35.8110972 -0.913773E-07  0.113E-03    3.48      18.0  T
   5    -35.8110973 -0.240878E-07  0.340E-04    3.48      60.1  T
   6    -35.8110973 -0.436941E-09  0.137E-04    3.48     148.5  T
     SCC iter.                  ...        0 min,  0.713 sec
     gradient                   ...        0 min,  0.150 sec
 * total energy  :   -35.2881865 Eh     change       -0.1488918E-04 Eh
   gradient norm :     0.0026743 Eh/α   predicted    -0.1445838E-04 (  -2.89%)
   displ. norm   :     0.0204989 α      lambda       -0.6774466E-05
   maximum displ.:     0.0137616 α      in ANC's #1, #3, #5, ...

........................................................................
.............................. CYCLE   15 ..............................
........................................................................
   1    -35.8109120 -0.358109E+02  0.750E-03    3.48       0.0  T
   2    -35.8109122 -0.226920E-06  0.451E-03    3.48       4.5  T
   3    -35.8109122 -0.447234E-08  0.210E-03    3.48       9.7  T
   4    -35.8109122 -0.911658E-08  0.659E-04    3.48      31.0  T
   5    -35.8109123 -0.110296E-07  0.132E-04    3.48     154.1  T
     SCC iter.                  ...        0 min,  0.578 sec
     gradient                   ...        0 min,  0.148 sec
 * total energy  :   -35.2881910 Eh     change       -0.4427946E-05 Eh
   gradient norm :     0.0015175 Eh/α   predicted    -0.3389795E-05 ( -23.45%)
   displ. norm   :     0.0361875 α      lambda       -0.4223883E-05
   maximum displ.:     0.0208528 α      in ANC's #1, #3, #5, ...

........................................................................
.............................. CYCLE   16 ..............................
........................................................................
   1    -35.8105861 -0.358106E+02  0.124E-02    3.48       0.0  T
   2    -35.8105864 -0.236224E-06  0.737E-03    3.48       2.8  T
   3    -35.8105863  0.470121E-07  0.263E-03    3.48       7.8  T
   4    -35.8105864 -0.689253E-07  0.751E-04    3.48      27.2  T
   5    -35.8105864 -0.134659E-07  0.191E-04    3.48     106.7  T
     SCC iter.                  ...        0 min,  0.538 sec
     gradient                   ...        0 min,  0.168 sec
 * total energy  :   -35.2881920 Eh     change       -0.1016477E-05 Eh
   gradient norm :     0.0034906 Eh/α   predicted    -0.2115541E-05 ( 108.12%)
   displ. norm   :     0.0085508 α      lambda       -0.2187905E-05
   maximum displ.:     0.0054132 α      in ANC's #1, #5, #2, ...

........................................................................
.............................. CYCLE   17 ..............................
........................................................................
   1    -35.8107367 -0.358107E+02  0.356E-03    3.48       0.0  T
   2    -35.8107368 -0.183456E-07  0.210E-03    3.48       9.7  T
   3    -35.8107368  0.352164E-08  0.726E-04    3.48      28.1  T
   4    -35.8107368 -0.499173E-08  0.195E-04    3.48     104.6  T
     SCC iter.                  ...        0 min,  0.472 sec
     gradient                   ...        0 min,  0.150 sec
 * total energy  :   -35.2881932 Eh     change       -0.1242709E-05 Eh
   gradient norm :     0.0004846 Eh/α   predicted    -0.1097115E-05 ( -11.72%)
   displ. norm   :     0.0119988 α      lambda       -0.4849097E-06
   maximum displ.:     0.0085341 α      in ANC's #1, #3, #5, ...

   *** GEOMETRY OPTIMIZATION CONVERGED AFTER 17 ITERATIONS ***

------------------------------------------------------------------------
 total energy gain   :        -0.0212100 Eh      -13.3095 kcal/mol
 total RMSD          :         0.4844077 a0        0.2563 Å
 total power (kW/mol):        -3.2757030 (step)   -3.4898 (real)
------------------------------------------------------------------------

 ANCopt (total)                0 d,  0 h,  0 min, 15.957 sec
 optimizer setup                ...        0 min,  0.000 sec (  0.001%)
 model hessian                  ...        0 min,  0.007 sec (  0.046%)
 ANC generation                 ...        0 min,  0.041 sec (  0.259%)
 coordinate transformation      ...        0 min,  0.001 sec (  0.003%)
 single point calculation       ...        0 min, 15.704 sec ( 98.412%)
 optimization log               ...        0 min,  0.003 sec (  0.017%)
 hessian update                 ...        0 min,  0.172 sec (  1.076%)
 rational function              ...        0 min,  0.028 sec (  0.173%)

================
 final structure:
================
24
 xtb: 6.5.0 (97a52f5)
C           -0.67355456661552       -0.34034078229008        0.25415565103949
N            0.32062153860444       -0.36579174223510        1.25636747363604
C            1.58882921996860        0.13379373253225        1.17012863309317
C            2.19221209890058        0.45095425239793       -0.19487501636989
C           -0.12221698246650       -0.69561099434280        2.60370723167513
O            2.26475414078630        0.26958022687020        2.17401293022851
C           -1.92176919044928        0.20474963862500        0.55865635864239
C           -2.69218104598251       -0.21335430894562       -1.67537963363428
C           -2.91926268441975        0.26293383039096       -0.39574095856023
C           -1.46000141297233       -0.76125388939431       -1.98402906150295
C           -0.45717755859868       -0.82423868481132       -1.03287448080728
H            0.69833226277056       -1.19725537336355        3.11617449538528
H           -0.98326341030593       -1.35731831847640        2.54687955164485
H           -0.37585828605025        0.19870706004953        3.17810808059476
N            3.57426318255589        0.88677541986046       -0.10710440480581
H            1.60602443000776        1.21412919180421       -0.71742628289066
H            2.18870513083924       -0.43930683524038       -0.82660447207021
H           -2.11013486656656        0.59737927516052        1.54560076461671
H           -3.87679918825116        0.69059243553553       -0.13787952957597
H           -1.27352216390749       -1.15025896152659       -2.97390843324061
H            0.47284742459546       -1.30344671637246       -1.28724308869956
H            3.62921340464627        1.65786457614538        0.55705224246246
H           -3.46980196006639       -0.16385571484571       -2.42200713705304
H            4.10972647297751        0.15156970247204        0.35142608619151

 Bond Distances (Angstroems)
 ---------------------------
C1-N2=1.4119         C1-C7=1.3957         C1-C11=1.3919        N2-C1=1.4119         N2-C3=1.3658         N2-C5=1.4561         
C3-N2=1.3658         C3-C4=1.5257         C3-O6=1.2178         C4-C3=1.5257         C4-N15=1.4518        C4-H16=1.0950        
C4-H17=1.0916        C5-N2=1.4561         C5-H12=1.0898        C5-H13=1.0874        C5-H14=1.0927        O6-C3=1.2178         
C7-C1=1.3957         C7-C9=1.3818         C7-H18=1.0787        C8-C9=1.3842         C8-C10=1.3834        C8-H23=1.0792        
C9-C7=1.3818         C9-C8=1.3842         C9-H19=1.0799        C10-C8=1.3834        C10-C11=1.3836       C10-H20=1.0798       
C11-C1=1.3919        C11-C10=1.3836       C11-H21=1.0767       H12-C5=1.0898        H13-C5=1.0874        H14-C5=1.0927        
N15-C4=1.4518        N15-H22=1.0192       N15-H24=1.0186       H16-C4=1.0950        H17-C4=1.0916        H18-C7=1.0787        
H19-C9=1.0799        H20-C10=1.0798       H21-C11=1.0767       H22-N15=1.0192       H23-C8=1.0792        H24-N15=1.0186       
 C  H  Rav=1.0851 sigma=0.0065  Rmin=1.0767  Rmax=1.0950    10
 C  C  Rav=1.4066 sigma=0.0489  Rmin=1.3818  Rmax=1.5257     7
 N  H  Rav=1.0189 sigma=0.0003  Rmin=1.0186  Rmax=1.0192     2
 N  C  Rav=1.4214 sigma=0.0364  Rmin=1.3658  Rmax=1.4561     4
 O  C  Rav=1.2178 sigma=0.0000  Rmin=1.2178  Rmax=1.2178     1

 selected bond angles (degree)
 --------------------
C7-C1-N2=118.81                C11-C1-N2=122.73               C11-C1-C7=118.46               C3-N2-C1=127.04                
C5-N2-C1=116.54                C5-N2-C3=115.07                C4-C3-N2=119.98                O6-C3-N2=120.27                
O6-C3-C4=119.66                N15-C4-C3=112.63               H16-C4-C3=111.11               H16-C4-N15=109.22              
H17-C4-C3=110.30               H17-C4-N15=106.43              H17-C4-H16=106.89              H12-C5-N2=108.08               
H13-C5-N2=109.29               H13-C5-H12=109.92              H14-C5-N2=111.81               H14-C5-H12=107.72              
H14-C5-H13=109.98              C9-C7-C1=120.76                H18-C7-C1=119.86               H18-C7-C9=119.38               
C10-C8-C9=119.25               H23-C8-C9=120.37               H23-C8-C10=120.37              C8-C9-C7=120.37                
H19-C9-C7=119.46               H19-C9-C8=120.16               C11-C10-C8=120.68              H20-C10-C8=120.07              
H20-C10-C11=119.25             

 selected dihedral angles (degree)
 ---------------------------------
C3-N2-C1-C7=234.00            C3-N2-C1-C11= 53.31           C5-N2-C1-C7= 39.98            C5-N2-C1-C11=219.28           
C4-C3-N2-C1=343.07            C4-C3-N2-C5=176.91            O6-C3-N2-C1=166.49            O6-C3-N2-C5=  0.34            
N15-C4-C3-N2=183.89           N15-C4-C3-O6=  0.49           H16-C4-C3-N2= 60.98           H16-C4-C3-O6=237.58           
H17-C4-C3-N2=302.64           H17-C4-C3-O6=119.24           H12-C5-N2-C1=149.61           H12-C5-N2-C3=317.28           
H13-C5-N2-C1= 30.01           H13-C5-N2-C3=197.68           H14-C5-N2-C1=268.00           H14-C5-N2-C3= 75.67           
C9-C7-C1-N2=179.31            C9-C7-C1-C11=  0.00           H18-C7-C1-N2=  0.08           H18-C7-C1-C11=180.75          
C8-C9-C7-C1=359.63            C8-C9-C7-H18=178.86           H19-C9-C7-C1=180.10           H19-C9-C7-H18=359.34          
C7-C9-C8-C10=  0.68           C7-C9-C8-H23=180.28           H19-C9-C8-C10=180.20          H19-C9-C8-H23=359.80          
C11-C10-C8-C9=359.40          C11-C10-C8-H23=179.80         H20-C10-C8-C9=179.08          H20-C10-C8-H23=359.49         
           -------------------------------------------------
          |                Final Singlepoint                |
           -------------------------------------------------

          ...................................................
          :                      SETUP                      :
          :.................................................:
          :  # basis functions                  60          :
          :  # atomic orbitals                  60          :
          :  # shells                           36          :
          :  # electrons                        64          :
          :  max. iterations                   250          :
          :  Hamiltonian                  GFN2-xTB          :
          :  restarted?                      false          :
          :  GBSA solvation                  false          :
          :  PC potential                    false          :
          :  electronic temp.          300.0000000     K    :
          :  accuracy                    1.0000000          :
          :  -> integral cutoff          0.2500000E+02      :
          :  -> integral neglect         0.1000000E-07      :
          :  -> SCF convergence          0.1000000E-05 Eh   :
          :  -> wf. convergence          0.1000000E-03 e    :
          :  Broyden damping             0.4000000          :
          ...................................................

 iter      E             dE          RMSdq      gap      omega  full diag
   1    -35.8107368 -0.358107E+02  0.416E-05    3.48       0.0  T
   2    -35.8107368 -0.567724E-11  0.244E-05    3.48     836.9  T
   3    -35.8107368 -0.675016E-12  0.138E-05    3.48    1480.6  T

   *** convergence criteria satisfied after 3 iterations ***

         #    Occupation            Energy/Eh            Energy/eV
      -------------------------------------------------------------
         1        2.0000           -0.7018559             -19.0985
       ...           ...                  ...                  ...
        26        2.0000           -0.4451504             -12.1132
        27        2.0000           -0.4408818             -11.9970
        28        2.0000           -0.4293845             -11.6841
        29        2.0000           -0.4190393             -11.4026
        30        2.0000           -0.4079621             -11.1012
        31        2.0000           -0.3872187             -10.5368
        32        2.0000           -0.3706170             -10.0850 (HOMO)
        33                         -0.2428855              -6.6093 (LUMO)
        34                         -0.2372140              -6.4549
        35                         -0.2060965              -5.6082
        36                         -0.1062880              -2.8922
        37                         -0.0139667              -0.3801
       ...                                ...                  ...
        60                          0.6580037              17.9052
      -------------------------------------------------------------
                  HL-Gap            0.1277315 Eh            3.4758 eV
             Fermi-level           -0.3067513 Eh           -8.3471 eV

 SCC (total)                   0 d,  0 h,  0 min,  0.564 sec
 SCC setup                      ...        0 min,  0.011 sec (  1.899%)
 Dispersion                     ...        0 min,  0.022 sec (  3.897%)
 classical contributions        ...        0 min,  0.006 sec (  1.036%)
 integral evaluation            ...        0 min,  0.033 sec (  5.783%)
 iterations                     ...        0 min,  0.350 sec ( 61.932%)
 molecular gradient             ...        0 min,  0.143 sec ( 25.385%)
 printout                       ...        0 min,  0.000 sec (  0.026%)

         :::::::::::::::::::::::::::::::::::::::::::::::::::::
         ::                     SUMMARY                     ::
         :::::::::::::::::::::::::::::::::::::::::::::::::::::
         :: total energy             -35.288193237128 Eh    ::
         :: gradient norm              0.000484942944 Eh/a0 ::
         :: HOMO-LUMO gap              3.475752042668 eV    ::
         ::.................................................::
         :: SCC energy               -35.810736767535 Eh    ::
         :: -> isotropic ES            0.046833701616 Eh    ::
         :: -> anisotropic ES          0.003973901767 Eh    ::
         :: -> anisotropic XC          0.020061468074 Eh    ::
         :: -> dispersion             -0.020971116565 Eh    ::
         :: repulsion energy           0.522399968502 Eh    ::
         :: add. restraining           0.000020665790 Eh    ::
         :: total charge              -0.000000000000 e     ::
         :::::::::::::::::::::::::::::::::::::::::::::::::::::

           -------------------------------------------------
          |                Property Printout                |
           -------------------------------------------------

    * Orbital Energies and Occupations

         #    Occupation            Energy/Eh            Energy/eV
      -------------------------------------------------------------
         1        2.0000           -0.7018559             -19.0985
       ...           ...                  ...                  ...
        20        2.0000           -0.4959002             -13.4941
        21        2.0000           -0.4915192             -13.3749
        22        2.0000           -0.4901017             -13.3363
        23        2.0000           -0.4851728             -13.2022
        24        2.0000           -0.4766146             -12.9693
        25        2.0000           -0.4509657             -12.2714
        26        2.0000           -0.4451504             -12.1132
        27        2.0000           -0.4408818             -11.9970
        28        2.0000           -0.4293845             -11.6841
        29        2.0000           -0.4190393             -11.4026
        30        2.0000           -0.4079621             -11.1012
        31        2.0000           -0.3872187             -10.5368
        32        2.0000           -0.3706170             -10.0850 (HOMO)
        33                         -0.2428855              -6.6093 (LUMO)
        34                         -0.2372140              -6.4549
        35                         -0.2060965              -5.6082
        36                         -0.1062880              -2.8922
        37                         -0.0139667              -0.3801
        38                          0.0673111               1.8316
        39                          0.0749947               2.0407
        40                          0.0965375               2.6269
        41                          0.1235669               3.3624
        42                          0.1316944               3.5836
        43                          0.1425600               3.8793
       ...                                ...                  ...
        60                          0.6580037              17.9052
      -------------------------------------------------------------
                  HL-Gap            0.1277315 Eh            3.4758 eV
             Fermi-level           -0.3067513 Eh           -8.3471 eV

     #   Z          covCN         q      C6AA      α(0)
     1   6 C        2.912     0.062    26.617     8.460
     2   7 N        2.737    -0.098    23.152     7.146
     3   6 C        2.768     0.253    22.742     7.810
     4   6 C        3.732    -0.005    20.764     6.504
     5   6 C        3.712    -0.038    21.384     6.608
     6   8 O        0.860    -0.437    22.426     6.349
     7   6 C        2.925    -0.046    29.138     8.852
     8   6 C        2.919    -0.033    28.831     8.805
     9   6 C        2.920    -0.028    28.699     8.785
    10   6 C        2.921    -0.027    28.679     8.782
    11   6 C        2.922    -0.048    29.187     8.859
    12   1 H        0.925     0.076     2.021     2.223
    13   1 H        0.925     0.052     2.299     2.371
    14   1 H        0.924     0.053     2.287     2.365
    15   7 N        2.628    -0.336    28.650     7.950
    16   1 H        0.924     0.047     2.354     2.399
    17   1 H        0.924     0.053     2.289     2.366
    18   1 H        0.926     0.042     2.420     2.433
    19   1 H        0.926     0.038     2.471     2.458
    20   1 H        0.926     0.040     2.453     2.449
    21   1 H        0.926     0.039     2.463     2.454
    22   1 H        0.860     0.152     1.385     1.844
    23   1 H        0.926     0.038     2.478     2.462
    24   1 H        0.860     0.151     1.395     1.850

 Mol. C6AA /au·bohr⁶  :       6153.182478
 Mol. C8AA /au·bohr⁸  :     142292.696871
 Mol. α(0) /au        :        122.584761


Wiberg/Mayer (AO) data.
largest (>0.10) Wiberg bond orders for each atom

 ---------------------------------------------------------------------------
     #   Z sym  total        # sym  WBO       # sym  WBO       # sym  WBO
 ---------------------------------------------------------------------------
     1   6 C    3.966 --    11 C    1.386     7 C    1.378     2 N    1.037
                             8 C    0.102
     2   7 N    3.508 --     3 C    1.202     1 C    1.037     5 C    0.985
                             6 O    0.171
     3   6 C    3.945 --     6 O    1.687     2 N    1.202     4 C    0.956
     4   6 C    3.992 --    15 N    1.039    16 H    0.958     3 C    0.956
                            17 H    0.951
     5   6 C    3.966 --     2 N    0.985    13 H    0.983    14 H    0.975
                            12 H    0.975
     6   8 O    2.000 --     3 C    1.687     2 N    0.171
     7   6 C    3.990 --     9 C    1.454     1 C    1.378    18 H    0.967
                            10 C    0.109
     8   6 C    3.985 --    10 C    1.437     9 C    1.432    23 H    0.971
                             1 C    0.102
     9   6 C    3.991 --     7 C    1.454     8 C    1.432    19 H    0.970
                            11 C    0.108
    10   6 C    3.991 --    11 C    1.446     8 C    1.437    20 H    0.970
                             7 C    0.109
    11   6 C    3.991 --    10 C    1.446     1 C    1.386    21 H    0.962
                             9 C    0.108
    12   1 H    0.993 --     5 C    0.975
    13   1 H    0.997 --     5 C    0.983
    14   1 H    0.997 --     5 C    0.975
    15   7 N    3.005 --     4 C    1.039    24 H    0.961    22 H    0.960
    16   1 H    0.998 --     4 C    0.958
    17   1 H    0.997 --     4 C    0.951
    18   1 H    0.998 --     7 C    0.967
    19   1 H    0.998 --     9 C    0.970
    20   1 H    0.998 --    10 C    0.970
    21   1 H    0.998 --    11 C    0.962
    22   1 H    0.977 --    15 N    0.960
    23   1 H    0.998 --     8 C    0.971
    24   1 H    0.977 --    15 N    0.961
 ---------------------------------------------------------------------------

Topologies differ in total number of bonds
Writing topology from bond orders to xtbtopo.mol

molecular dipole:
                 x           y           z       tot (Debye)
 q only:       -1.135      -0.349      -0.529
   full:       -1.348      -0.412      -0.314       3.670
molecular quadrupole (traceless):
                xx          xy          yy          xz          yz          zz
 q only:       -2.085      -1.793       2.162      -6.128      -1.195      -0.077
  q+dip:       -3.287      -5.489       2.354      -3.918       1.564       0.933
   full:       -4.018      -4.373       4.337      -4.113       0.511      -0.319

           -------------------------------------------------
          |                Geometry Summary                 |
           -------------------------------------------------

      molecular mass/u    :      164.2047234
   center of mass at/Å    :        0.0837899      -0.0664238       0.2769181
  moments of inertia/u·Å² :        0.2904782E+03   0.8217215E+03   0.1033064E+04
rotational constants/cm⁻¹ :        0.5803407E-01   0.2051502E-01   0.1631809E-01

 * 23 selected distances

     #   Z          #   Z                                           value/Å
     1   6 C        2   7 N                                       1.4119004
     2   7 N        3   6 C                                       1.3657869
     2   7 N        5   6 C                                       1.4560946 (max)
     3   6 C        6   8 O                                       1.2178245
     1   6 C        7   6 C                                       1.3956663
     7   6 C        9   6 C                                       1.3817573
     8   6 C        9   6 C                                       1.3841575
     8   6 C       10   6 C                                       1.3833747
     1   6 C       11   6 C                                       1.3919135
    10   6 C       11   6 C                                       1.3835889
     5   6 C       12   1 H                                       1.0897573
     5   6 C       13   1 H                                       1.0874222
     5   6 C       14   1 H                                       1.0927375
     4   6 C       15   7 N                                       1.4517952
     4   6 C       16   1 H                                       1.0950397
     4   6 C       17   1 H                                       1.0916315
     7   6 C       18   1 H                                       1.0787489
     9   6 C       19   1 H                                       1.0799355
    10   6 C       20   1 H                                       1.0797967
    11   6 C       21   1 H                                       1.0767035
    15   7 N       22   1 H                                       1.0191674
     8   6 C       23   1 H                                       1.0791651
    15   7 N       24   1 H                                       1.0185768 (min)

 * 5 distinct bonds (by element types)

   Z      Z             #   av. dist./Å        max./Å        min./Å
   1 H    6 C          10     1.0850938     1.0950397     1.0767035
   6 C    6 C           6     1.3867430     1.3956663     1.3817573
   1 H    7 N           2     1.0188721     1.0191674     1.0185768
   6 C    7 N           4     1.4213943     1.4560946     1.3657869
   6 C    8 O           1     1.2178245     1.2178245     1.2178245


optimized geometry written to: xtbopt.xyz


           -------------------------------------------------
          | TOTAL ENERGY              -35.288193237128 Eh   |
          | GRADIENT NORM               0.000484942944 Eh/α |
          | HOMO-LUMO GAP               3.475752042668 eV   |
           -------------------------------------------------
########################################################################
[WARNING] Runtime exception occurred
-1- restart_readRestart: Number of electron missmatch in restart file.
########################################################################

------------------------------------------------------------------------
 * finished run on 2023/11/18 at 08:28:13.525     
------------------------------------------------------------------------
 total:
 * wall-time:     0 d,  0 h,  0 min, 17.921 sec
 *  cpu-time:     0 d,  0 h, 12 min, 16.006 sec
 * ratio c/w:    41.069 speedup
 SCF:
 * wall-time:     0 d,  0 h,  0 min,  1.257 sec
 *  cpu-time:     0 d,  0 h,  0 min, 51.416 sec
 * ratio c/w:    40.892 speedup
 ANC optimizer:
 * wall-time:     0 d,  0 h,  0 min, 16.538 sec
 *  cpu-time:     0 d,  0 h, 11 min, 19.874 sec
 * ratio c/w:    41.109 speedup

