24
 energy: -35.290258309994 gnorm: 0.000872372094 xtb: 6.5.0 (97a52f5)
C           -0.81602768464355       -0.22876180427659       -0.03951452851894
N            0.38635858908233       -0.46180855160050        0.67863400048648
C            1.51738760084626        0.20831489968495        0.31739667172170
C            2.74895297506730        0.00814895167020        1.20146432034236
C            0.28265889820633       -1.21725018711734        1.90795144576139
O            1.57568076623481        0.93302721743755       -0.65631714450915
C           -1.98626559010515        0.09666484865674        0.63745785764024
C           -3.17257519875802        0.19737152688068       -1.44687069937079
C           -3.15766125740426        0.30684686233463       -0.06716817298690
C           -2.00808813205162       -0.12915672817571       -2.12092289041354
C           -0.83450630714264       -0.35019157783197       -1.42392879435857
H            1.18614507785181       -1.80427246216994        2.06581261720542
H           -0.55430332004943       -1.90925797037754        1.81881132859170
H            0.12854717368660       -0.57377196598257        2.77950306014239
N            3.87443952616034        0.82966347463848        0.79659719521760
H            3.07186533479200       -1.03911704569971        1.17046842662657
H            2.51939278826181        0.23765474735528        2.24692811910934
H           -1.98227402767940        0.19878304797066        1.71218958193076
H           -4.06102515909194        0.56343372197096        0.46651310758317
H           -2.01347673641461       -0.22024502254326       -3.19674131905839
H            0.07194637137117       -0.60459859256642       -1.94861307969186
H            4.02427841273351        0.69105099954379       -0.20200009138989
H           -4.08786927540614        0.36658412604886       -1.99380720167105
H            3.59641015445309        1.80788848414919        0.85335120960981
