24
 energy: -35.288837096864 gnorm: 0.000899388643 xtb: 6.5.0 (97a52f5)
C           -0.62607403953477       -0.32757360704423        0.25868877506602
N            0.48374746153958       -0.91660926080166        0.91575731953941
C            1.75885497174846       -0.46583378015420        0.74880767785091
C            1.90125904617887        1.04515516623602        0.56605019448062
C            0.28452549826143       -2.28657297073798        1.36307502760357
O            2.73578418333650       -1.17260348452430        0.90528257488803
C           -1.75303536386794        0.02380905540872        0.99109103979892
C           -2.84607792397793        0.73185207859158       -1.02439982111108
C           -2.85832318313485        0.55237241326938        0.34838537606164
C           -1.72681317434945        0.37332053654741       -1.75736885885211
C           -0.62168689993401       -0.16298975970059       -1.12227324406810
H            1.24947520584699       -2.79164879730771        1.35111509378833
H           -0.41569307311269       -2.80534546933586        0.70812264248927
H           -0.11092423961160       -2.29352280914303        2.38106339040635
N            3.26270391374667        1.47093931030973        0.30190405805452
H            1.56691622997065        1.52371955564484        1.49411780956773
H            1.25322543123503        1.42760154135214       -0.22651280438471
H           -1.75601989340912       -0.11587533678914        2.06134686532324
H           -3.73090449414568        0.82638177162946        0.92222574547048
H           -1.71732396143138        0.50223292619821       -2.82941518527052
H            0.24901096039598       -0.45843696882021       -1.68998167518265
H            3.86776743231261        1.02458181581805        0.99077620709018
H           -3.70865891863804        1.14600357775432       -1.52395218366085
H            3.56825584057471        1.05604551560014       -0.57671302494879
