
    -----------------------------------------------------------------------
          Psi4: An Open-Source Ab Initio Electronic Structure Package
                               Psi4 1.6 release

                         Git: Rev {HEAD} 77475b5 


    D. G. A. Smith, L. A. Burns, A. C. Simmonett, R. M. Parrish,
    M. C. Schieber, R. Galvelis, P. Kraus, H. Kruse, R. Di Remigio,
    A. Alenaizan, A. M. James, S. Lehtola, J. P. Misiewicz, M. Scheurer,
    R. A. Shaw, J. B. Schriber, Y. Xie, Z. L. Glick, D. A. Sirianni,
    J. S. O'Brien, J. M. Waldrop, A. Kumar, E. G. Hohenstein,
    B. P. Pritchard, B. R. Brooks, H. F. Schaefer III, A. Yu. Sokolov,
    K. Patkowski, A. E. DePrince III, U. Bozkaya, R. A. King,
    F. A. Evangelista, J. M. Turney, T. D. Crawford, C. D. Sherrill,
    J. Chem. Phys. 152(18) 184108 (2020). https://doi.org/10.1063/5.0006002

                            Additional Code Authors
    E. T. Seidl, C. L. Janssen, E. F. Valeev, M. L. Leininger,
    J. F. Gonthier, R. M. Richard, H. R. McAlexander, M. Saitow, X. Wang,
    P. Verma, M. H. Lechner, and A. Jiang

             Previous Authors, Complete List of Code Contributors,
                       and Citations for Specific Modules
    https://github.com/psi4/psi4/blob/master/codemeta.json
    https://github.com/psi4/psi4/graphs/contributors
    http://psicode.org/psi4manual/master/introduction.html#citing-psifour

    -----------------------------------------------------------------------


    Psi4 started on: Saturday, 18 November 2023 08:37AM

    Process ID: 1130775
    Host:       node165.bme.utexas.edu
    PSIDATADIR: /home/liuchw/anaconda3/envs/poltype2022/share/psi4
    Memory:     500.0 MiB
    Threads:    1
    
  ==> Input File <==

--------------------------------------------------------------------------
molecule { 
0 1
 C   -0.640016   -0.370682    0.186388
 N    0.495249   -0.956778    0.786867
 C    1.753595   -0.438893    0.807582
 C    1.964407    0.977447    0.271962
 C    0.288216   -2.226078    1.466216
 O    2.684589   -1.056164    1.291086
 C   -1.799905   -0.204124    0.938710
 C   -2.906347    0.783903   -0.947708
 C   -2.924268    0.367467    0.372372
 C   -1.760460    0.607319   -1.704384
 C   -0.633292    0.033440   -1.145196
 H    1.211564   -2.800793    1.401550
 H   -0.523076   -2.768821    0.985271
 H    0.052501   -2.076180    2.522476
 N    3.360640    1.373939    0.267429
 H    1.405850    1.676752    0.905809
 H    1.579975    1.100697   -0.739865
 H   -1.816702   -0.517577    1.971259
 H   -3.816033    0.493429    0.968208
 H   -1.744041    0.910774   -2.740531
 H    0.235910   -0.147163   -1.759002
 H    3.752050    1.166315    1.185608
 H   -3.782843    1.234842   -1.387184
 H    3.872427    0.743932   -0.347729
}
memory 20GB
set_num_threads(5)
psi4_io.set_default_path("/scratch/liuchw/Psi4-3_25_Index_0_GrowFragment_3-farH_in17")
set freeze_core True
E, wfn = energy('wb97x-d/6-311+G*',return_wfn=True)
oeprop(wfn,"WIBERG_LOWDIN_INDICES")
clean()
--------------------------------------------------------------------------

  Memory set to  18.626 GiB by Python driver.
  Threads set to 5 by Python driver.

Scratch directory: /scratch/liuchw/Psi4-3_25_Index_0_GrowFragment_3-farH_in17/

*** tstart() called on node165.bme.utexas.edu
*** at Sat Nov 18 08:37:10 2023

   => Loading Basis Set <=

    Name: 6-311+G*
    Role: ORBITAL
    Keyword: BASIS
    atoms 1, 3-5, 7-11 entry C          line   130 file /home/liuchw/anaconda3/envs/poltype2022/share/psi4/basis/6-311pgs.gbs 
    atoms 2, 15        entry N          line   151 file /home/liuchw/anaconda3/envs/poltype2022/share/psi4/basis/6-311pgs.gbs 
    atoms 6            entry O          line   172 file /home/liuchw/anaconda3/envs/poltype2022/share/psi4/basis/6-311pgs.gbs 
    atoms 12-14, 16-24 entry H          line    47 file /home/liuchw/anaconda3/envs/poltype2022/share/psi4/basis/6-311pgs.gbs 

   => WB97X-D: Empirical Dispersion <=

    Chai and Head-Gordon Dispersion Correction
    Chai, J.-D.; Head-Gordon, M. (2010), J. Chem. Phys., 132: 6615-6620

        s6 =       1.000000


         ---------------------------------------------------------
                                   SCF
               by Justin Turney, Rob Parrish, Andy Simmonett
                          and Daniel G. A. Smith
                              RKS Reference
                        5 Threads,  19073 MiB Core
         ---------------------------------------------------------

  ==> Geometry <==

    Molecular point group: c1
    Full point group: C1

    Geometry (in Angstrom), charge = 0, multiplicity = 1:

       Center              X                  Y                   Z               Mass       
    ------------   -----------------  -----------------  -----------------  -----------------
         C           -0.746467522859    -0.262905261845    -0.065628128439    12.000000000000
         N            0.388797477141    -0.849001261845     0.534850871561    14.003074004430
         C            1.647143477141    -0.331116261845     0.555565871561    12.000000000000
         C            1.857955477141     1.085223738155     0.019945871561    12.000000000000
         C            0.181764477141    -2.118301261845     1.214199871561    12.000000000000
         O            2.578137477141    -0.948387261845     1.039069871561    15.994914619570
         C           -1.906356522859    -0.096347261845     0.686693871561    12.000000000000
         C           -3.012798522859     0.891679738155    -1.199724128439    12.000000000000
         C           -3.030719522859     0.475243738155     0.120355871561    12.000000000000
         C           -1.866911522859     0.715095738155    -1.956400128439    12.000000000000
         C           -0.739743522859     0.141216738155    -1.397212128439    12.000000000000
         H            1.105112477141    -2.693016261845     1.149533871561     1.007825032230
         H           -0.629527522859    -2.661044261845     0.733254871561     1.007825032230
         H           -0.053950522859    -1.968403261845     2.270459871561     1.007825032230
         N            3.254188477141     1.481715738155     0.015412871561    14.003074004430
         H            1.299398477141     1.784528738155     0.653792871561     1.007825032230
         H            1.473523477141     1.208473738155    -0.991881128439     1.007825032230
         H           -1.923153522859    -0.409800261845     1.719242871561     1.007825032230
         H           -3.922484522859     0.601205738155     0.716191871561     1.007825032230
         H           -1.850492522859     1.018550738155    -2.992547128439     1.007825032230
         H            0.129458477141    -0.039386261845    -2.011018128439     1.007825032230
         H            3.645598477141     1.274091738155     0.933591871561     1.007825032230
         H           -3.889294522859     1.342618738155    -1.639200128439     1.007825032230
         H            3.765975477141     0.851708738155    -0.599745128439     1.007825032230

  Running in c1 symmetry.

  Rotational constants: A =      0.05684  B =      0.02070  C =      0.01680 [cm^-1]
  Rotational constants: A =   1704.08252  B =    620.42088  C =    503.73824 [MHz]
  Nuclear repulsion =  689.403060113369293

  Charge       = 0
  Multiplicity = 1
  Electrons    = 88
  Nalpha       = 44
  Nbeta        = 44

  ==> Algorithm <==

  SCF Algorithm Type is DF.
  DIIS enabled.
  MOM disabled.
  Fractional occupation disabled.
  Guess Type is SAD.
  Energy threshold   = 1.00e-06
  Density threshold  = 1.00e-06
  Integral threshold = 1.00e-12

  ==> Primary Basis <==

  Basis Set: 6-311+G*
    Blend: 6-311+G*
    Number of shells: 156
    Number of basis functions: 300
    Number of Cartesian functions: 312
    Spherical Harmonics?: true
    Max angular momentum: 2

  ==> DFT Potential <==

   => LibXC <=

    Version 5.1.5
    S. Lehtola, C. Steigemann, M. J. Oliveira, and M. A. Marques, SoftwareX 7, 1 (2018) (10.1016/j.softx.2017.11.002)

   => Composite Functional: WB97X-D <= 

    wB97X-D Hyb-GGA Exchange-Correlation Functional

    J.-D. Chai and M. Head-Gordon, Phys. Chem. Chem. Phys. 10, 6615 (2008) (10.1039/B810189B)

    Deriv               =              1
    GGA                 =           TRUE
    Meta                =          FALSE

    Exchange Hybrid     =           TRUE
    MP2 Hybrid          =          FALSE

   => Exchange-Correlation Functionals <=

    1.0000   wB97X-D range-separated functional

   => Exact (HF) Exchange <=

    0.7780            HF,LR [omega = 0.2000]
    0.2220               HF 

   => LibXC Density Thresholds  <==

    XC_HYB_GGA_XC_WB97X_D:  1.00E-14 

   => Molecular Quadrature <=

    Radial Scheme          =       TREUTLER
    Pruning Scheme         =           NONE
    Nuclear Scheme         =       TREUTLER

    Blocking Scheme        =         OCTREE
    BS radius alpha        =              1
    Pruning alpha          =              1
    Radial Points          =             75
    Spherical Points       =            302
    Total Points           =         503002
    Total Blocks           =           3641
    Max Points             =            256
    Max Functions          =            265
    Weights Tolerance      =       1.00E-15

   => Loading Basis Set <=

    Name: (6-311+G* AUX)
    Role: JKFIT
    Keyword: DF_BASIS_SCF
    atoms 1, 3-5, 7-11 entry C          line   200 file /home/liuchw/anaconda3/envs/poltype2022/share/psi4/basis/heavy-aug-cc-pvtz-jkfit.gbs 
    atoms 2, 15        entry N          line   262 file /home/liuchw/anaconda3/envs/poltype2022/share/psi4/basis/heavy-aug-cc-pvtz-jkfit.gbs 
    atoms 6            entry O          line   324 file /home/liuchw/anaconda3/envs/poltype2022/share/psi4/basis/heavy-aug-cc-pvtz-jkfit.gbs 
    atoms 12-14, 16-24 entry H          line   116 file /home/liuchw/anaconda3/envs/poltype2022/share/psi4/basis/heavy-aug-cc-pvtz-jkfit.gbs 

  ==> Integral Setup <==

  DFHelper Memory: AOs need 2.968 GiB; user supplied 11.130 GiB. Using in-core AOs.

  ==> MemDFJK: Density-Fitted J/K Matrices <==

    J tasked:                   Yes
    K tasked:                   Yes
    wK tasked:                  Yes
    Omega:                2.000E-01
    OpenMP threads:               5
    Memory [MiB]:             11397
    Algorithm:                 Core
    Schwarz Cutoff:           1E-12
    Mask sparsity (%):       9.5200
    Fitting Condition:        1E-10

   => Auxiliary Basis Set <=

  Basis Set: (6-311+G* AUX)
    Blend: HEAVY-AUG-CC-PVTZ-JKFIT
    Number of shells: 480
    Number of basis functions: 1608
    Number of Cartesian functions: 1992
    Spherical Harmonics?: true
    Max angular momentum: 4

  Cached 100.0% of DFT collocation blocks in 2.839 [GiB].

  Minimum eigenvalue in the overlap matrix is 1.6253948669E-06.
  Reciprocal condition number of the overlap matrix is 1.1063628951E-07.
    Using symmetric orthogonalization.

  ==> Pre-Iterations <==

  SCF Guess: Superposition of Atomic Densities via on-the-fly atomic UHF (no occupation information).

   -------------------------
    Irrep   Nso     Nmo    
   -------------------------
     A        300     300 
   -------------------------
    Total     300     300
   -------------------------

  ==> Iterations <==

                           Total Energy        Delta E     RMS |[F,P]|

   @DF-RKS iter SAD:  -534.34079882525020   -5.34341e+02   0.00000e+00 
   @DF-RKS iter   1:  -534.26376969691239    7.70291e-02   3.75236e-03 ADIIS/DIIS
   @DF-RKS iter   2:  -534.46820403049082   -2.04434e-01   3.27707e-03 ADIIS/DIIS
   @DF-RKS iter   3:  -534.84736764810759   -3.79164e-01   6.21014e-04 ADIIS/DIIS
   @DF-RKS iter   4:  -534.85885673838573   -1.14891e-02   2.27001e-04 ADIIS/DIIS
   @DF-RKS iter   5:  -534.86058708085466   -1.73034e-03   6.68041e-05 DIIS
   @DF-RKS iter   6:  -534.86075005000828   -1.62969e-04   1.63323e-05 DIIS
   @DF-RKS iter   7:  -534.86076160873233   -1.15587e-05   3.29867e-06 DIIS
   @DF-RKS iter   8:  -534.86076226106763   -6.52335e-07   1.87077e-06 DIIS
   @DF-RKS iter   9:  -534.86076245709137   -1.96024e-07   4.54634e-07 DIIS
  Energy and wave function converged.


  ==> Post-Iterations <==

   Electrons on quadrature grid:
      Ntotal   =   87.9999835756 ; deviation = -1.642e-05 

    Orbital Energies [Eh]
    ---------------------

    Doubly Occupied:                                                      

       1A    -19.217825     2A    -14.475608     3A    -14.407791  
       4A    -10.388948     5A    -10.345503     6A    -10.315271  
       7A    -10.314244     8A    -10.304108     9A    -10.303772  
      10A    -10.303431    11A    -10.303004    12A    -10.299885  
      13A     -1.156998    14A     -1.063843    15A     -0.986648  
      16A     -0.974029    17A     -0.872087    18A     -0.865932  
      19A     -0.834233    20A     -0.770914    21A     -0.736042  
      22A     -0.722510    23A     -0.666950    24A     -0.620972  
      25A     -0.605520    26A     -0.593491    27A     -0.577412  
      28A     -0.567103    29A     -0.550354    30A     -0.536383  
      31A     -0.526919    32A     -0.514867    33A     -0.500130  
      34A     -0.490135    35A     -0.484836    36A     -0.477387  
      37A     -0.457610    38A     -0.452024    39A     -0.437460  
      40A     -0.375712    41A     -0.353399    42A     -0.350152  
      43A     -0.330763    44A     -0.314221  

    Virtual:                                                              

      45A      0.034589    46A      0.039144    47A      0.052833  
      48A      0.067771    49A      0.069102    50A      0.080819  
      51A      0.087309    52A      0.089853    53A      0.095094  
      54A      0.099672    55A      0.104873    56A      0.109263  
      57A      0.117507    58A      0.123858    59A      0.134077  
      60A      0.142338    61A      0.147389    62A      0.148752  
      63A      0.154020    64A      0.159618    65A      0.174589  
      66A      0.182265    67A      0.185815    68A      0.191631  
      69A      0.194138    70A      0.199914    71A      0.204027  
      72A      0.211687    73A      0.214479    74A      0.218703  
      75A      0.223631    76A      0.229198    77A      0.232567  
      78A      0.236221    79A      0.244276    80A      0.246246  
      81A      0.254458    82A      0.255159    83A      0.262269  
      84A      0.263983    85A      0.268379    86A      0.271206  
      87A      0.273562    88A      0.279236    89A      0.282768  
      90A      0.284740    91A      0.294244    92A      0.297494  
      93A      0.304638    94A      0.308100    95A      0.315492  
      96A      0.321704    97A      0.323665    98A      0.329443  
      99A      0.336898   100A      0.343817   101A      0.350195  
     102A      0.356376   103A      0.368189   104A      0.377553  
     105A      0.386253   106A      0.390863   107A      0.392246  
     108A      0.406225   109A      0.415535   110A      0.418599  
     111A      0.421752   112A      0.434630   113A      0.449062  
     114A      0.456991   115A      0.476844   116A      0.486243  
     117A      0.495512   118A      0.518677   119A      0.536423  
     120A      0.549407   121A      0.575704   122A      0.582537  
     123A      0.587539   124A      0.595711   125A      0.601524  
     126A      0.609727   127A      0.616211   128A      0.627656  
     129A      0.632650   130A      0.649575   131A      0.652957  
     132A      0.668378   133A      0.678854   134A      0.686507  
     135A      0.698002   136A      0.708793   137A      0.717678  
     138A      0.738383   139A      0.743300   140A      0.754216  
     141A      0.765488   142A      0.776846   143A      0.778572  
     144A      0.789757   145A      0.792736   146A      0.800686  
     147A      0.808767   148A      0.819508   149A      0.829049  
     150A      0.835653   151A      0.848854   152A      0.853591  
     153A      0.880824   154A      0.896704   155A      0.909537  
     156A      0.915804   157A      0.924096   158A      0.934511  
     159A      0.943272   160A      0.949291   161A      0.962579  
     162A      0.974815   163A      0.982273   164A      1.002177  
     165A      1.012173   166A      1.052817   167A      1.059972  
     168A      1.083854   169A      1.098986   170A      1.110567  
     171A      1.128275   172A      1.163093   173A      1.201974  
     174A      1.219849   175A      1.236509   176A      1.262254  
     177A      1.277238   178A      1.289729   179A      1.294089  
     180A      1.309845   181A      1.313248   182A      1.339138  
     183A      1.364556   184A      1.374664   185A      1.407604  
     186A      1.452674   187A      1.494236   188A      1.523168  
     189A      1.581104   190A      1.584739   191A      1.610259  
     192A      1.615733   193A      1.619578   194A      1.664610  
     195A      1.688075   196A      1.700145   197A      1.707181  
     198A      1.729653   199A      1.778342   200A      1.787758  
     201A      1.813155   202A      1.823947   203A      1.852170  
     204A      1.876607   205A      1.882136   206A      1.893438  
     207A      1.910875   208A      1.928033   209A      1.940671  
     210A      1.981050   211A      2.004931   212A      2.012707  
     213A      2.028829   214A      2.054269   215A      2.079314  
     216A      2.108756   217A      2.144120   218A      2.157799  
     219A      2.180991   220A      2.225761   221A      2.274020  
     222A      2.291557   223A      2.300486   224A      2.372712  
     225A      2.380742   226A      2.400229   227A      2.428149  
     228A      2.449002   229A      2.483714   230A      2.496492  
     231A      2.509479   232A      2.535786   233A      2.597880  
     234A      2.625591   235A      2.656979   236A      2.692345  
     237A      2.710541   238A      2.730402   239A      2.741169  
     240A      2.769935   241A      2.785175   242A      2.860542  
     243A      2.869671   244A      2.886447   245A      2.904747  
     246A      2.907343   247A      2.939626   248A      2.963157  
     249A      3.003994   250A      3.015907   251A      3.031060  
     252A      3.037289   253A      3.056899   254A      3.095411  
     255A      3.173299   256A      3.227786   257A      3.257784  
     258A      3.304894   259A      3.315383   260A      3.353214  
     261A      3.407623   262A      3.410865   263A      3.427984  
     264A      3.449182   265A      3.454165   266A      3.473370  
     267A      3.488851   268A      3.536706   269A      3.591303  
     270A      3.630257   271A      3.696977   272A      3.731417  
     273A      3.777301   274A      3.900006   275A      3.967260  
     276A      4.080617   277A      4.100375   278A      4.123014  
     279A      4.159624   280A      4.183034   281A      4.190177  
     282A      4.692466   283A      4.882403   284A      4.898836  
     285A      5.157707   286A      5.209264   287A      5.351966  
     288A      5.890715   289A     23.488299   290A     23.702392  
     291A     23.794009   292A     23.982095   293A     24.010007  
     294A     24.022932   295A     24.178224   296A     24.200250  
     297A     24.304319   298A     35.574926   299A     35.719627  
     300A     50.164435  

    Final Occupation by Irrep:
              A 
    DOCC [    44 ]

  @DF-RKS Final Energy:  -534.86076245709137

   => Energetics <=

    Nuclear Repulsion Energy =            689.4030601133692926
    One-Electron Energy =               -2091.5821031423829481
    Two-Electron Energy =                 919.5519294083703699
    DFT Exchange-Correlation Energy =     -52.2188022669199654
    Empirical Dispersion Energy =          -0.0148465695281810
    VV10 Nonlocal Energy =                  0.0000000000000000
    Total Energy =                       -534.8607624570914822

Computation Completed


Properties will be evaluated at   0.000000,   0.000000,   0.000000 [a0]

Properties computed using the SCF density matrix


 Multipole Moments:

 ------------------------------------------------------------------------------------
     Multipole            Electronic (a.u.)      Nuclear  (a.u.)        Total (a.u.)
 ------------------------------------------------------------------------------------

 L = 1.  Multiply by 2.5417464519 to convert [e a0] to [Debye]
 Dipole X            :         -0.6690287           -0.7948888           -1.4639175
 Dipole Y            :         -0.5088539            0.2837782           -0.2250757
 Dipole Z            :         -0.2481603           -0.0512821           -0.2994424
 Magnitude           :                                                    1.5110854

 ------------------------------------------------------------------------------------

*** tstop() called on node165.bme.utexas.edu at Sat Nov 18 08:37:37 2023
Module time:
	user time   =     109.99 seconds =       1.83 minutes
	system time =      11.58 seconds =       0.19 minutes
	total time  =         27 seconds =       0.45 minutes
Total time:
	user time   =     109.99 seconds =       1.83 minutes
	system time =      11.58 seconds =       0.19 minutes
	total time  =         27 seconds =       0.45 minutes


Properties will be evaluated at   0.000000,   0.000000,   0.000000 [a0]
OEProp: No title given, name of density matrix used for the following properties is 'SCF density'


  Wiberg Bond Indices using Orthogonal Lowdin Orbitals:

  Irrep: 1 Size: 24 x 24

                 1                   2                   3                   4                   5

    1     0.00000000000000     1.13360264331435     0.10474415934500     0.04294824915566     0.11156642421796
    2     1.13360264331435     0.00000000000000     1.35032344913027     0.11099042964199     1.14111048206820
    3     0.10474415934500     1.35032344913027     0.00000000000000     1.01381371911406     0.11614487234426
    4     0.04294824915566     0.11099042964199     1.01381371911406     0.00000000000000     0.02087033041283
    5     0.11156642421796     1.14111048206820     0.11614487234426     0.02087033041283     0.00000000000000
    6     0.02891523556940     0.23978280315656     2.19203115147771     0.15004681490005     0.08305488246824
    7     1.40445473214280     0.12402465742852     0.02656637178111     0.00944974704782     0.05341405436599
    8     0.13698171331059     0.01226037251265     0.00555120531084     0.00223371445561     0.00476488399784
    9     0.13688292243395     0.01638690095988     0.00320280635882     0.00278490795161     0.00633480090507
   10     0.13715977802092     0.01628406834842     0.00399058230667     0.00900078222333     0.00347806717641
   11     1.40268802595073     0.12454313044689     0.03791849332990     0.04845753863224     0.02528647362346
   12     0.00896732983634     0.04487963348212     0.01964672081701     0.00138316496301     0.86862097871003
   13     0.02018318646042     0.04717847350592     0.01054708998519     0.00106269664212     0.87740450945694
   14     0.00798942289205     0.04962503761528     0.01742522680274     0.00089820676739     0.88484759085139
   15     0.00468679464904     0.01546301608717     0.12303069530035     1.33759963377863     0.00377537027331
   16     0.00779798309369     0.01358576503404     0.04707501404529     0.83077897468387     0.00102912344091
   17     0.00871274751878     0.01087222948133     0.04310671716806     0.83088930523853     0.00071708479485
   18     0.05542429226612     0.01689724076579     0.00217409385648     0.00040311033647     0.01277681486416
   19     0.01075249393095     0.00086743607167     0.00036431794800     0.00007987692686     0.00023395793225
   20     0.01082979418951     0.00086654801008     0.00022887349959     0.00018133923062     0.00034903008772
   21     0.05486527248165     0.01588730429859     0.00729707197225     0.01293980739925     0.00179340202578
   22     0.00044063390764     0.00063963520864     0.01160899809613     0.03962265405662     0.00033701573147
   23     0.00296461033944     0.00022483685102     0.00005349771098     0.00005976003510     0.00008603592424
   24     0.00059173859958     0.00063999470104     0.00985567526477     0.03932401050970     0.00023920473122

                 6                   7                   8                   9                  10

    1     0.02891523556940     1.40445473214280     0.13698171331059     0.13688292243395     0.13715977802092
    2     0.23978280315656     0.12402465742852     0.01226037251265     0.01638690095988     0.01628406834842
    3     2.19203115147771     0.02656637178111     0.00555120531084     0.00320280635882     0.00399058230667
    4     0.15004681490005     0.00944974704782     0.00223371445561     0.00278490795161     0.00900078222333
    5     0.08305488246824     0.05341405436599     0.00476488399784     0.00633480090507     0.00347806717641
    6     0.00000000000000     0.00830785154914     0.00288672182055     0.00126927927814     0.00101888216956
    7     0.00830785154914     0.00000000000000     0.14047908442653     1.52495081199589     0.14431527969302
    8     0.00288672182055     0.14047908442653     0.00000000000000     1.51706131061168     1.51902995328107
    9     0.00126927927814     1.52495081199589     1.51706131061168     0.00000000000000     0.14029725329274
   10     0.00101888216956     0.14431527969302     1.51902995328107     0.14029725329274     0.00000000000000
   11     0.00937212409490     0.12972009356987     0.14027883152236     0.14290733029876     1.51854092642599
   12     0.02390169492873     0.00233209625418     0.00059154155165     0.00046502501948     0.00025007163838
   13     0.00191922183365     0.01070213840852     0.00050515233390     0.00119418030830     0.00046926995912
   14     0.00508938529181     0.00707854986045     0.00029110521699     0.00051966495966     0.00023174174245
   15     0.07869179587876     0.00087197346956     0.00022265082671     0.00034534514573     0.00081323088838
   16     0.01338809725735     0.00190359979561     0.00024022038126     0.00029709458700     0.00053547086032
   17     0.01099434925760     0.00166251261012     0.00041779266403     0.00074729317229     0.00342991802131
   18     0.00034985398364     0.80849778364649     0.01069611668342     0.05631442570719     0.00244875248246
   19     0.00013731011289     0.06132239733090     0.05954931142871     0.83120824800307     0.01144053948550
   20     0.00010036538856     0.00253937876948     0.05950918572924     0.01144447381867     0.83079580922879
   21     0.00057630099000     0.00925355678710     0.01049139238951     0.00235583841674     0.05565865949425
   22     0.01356019967585     0.00010105571978     0.00003517744074     0.00005500364897     0.00024458233547
   23     0.00001936132708     0.01129548651468     0.83309633687483     0.05989991745168     0.05988811522562
   24     0.00705464783588     0.00017869223616     0.00002223154155     0.00004804304773     0.00004570607807

                11                  12                  13                  14                  15

    1     1.40268802595073     0.00896732983634     0.02018318646042     0.00798942289205     0.00468679464904
    2     0.12454313044689     0.04487963348212     0.04717847350592     0.04962503761528     0.01546301608717
    3     0.03791849332990     0.01964672081701     0.01054708998519     0.01742522680274     0.12303069530035
    4     0.04845753863224     0.00138316496301     0.00106269664212     0.00089820676739     1.33759963377863
    5     0.02528647362346     0.86862097871003     0.87740450945694     0.88484759085139     0.00377537027331
    6     0.00937212409490     0.02390169492873     0.00191922183365     0.00508938529181     0.07869179587876
    7     0.12972009356987     0.00233209625418     0.01070213840852     0.00707854986045     0.00087197346956
    8     0.14027883152236     0.00059154155165     0.00050515233390     0.00029110521699     0.00022265082671
    9     0.14290733029876     0.00046502501948     0.00119418030830     0.00051966495966     0.00034534514573
   10     1.51854092642599     0.00025007163838     0.00046926995912     0.00023174174245     0.00081323088838
   11     0.00000000000000     0.00114229474970     0.00324049208859     0.00086487451213     0.00377109908677
   12     0.00114229474970     0.00000000000000     0.01013944882006     0.00796034050587     0.00034646144264
   13     0.00324049208859     0.01013944882006     0.00000000000000     0.00768222075040     0.00042471470843
   14     0.00086487451213     0.00796034050587     0.00768222075040     0.00000000000000     0.00007939915593
   15     0.00377109908677     0.00034646144264     0.00042471470843     0.00007939915593     0.00000000000000
   16     0.00438852107604     0.00007303460115     0.00011926979836     0.00032737446516     0.04207719705315
   17     0.01938245085548     0.00014684807196     0.00014585620398     0.00014268439299     0.04192516271574
   18     0.00933889769832     0.00025174203319     0.00098705570999     0.00114123655861     0.00003391224266
   19     0.00249775460916     0.00001284141940     0.00000826272451     0.00004381763682     0.00001161862987
   20     0.06126144358912     0.00000568905709     0.00003818466953     0.00000919776130     0.00002283400634
   21     0.80532804145587     0.00000433158345     0.00003570539395     0.00012689785652     0.00064013483964
   22     0.00083203273538     0.00014461926907     0.00003718512335     0.00003223390055     0.87874426648587
   23     0.01131596486404     0.00000454415371     0.00001390077798     0.00003657363405     0.00000794212144
   24     0.00035054298358     0.00005263566454     0.00001634392071     0.00004797051472     0.88441763721408

                16                  17                  18                  19                  20

    1     0.00779798309369     0.00871274751878     0.05542429226612     0.01075249393095     0.01082979418951
    2     0.01358576503404     0.01087222948133     0.01689724076579     0.00086743607167     0.00086654801008
    3     0.04707501404529     0.04310671716806     0.00217409385648     0.00036431794800     0.00022887349959
    4     0.83077897468387     0.83088930523853     0.00040311033647     0.00007987692686     0.00018133923062
    5     0.00102912344091     0.00071708479485     0.01277681486416     0.00023395793225     0.00034903008772
    6     0.01338809725735     0.01099434925760     0.00034985398364     0.00013731011289     0.00010036538856
    7     0.00190359979561     0.00166251261012     0.80849778364649     0.06132239733090     0.00253937876948
    8     0.00024022038126     0.00041779266403     0.01069611668342     0.05954931142871     0.05950918572924
    9     0.00029709458700     0.00074729317229     0.05631442570719     0.83120824800307     0.01144447381867
   10     0.00053547086032     0.00342991802131     0.00244875248246     0.01144053948550     0.83079580922879
   11     0.00438852107604     0.01938245085548     0.00933889769832     0.00249775460916     0.06126144358912
   12     0.00007303460115     0.00014684807196     0.00025174203319     0.00001284141940     0.00000568905709
   13     0.00011926979836     0.00014585620398     0.00098705570999     0.00000826272451     0.00003818466953
   14     0.00032737446516     0.00014268439299     0.00114123655861     0.00004381763682     0.00000919776130
   15     0.04207719705315     0.04192516271574     0.00003391224266     0.00001161862987     0.00002283400634
   16     0.00000000000000     0.00657595245229     0.00005636509600     0.00000387655459     0.00000547556815
   17     0.00657595245229     0.00000000000000     0.00001044590185     0.00001415692585     0.00006174053770
   18     0.00005636509600     0.00001044590185     0.00000000000000     0.00547880271899     0.00022502464323
   19     0.00000387655459     0.00001415692585     0.00547880271899     0.00000000000000     0.00026528528208
   20     0.00000547556815     0.00006174053770     0.00022502464323     0.00026528528208     0.00000000000000
   21     0.00051882274543     0.00364086682547     0.00041752825853     0.00023450802787     0.00549403839382
   22     0.00330154842480     0.00942546610317     0.00001239605387     0.00000263994487     0.00000153516218
   23     0.00000093156523     0.00001047790481     0.00021608425239     0.00535051875271     0.00536439642435
   24     0.00970098385013     0.00466939196915     0.00000313244370     0.00000038350478     0.00000248105971

                21                  22                  23                  24

    1     0.05486527248165     0.00044063390764     0.00296461033944     0.00059173859958
    2     0.01588730429859     0.00063963520864     0.00022483685102     0.00063999470104
    3     0.00729707197225     0.01160899809613     0.00005349771098     0.00985567526477
    4     0.01293980739925     0.03962265405662     0.00005976003510     0.03932401050970
    5     0.00179340202578     0.00033701573147     0.00008603592424     0.00023920473122
    6     0.00057630099000     0.01356019967585     0.00001936132708     0.00705464783588
    7     0.00925355678710     0.00010105571978     0.01129548651468     0.00017869223616
    8     0.01049139238951     0.00003517744074     0.83309633687483     0.00002223154155
    9     0.00235583841674     0.00005500364897     0.05989991745168     0.00004804304773
   10     0.05565865949425     0.00024458233547     0.05988811522562     0.00004570607807
   11     0.80532804145587     0.00083203273538     0.01131596486404     0.00035054298358
   12     0.00000433158345     0.00014461926907     0.00000454415371     0.00005263566454
   13     0.00003570539395     0.00003718512335     0.00001390077798     0.00001634392071
   14     0.00012689785652     0.00003223390055     0.00003657363405     0.00004797051472
   15     0.00064013483964     0.87874426648587     0.00000794212144     0.88441763721408
   16     0.00051882274543     0.00330154842480     0.00000093156523     0.00970098385013
   17     0.00364086682547     0.00942546610317     0.00001047790481     0.00466939196915
   18     0.00041752825853     0.00001239605387     0.00021608425239     0.00000313244370
   19     0.00023450802787     0.00000263994487     0.00535051875271     0.00000038350478
   20     0.00549403839382     0.00000153516218     0.00536439642435     0.00000248105971
   21     0.00000000000000     0.00016322724301     0.00021576723048     0.00008640474309
   22     0.00016322724301     0.00000000000000     0.00000232610486     0.00761478406234
   23     0.00021576723048     0.00000232610486     0.00000000000000     0.00000096426785
   24     0.00008640474309     0.00761478406234     0.00000096426785     0.00000000000000



  Atomic Valences: 

 #  #
 Irrep: 1
      1:    4.834150183626571
      2:    4.486936088120416
      3:    5.146700802965476
      4:    4.505818774103334
      5:    4.218235390404520
      6:    2.872468330246077
      7:    4.483421905403730
      8:    4.457196006312261
      9:    4.456972877373073
     10:    4.459367440378220
     11:    4.503427378199274
     12:    0.991323088572769
     13:    0.994054559583912
     14:    0.992490753645267
     15:    3.418002886000220
     16:    0.983780696429814
     17:    0.997701450787332
     18:    0.984155108203557
     19:    0.989880355902310
     20:    0.989602124106847
     21:    0.988024880852238
     22:    0.966959216434624
     23:    0.990128350308551
     24:    0.964963600744061


    Psi4 stopped on: Saturday, 18 November 2023 08:37AM
    Psi4 wall time for execution: 0:00:26.79

*** Psi4 exiting successfully. Buy a developer a beer!
