
    -----------------------------------------------------------------------
          Psi4: An Open-Source Ab Initio Electronic Structure Package
                               Psi4 1.6 release

                         Git: Rev {HEAD} 77475b5 


    D. G. A. Smith, L. A. Burns, A. C. Simmonett, R. M. Parrish,
    M. C. Schieber, R. Galvelis, P. Kraus, H. Kruse, R. Di Remigio,
    A. Alenaizan, A. M. James, S. Lehtola, J. P. Misiewicz, M. Scheurer,
    R. A. Shaw, J. B. Schriber, Y. Xie, Z. L. Glick, D. A. Sirianni,
    J. S. O'Brien, J. M. Waldrop, A. Kumar, E. G. Hohenstein,
    B. P. Pritchard, B. R. Brooks, H. F. Schaefer III, A. Yu. Sokolov,
    K. Patkowski, A. E. DePrince III, U. Bozkaya, R. A. King,
    F. A. Evangelista, J. M. Turney, T. D. Crawford, C. D. Sherrill,
    J. Chem. Phys. 152(18) 184108 (2020). https://doi.org/10.1063/5.0006002

                            Additional Code Authors
    E. T. Seidl, C. L. Janssen, E. F. Valeev, M. L. Leininger,
    J. F. Gonthier, R. M. Richard, H. R. McAlexander, M. Saitow, X. Wang,
    P. Verma, M. H. Lechner, and A. Jiang

             Previous Authors, Complete List of Code Contributors,
                       and Citations for Specific Modules
    https://github.com/psi4/psi4/blob/master/codemeta.json
    https://github.com/psi4/psi4/graphs/contributors
    http://psicode.org/psi4manual/master/introduction.html#citing-psifour

    -----------------------------------------------------------------------


    Psi4 started on: Saturday, 18 November 2023 08:35AM

    Process ID: 1130079
    Host:       node165.bme.utexas.edu
    PSIDATADIR: /home/liuchw/anaconda3/envs/poltype2022/share/psi4
    Memory:     500.0 MiB
    Threads:    1
    
  ==> Input File <==

--------------------------------------------------------------------------
molecule { 
0 1
 C   -0.738423   -0.448864   -0.099164
 N    0.459745   -0.902978    0.499900
 C    1.641625   -0.258046    0.164513
 C    2.408381    0.418833    1.301054
 C    0.361135   -1.531288    1.804010
 O    1.987246   -0.091076   -0.983865
 C   -1.836163   -0.084213    0.675481
 C   -3.068600    0.482003   -1.309862
 C   -2.992061    0.371982    0.067062
 C   -1.973635    0.130946   -2.081268
 C   -0.818786   -0.339318   -1.485505
 H    1.147926   -2.279510    1.895511
 H   -0.608087   -2.019517    1.880081
 H    0.446621   -0.824140    2.636308
 N    3.578506    1.145612    0.850533
 H    2.734523   -0.291760    2.067797
 H    1.727553    1.121540    1.794844
 H   -1.795899   -0.134104    1.752649
 H   -3.835781    0.652262    0.680952
 H   -2.020152    0.213357   -3.156919
 H    0.033264   -0.611508   -2.085939
 H    4.160312    0.511209    0.305956
 H   -3.973295    0.841197   -1.776583
 H    3.284037    1.834381    0.159651
}
memory 20GB
set_num_threads(5)
psi4_io.set_default_path("/scratch/liuchw/Psi4-3_25_Index_0_GrowFragment_3-farH_in17")
set freeze_core True
E, wfn = energy('wb97x-d/6-311+G*',return_wfn=True)
oeprop(wfn,"WIBERG_LOWDIN_INDICES")
clean()
--------------------------------------------------------------------------

  Memory set to  18.626 GiB by Python driver.
  Threads set to 5 by Python driver.

Scratch directory: /scratch/liuchw/Psi4-3_25_Index_0_GrowFragment_3-farH_in17/

*** tstart() called on node165.bme.utexas.edu
*** at Sat Nov 18 08:35:23 2023

   => Loading Basis Set <=

    Name: 6-311+G*
    Role: ORBITAL
    Keyword: BASIS
    atoms 1, 3-5, 7-11 entry C          line   130 file /home/liuchw/anaconda3/envs/poltype2022/share/psi4/basis/6-311pgs.gbs 
    atoms 2, 15        entry N          line   151 file /home/liuchw/anaconda3/envs/poltype2022/share/psi4/basis/6-311pgs.gbs 
    atoms 6            entry O          line   172 file /home/liuchw/anaconda3/envs/poltype2022/share/psi4/basis/6-311pgs.gbs 
    atoms 12-14, 16-24 entry H          line    47 file /home/liuchw/anaconda3/envs/poltype2022/share/psi4/basis/6-311pgs.gbs 

   => WB97X-D: Empirical Dispersion <=

    Chai and Head-Gordon Dispersion Correction
    Chai, J.-D.; Head-Gordon, M. (2010), J. Chem. Phys., 132: 6615-6620

        s6 =       1.000000


         ---------------------------------------------------------
                                   SCF
               by Justin Turney, Rob Parrish, Andy Simmonett
                          and Daniel G. A. Smith
                              RKS Reference
                        5 Threads,  19073 MiB Core
         ---------------------------------------------------------

  ==> Geometry <==

    Molecular point group: c1
    Full point group: C1

    Geometry (in Angstrom), charge = 0, multiplicity = 1:

       Center              X                  Y                   Z               Mass       
    ------------   -----------------  -----------------  -----------------  -----------------
         C           -0.771614977003    -0.362639390494    -0.085828393980    12.000000000000
         N            0.426553022997    -0.816753390494     0.513235606020    14.003074004430
         C            1.608433022997    -0.171821390494     0.177848606020    12.000000000000
         C            2.375189022997     0.505057609506     1.314389606020    12.000000000000
         C            0.327943022997    -1.445063390494     1.817345606020    12.000000000000
         O            1.954054022997    -0.004851390494    -0.970529393980    15.994914619570
         C           -1.869354977003     0.002011609506     0.688816606020    12.000000000000
         C           -3.101791977003     0.568227609506    -1.296526393980    12.000000000000
         C           -3.025252977003     0.458206609506     0.080397606020    12.000000000000
         C           -2.006826977003     0.217170609506    -2.067932393980    12.000000000000
         C           -0.851977977003    -0.253093390494    -1.472169393980    12.000000000000
         H            1.114734022997    -2.193285390494     1.908846606020     1.007825032230
         H           -0.641278977003    -1.933292390494     1.893416606020     1.007825032230
         H            0.413429022997    -0.737915390494     2.649643606020     1.007825032230
         N            3.545314022997     1.231836609506     0.863868606020    14.003074004430
         H            2.701331022997    -0.205535390494     2.081132606020     1.007825032230
         H            1.694361022997     1.207764609506     1.808179606020     1.007825032230
         H           -1.829090977003    -0.047879390494     1.765984606020     1.007825032230
         H           -3.868972977003     0.738486609506     0.694287606020     1.007825032230
         H           -2.053343977003     0.299581609506    -3.143583393980     1.007825032230
         H            0.000072022997    -0.525283390494    -2.072603393980     1.007825032230
         H            4.127120022997     0.597433609506     0.319291606020     1.007825032230
         H           -4.006486977003     0.927421609506    -1.763247393980     1.007825032230
         H            3.250845022997     1.920605609506     0.172986606020     1.007825032230

  Running in c1 symmetry.

  Rotational constants: A =      0.06372  B =      0.01921  C =      0.01685 [cm^-1]
  Rotational constants: A =   1910.36920  B =    575.86878  C =    505.17825 [MHz]
  Nuclear repulsion =  688.853303846306858

  Charge       = 0
  Multiplicity = 1
  Electrons    = 88
  Nalpha       = 44
  Nbeta        = 44

  ==> Algorithm <==

  SCF Algorithm Type is DF.
  DIIS enabled.
  MOM disabled.
  Fractional occupation disabled.
  Guess Type is SAD.
  Energy threshold   = 1.00e-06
  Density threshold  = 1.00e-06
  Integral threshold = 1.00e-12

  ==> Primary Basis <==

  Basis Set: 6-311+G*
    Blend: 6-311+G*
    Number of shells: 156
    Number of basis functions: 300
    Number of Cartesian functions: 312
    Spherical Harmonics?: true
    Max angular momentum: 2

  ==> DFT Potential <==

   => LibXC <=

    Version 5.1.5
    S. Lehtola, C. Steigemann, M. J. Oliveira, and M. A. Marques, SoftwareX 7, 1 (2018) (10.1016/j.softx.2017.11.002)

   => Composite Functional: WB97X-D <= 

    wB97X-D Hyb-GGA Exchange-Correlation Functional

    J.-D. Chai and M. Head-Gordon, Phys. Chem. Chem. Phys. 10, 6615 (2008) (10.1039/B810189B)

    Deriv               =              1
    GGA                 =           TRUE
    Meta                =          FALSE

    Exchange Hybrid     =           TRUE
    MP2 Hybrid          =          FALSE

   => Exchange-Correlation Functionals <=

    1.0000   wB97X-D range-separated functional

   => Exact (HF) Exchange <=

    0.7780            HF,LR [omega = 0.2000]
    0.2220               HF 

   => LibXC Density Thresholds  <==

    XC_HYB_GGA_XC_WB97X_D:  1.00E-14 

   => Molecular Quadrature <=

    Radial Scheme          =       TREUTLER
    Pruning Scheme         =           NONE
    Nuclear Scheme         =       TREUTLER

    Blocking Scheme        =         OCTREE
    BS radius alpha        =              1
    Pruning alpha          =              1
    Radial Points          =             75
    Spherical Points       =            302
    Total Points           =         503211
    Total Blocks           =           3682
    Max Points             =            256
    Max Functions          =            274
    Weights Tolerance      =       1.00E-15

   => Loading Basis Set <=

    Name: (6-311+G* AUX)
    Role: JKFIT
    Keyword: DF_BASIS_SCF
    atoms 1, 3-5, 7-11 entry C          line   200 file /home/liuchw/anaconda3/envs/poltype2022/share/psi4/basis/heavy-aug-cc-pvtz-jkfit.gbs 
    atoms 2, 15        entry N          line   262 file /home/liuchw/anaconda3/envs/poltype2022/share/psi4/basis/heavy-aug-cc-pvtz-jkfit.gbs 
    atoms 6            entry O          line   324 file /home/liuchw/anaconda3/envs/poltype2022/share/psi4/basis/heavy-aug-cc-pvtz-jkfit.gbs 
    atoms 12-14, 16-24 entry H          line   116 file /home/liuchw/anaconda3/envs/poltype2022/share/psi4/basis/heavy-aug-cc-pvtz-jkfit.gbs 

  ==> Integral Setup <==

  DFHelper Memory: AOs need 2.952 GiB; user supplied 11.143 GiB. Using in-core AOs.

  ==> MemDFJK: Density-Fitted J/K Matrices <==

    J tasked:                   Yes
    K tasked:                   Yes
    wK tasked:                  Yes
    Omega:                2.000E-01
    OpenMP threads:               5
    Memory [MiB]:             11410
    Algorithm:                 Core
    Schwarz Cutoff:           1E-12
    Mask sparsity (%):       9.9844
    Fitting Condition:        1E-10

   => Auxiliary Basis Set <=

  Basis Set: (6-311+G* AUX)
    Blend: HEAVY-AUG-CC-PVTZ-JKFIT
    Number of shells: 480
    Number of basis functions: 1608
    Number of Cartesian functions: 1992
    Spherical Harmonics?: true
    Max angular momentum: 4

  Cached 100.0% of DFT collocation blocks in 2.827 [GiB].

  Minimum eigenvalue in the overlap matrix is 2.0670990719E-06.
  Reciprocal condition number of the overlap matrix is 1.4309676616E-07.
    Using symmetric orthogonalization.

  ==> Pre-Iterations <==

  SCF Guess: Superposition of Atomic Densities via on-the-fly atomic UHF (no occupation information).

   -------------------------
    Irrep   Nso     Nmo    
   -------------------------
     A        300     300 
   -------------------------
    Total     300     300
   -------------------------

  ==> Iterations <==

                           Total Energy        Delta E     RMS |[F,P]|

   @DF-RKS iter SAD:  -534.33342402373989   -5.34333e+02   0.00000e+00 
   @DF-RKS iter   1:  -534.23805572119011    9.53683e-02   3.76779e-03 DIIS/ADIIS
   @DF-RKS iter   2:  -534.43923808545549   -2.01182e-01   3.31783e-03 DIIS/ADIIS
   @DF-RKS iter   3:  -534.83248490954918   -3.93247e-01   6.33912e-04 DIIS/ADIIS
   @DF-RKS iter   4:  -534.84447298365137   -1.19881e-02   2.34836e-04 DIIS/ADIIS
   @DF-RKS iter   5:  -534.84632014210695   -1.84716e-03   6.41045e-05 DIIS
   @DF-RKS iter   6:  -534.84647150113187   -1.51359e-04   1.70035e-05 DIIS
   @DF-RKS iter   7:  -534.84648442039838   -1.29193e-05   3.29722e-06 DIIS
   @DF-RKS iter   8:  -534.84648523162821   -8.11230e-07   1.95159e-06 DIIS
   @DF-RKS iter   9:  -534.84648546233029   -2.30702e-07   5.39073e-07 DIIS
  Energy and wave function converged.


  ==> Post-Iterations <==

   Electrons on quadrature grid:
      Ntotal   =   87.9999497951 ; deviation = -5.020e-05 

    Orbital Energies [Eh]
    ---------------------

    Doubly Occupied:                                                      

       1A    -19.237278     2A    -14.470540     3A    -14.416101  
       4A    -10.400865     5A    -10.336677     6A    -10.328733  
       7A    -10.326348     8A    -10.292984     9A    -10.291990  
      10A    -10.288499    11A    -10.285214    12A    -10.282108  
      13A     -1.169102    14A     -1.065346    15A     -0.995901  
      16A     -0.963080    17A     -0.862670    18A     -0.857537  
      19A     -0.823218    20A     -0.794779    21A     -0.722134  
      22A     -0.707315    23A     -0.658344    24A     -0.617679  
      25A     -0.606059    26A     -0.600121    27A     -0.579113  
      28A     -0.568299    29A     -0.547917    30A     -0.539779  
      31A     -0.517804    32A     -0.512549    33A     -0.506320  
      34A     -0.499342    35A     -0.492667    36A     -0.467408  
      37A     -0.451912    38A     -0.448434    39A     -0.434682  
      40A     -0.381233    41A     -0.360435    42A     -0.341262  
      43A     -0.335900    44A     -0.299387  

    Virtual:                                                              

      45A      0.049252    46A      0.051412    47A      0.057436  
      48A      0.060173    49A      0.067504    50A      0.070220  
      51A      0.078671    52A      0.088997    53A      0.090807  
      54A      0.100039    55A      0.108319    56A      0.113877  
      57A      0.117296    58A      0.121175    59A      0.131644  
      60A      0.139567    61A      0.148485    62A      0.151691  
      63A      0.156801    64A      0.160444    65A      0.168747  
      66A      0.176739    67A      0.184094    68A      0.192701  
      69A      0.194102    70A      0.204672    71A      0.211031  
      72A      0.211787    73A      0.216656    74A      0.220023  
      75A      0.224265    76A      0.228682    77A      0.231558  
      78A      0.238237    79A      0.246367    80A      0.247807  
      81A      0.250506    82A      0.258537    83A      0.264025  
      84A      0.267437    85A      0.269576    86A      0.273658  
      87A      0.275239    88A      0.280833    89A      0.285866  
      90A      0.289796    91A      0.293120    92A      0.296181  
      93A      0.305392    94A      0.309476    95A      0.312784  
      96A      0.320695    97A      0.328176    98A      0.332612  
      99A      0.335456   100A      0.340614   101A      0.345007  
     102A      0.349461   103A      0.370420   104A      0.378471  
     105A      0.385717   106A      0.390087   107A      0.392960  
     108A      0.399019   109A      0.408311   110A      0.419393  
     111A      0.423461   112A      0.425228   113A      0.439798  
     114A      0.444340   115A      0.466563   116A      0.476524  
     117A      0.488805   118A      0.528183   119A      0.541200  
     120A      0.561991   121A      0.565001   122A      0.571997  
     123A      0.603059   124A      0.610776   125A      0.612877  
     126A      0.614858   127A      0.625179   128A      0.628299  
     129A      0.641126   130A      0.644927   131A      0.660482  
     132A      0.669631   133A      0.690677   134A      0.695038  
     135A      0.709410   136A      0.721875   137A      0.725767  
     138A      0.740407   139A      0.746742   140A      0.753182  
     141A      0.757663   142A      0.772361   143A      0.780415  
     144A      0.792180   145A      0.794322   146A      0.801232  
     147A      0.810539   148A      0.816847   149A      0.822765  
     150A      0.837921   151A      0.843121   152A      0.854179  
     153A      0.871539   154A      0.902229   155A      0.909777  
     156A      0.918137   157A      0.927981   158A      0.937208  
     159A      0.946468   160A      0.952872   161A      0.962309  
     162A      0.970128   163A      0.984660   164A      0.995137  
     165A      0.999739   166A      1.022288   167A      1.047515  
     168A      1.074229   169A      1.097583   170A      1.118096  
     171A      1.122023   172A      1.140404   173A      1.178385  
     174A      1.204027   175A      1.223468   176A      1.265272  
     177A      1.284057   178A      1.294584   179A      1.300335  
     180A      1.322891   181A      1.324395   182A      1.369308  
     183A      1.378477   184A      1.383924   185A      1.412948  
     186A      1.462277   187A      1.479955   188A      1.498141  
     189A      1.555324   190A      1.602809   191A      1.614442  
     192A      1.624542   193A      1.631481   194A      1.650337  
     195A      1.665170   196A      1.701095   197A      1.704085  
     198A      1.737702   199A      1.755172   200A      1.781407  
     201A      1.801848   202A      1.846820   203A      1.855956  
     204A      1.873621   205A      1.884063   206A      1.886906  
     207A      1.903544   208A      1.931635   209A      1.943941  
     210A      1.973112   211A      2.014062   212A      2.016815  
     213A      2.042654   214A      2.044788   215A      2.091548  
     216A      2.105252   217A      2.137703   218A      2.143709  
     219A      2.168997   220A      2.186785   221A      2.273324  
     222A      2.287930   223A      2.319283   224A      2.379927  
     225A      2.395073   226A      2.396129   227A      2.443655  
     228A      2.452955   229A      2.485067   230A      2.504571  
     231A      2.514199   232A      2.530129   233A      2.593558  
     234A      2.628572   235A      2.639450   236A      2.679523  
     237A      2.701652   238A      2.705812   239A      2.762349  
     240A      2.787416   241A      2.799254   242A      2.832420  
     243A      2.871903   244A      2.883923   245A      2.889120  
     246A      2.900597   247A      2.935403   248A      2.960462  
     249A      2.995119   250A      3.008268   251A      3.025892  
     252A      3.040652   253A      3.069457   254A      3.133448  
     255A      3.166071   256A      3.205928   257A      3.262491  
     258A      3.299309   259A      3.326762   260A      3.374975  
     261A      3.410331   262A      3.421545   263A      3.423162  
     264A      3.439479   265A      3.450650   266A      3.476488  
     267A      3.482680   268A      3.513325   269A      3.585539  
     270A      3.636978   271A      3.691607   272A      3.743239  
     273A      3.763822   274A      3.865740   275A      3.947221  
     276A      4.065365   277A      4.110235   278A      4.135402  
     279A      4.161313   280A      4.168091   281A      4.209452  
     282A      4.687561   283A      4.902538   284A      4.922093  
     285A      5.081399   286A      5.210263   287A      5.344206  
     288A      5.868293   289A     23.486893   290A     23.706799  
     291A     23.771820   292A     23.988003   293A     23.994910  
     294A     24.028314   295A     24.188105   296A     24.215288  
     297A     24.318210   298A     35.566996   299A     35.702367  
     300A     50.133092  

    Final Occupation by Irrep:
              A 
    DOCC [    44 ]

  @DF-RKS Final Energy:  -534.84648546233029

   => Energetics <=

    Nuclear Repulsion Energy =            688.8533038463068578
    One-Electron Energy =               -2090.5821000076043674
    Two-Electron Energy =                 919.1079535315141129
    DFT Exchange-Correlation Energy =     -52.2108999102923335
    Empirical Dispersion Energy =          -0.0147429222547351
    VV10 Nonlocal Energy =                  0.0000000000000000
    Total Energy =                       -534.8464854623304063

Computation Completed


Properties will be evaluated at   0.000000,   0.000000,   0.000000 [a0]

Properties computed using the SCF density matrix


 Multipole Moments:

 ------------------------------------------------------------------------------------
     Multipole            Electronic (a.u.)      Nuclear  (a.u.)        Total (a.u.)
 ------------------------------------------------------------------------------------

 L = 1.  Multiply by 2.5417464519 to convert [e a0] to [Debye]
 Dipole X            :         -1.5190208            0.8441237           -0.6748971
 Dipole Y            :         -0.4354297            0.0438655           -0.3915641
 Dipole Z            :         -5.1283873            5.9108334            0.7824461
 Magnitude           :                                                    1.1050025

 ------------------------------------------------------------------------------------

*** tstop() called on node165.bme.utexas.edu at Sat Nov 18 08:35:54 2023
Module time:
	user time   =     107.83 seconds =       1.80 minutes
	system time =       8.27 seconds =       0.14 minutes
	total time  =         31 seconds =       0.52 minutes
Total time:
	user time   =     107.83 seconds =       1.80 minutes
	system time =       8.27 seconds =       0.14 minutes
	total time  =         31 seconds =       0.52 minutes


Properties will be evaluated at   0.000000,   0.000000,   0.000000 [a0]
OEProp: No title given, name of density matrix used for the following properties is 'SCF density'


  Wiberg Bond Indices using Orthogonal Lowdin Orbitals:

  Irrep: 1 Size: 24 x 24

                 1                   2                   3                   4                   5

    1     0.00000000000000     1.14281559938284     0.10877866014187     0.02334095850255     0.10827748667306
    2     1.14281559938284     0.00000000000000     1.25834127461758     0.11345532241008     1.17620405506085
    3     0.10877866014187     1.25834127461758     0.00000000000000     1.02079975759654     0.11209849339665
    4     0.02334095850255     0.11345532241008     1.02079975759654     0.00000000000000     0.06317841090402
    5     0.10827748667306     1.17620405506085     0.11209849339665     0.06317841090402     0.00000000000000
    6     0.05092226818937     0.21022774827839     2.26564028848321     0.15518326627298     0.02536791513859
    7     1.40132469504343     0.12471914155474     0.02919242489298     0.00707027047732     0.06143094804677
    8     0.13301095509722     0.01684453922175     0.00628329414165     0.00130556934938     0.00339797964448
    9     0.13691111704570     0.01633573920861     0.00402235515710     0.00075595611842     0.00708254832521
   10     0.13764755365161     0.01673428840483     0.00527148008609     0.00085776361000     0.00343741779332
   11     1.38960808568684     0.12916153941321     0.04219809561444     0.00788861472093     0.02021719987536
   12     0.00895102832338     0.05080676248893     0.01608766558798     0.00810334408013     0.88353352488196
   13     0.01922506726728     0.04553750580250     0.00964636325734     0.00234994027504     0.87456991180907
   14     0.00952626355776     0.05121355304394     0.01435933150446     0.01458930349691     0.87369311899105
   15     0.00324271817828     0.01661214803583     0.12328977160933     1.34107217883916     0.00602299171264
   16     0.00079780620765     0.00847388929172     0.04619985040422     0.83865274793998     0.01396769182271
   17     0.00344648140167     0.01416756711314     0.04734426922894     0.83078675264306     0.00841379791400
   18     0.05521515569881     0.01489483874239     0.00209773211440     0.00058019924507     0.01825095904912
   19     0.01079976356852     0.00089789425949     0.00045942745931     0.00006024118530     0.00030046112707
   20     0.01091541775212     0.00080526803422     0.00023517351318     0.00003578496417     0.00045706071114
   21     0.05399304948033     0.01550332744151     0.00955168075162     0.00068880741833     0.00126542001416
   22     0.00033259267029     0.00068440250647     0.01125063492398     0.03893413729061     0.00058555766990
   23     0.00287091879195     0.00025513402522     0.00007896054643     0.00003438609147     0.00013329942180
   24     0.00018907841924     0.00078685990617     0.01000277833728     0.03941924028379     0.00091033864725

                 6                   7                   8                   9                  10

    1     0.05092226818937     1.40132469504343     0.13301095509722     0.13691111704570     0.13764755365161
    2     0.21022774827839     0.12471914155474     0.01684453922175     0.01633573920861     0.01673428840483
    3     2.26564028848321     0.02919242489298     0.00628329414165     0.00402235515710     0.00527148008609
    4     0.15518326627298     0.00707027047732     0.00130556934938     0.00075595611842     0.00085776361000
    5     0.02536791513859     0.06143094804677     0.00339797964448     0.00708254832521     0.00343741779332
    6     0.00000000000000     0.00654844702831     0.00244506178329     0.00219463098680     0.00643088795160
    7     0.00654844702831     0.00000000000000     0.14007981664447     1.51854830409845     0.14268649196194
    8     0.00244506178329     0.14007981664447     0.00000000000000     1.52440965648825     1.51336468253921
    9     0.00219463098680     1.51854830409845     1.52440965648825     0.00000000000000     0.14043457513494
   10     0.00643088795160     0.14268649196194     1.51336468253921     0.14043457513494     0.00000000000000
   11     0.06677109312920     0.12856094186816     0.14068369405074     0.14426524791889     1.52797130730266
   12     0.00114906652360     0.00280622415740     0.00060107492671     0.00036003213341     0.00024396198316
   13     0.00167754810063     0.01676291648836     0.00047605334852     0.00154472184551     0.00056042069707
   14     0.00266668299261     0.00737402751565     0.00053533259852     0.00043753126831     0.00033787949961
   15     0.07757987781503     0.00097544071284     0.00040233260916     0.00014731798007     0.00015524325900
   16     0.01387171926651     0.00039799544201     0.00008868623149     0.00006874523134     0.00007430240499
   17     0.01594035502984     0.00123481187779     0.00007334181927     0.00008805130765     0.00008722009621
   18     0.00021973444577     0.80792789489569     0.01052015774702     0.05640013204524     0.00241150183476
   19     0.00018381868355     0.06134892311016     0.05946424064951     0.83151094540925     0.01150856161783
   20     0.00024725293752     0.00253625270651     0.05961426994258     0.01149082086773     0.83156933717897
   21     0.02147165908803     0.00909726948216     0.01045831758355     0.00241777114626     0.05640711501350
   22     0.00980668099359     0.00014277194457     0.00002291203036     0.00002349164856     0.00003067764379
   23     0.00010891924299     0.01128422181759     0.83349962165538     0.06042621379950     0.05993897475355
   24     0.00985174470213     0.00006637261511     0.00001950393466     0.00001764734441     0.00001715858175

                11                  12                  13                  14                  15

    1     1.38960808568684     0.00895102832338     0.01922506726728     0.00952626355776     0.00324271817828
    2     0.12916153941321     0.05080676248893     0.04553750580250     0.05121355304394     0.01661214803583
    3     0.04219809561444     0.01608766558798     0.00964636325734     0.01435933150446     0.12328977160933
    4     0.00788861472093     0.00810334408013     0.00234994027504     0.01458930349691     1.34107217883916
    5     0.02021719987536     0.88353352488196     0.87456991180907     0.87369311899105     0.00602299171264
    6     0.06677109312920     0.00114906652360     0.00167754810063     0.00266668299261     0.07757987781503
    7     0.12856094186816     0.00280622415740     0.01676291648836     0.00737402751565     0.00097544071284
    8     0.14068369405074     0.00060107492671     0.00047605334852     0.00053533259852     0.00040233260916
    9     0.14426524791889     0.00036003213341     0.00154472184551     0.00043753126831     0.00014731798007
   10     1.52797130730266     0.00024396198316     0.00056042069707     0.00033787949961     0.00015524325900
   11     0.00000000000000     0.00121036044237     0.00173868688266     0.00127569909939     0.00125728711183
   12     0.00121036044237     0.00000000000000     0.01013192789867     0.00760826197036     0.00036281764797
   13     0.00173868688266     0.01013192789867     0.00000000000000     0.00791558157897     0.00024448738946
   14     0.00127569909939     0.00760826197036     0.00791558157897     0.00000000000000     0.00086877132848
   15     0.00125728711183     0.00036281764797     0.00024448738946     0.00086877132848     0.00000000000000
   16     0.00025710265843     0.00100972142325     0.00079618700457     0.00241308912806     0.04420721806025
   17     0.00054189154004     0.00031366862227     0.00008448189288     0.00094101139383     0.04006475568936
   18     0.00946145224180     0.00044170528770     0.00244654016720     0.00118056983997     0.00003522792898
   19     0.00258502559508     0.00002329446807     0.00003448447368     0.00004881036237     0.00001754189575
   20     0.06107384386452     0.00000695729291     0.00005471723187     0.00000831535499     0.00000937273331
   21     0.79481805050484     0.00002617093352     0.00006731489121     0.00010259123788     0.00030299600827
   22     0.00018227387729     0.00002150552287     0.00002354813168     0.00013429124454     0.88190431775089
   23     0.01115871716820     0.00000601817358     0.00001999838673     0.00004380784931     0.00000368595084
   24     0.00010287561165     0.00009073302995     0.00009962202846     0.00010535836839     0.88141635380103

                16                  17                  18                  19                  20

    1     0.00079780620765     0.00344648140167     0.05521515569881     0.01079976356852     0.01091541775212
    2     0.00847388929172     0.01416756711314     0.01489483874239     0.00089789425949     0.00080526803422
    3     0.04619985040422     0.04734426922894     0.00209773211440     0.00045942745931     0.00023517351318
    4     0.83865274793998     0.83078675264306     0.00058019924507     0.00006024118530     0.00003578496417
    5     0.01396769182271     0.00841379791400     0.01825095904912     0.00030046112707     0.00045706071114
    6     0.01387171926651     0.01594035502984     0.00021973444577     0.00018381868355     0.00024725293752
    7     0.00039799544201     0.00123481187779     0.80792789489569     0.06134892311016     0.00253625270651
    8     0.00008868623149     0.00007334181927     0.01052015774702     0.05946424064951     0.05961426994258
    9     0.00006874523134     0.00008805130765     0.05640013204524     0.83151094540925     0.01149082086773
   10     0.00007430240499     0.00008722009621     0.00241150183476     0.01150856161783     0.83156933717897
   11     0.00025710265843     0.00054189154004     0.00946145224180     0.00258502559508     0.06107384386452
   12     0.00100972142325     0.00031366862227     0.00044170528770     0.00002329446807     0.00000695729291
   13     0.00079618700457     0.00008448189288     0.00244654016720     0.00003448447368     0.00005471723187
   14     0.00241308912806     0.00094101139383     0.00118056983997     0.00004881036237     0.00000831535499
   15     0.04420721806025     0.04006475568936     0.00003522792898     0.00001754189575     0.00000937273331
   16     0.00000000000000     0.00652509623502     0.00000604204907     0.00000249678669     0.00000137307956
   17     0.00652509623502     0.00000000000000     0.00009772512814     0.00001442870681     0.00000345924775
   18     0.00000604204907     0.00009772512814     0.00000000000000     0.00571690085805     0.00024239174312
   19     0.00000249678669     0.00001442870681     0.00571690085805     0.00000000000000     0.00027088052583
   20     0.00000137307956     0.00000345924775     0.00024239174312     0.00027088052583     0.00000000000000
   21     0.00004747962373     0.00004501640954     0.00043679468789     0.00018855737129     0.00552535229537
   22     0.00346954118171     0.00976771535873     0.00000228361245     0.00000190939032     0.00000075363158
   23     0.00000219208185     0.00000309750083     0.00019694817342     0.00537623961255     0.00529537453712
   24     0.00980371747288     0.00445117514665     0.00000628710956     0.00000174168361     0.00000087388244

                21                  22                  23                  24

    1     0.05399304948033     0.00033259267029     0.00287091879195     0.00018907841924
    2     0.01550332744151     0.00068440250647     0.00025513402522     0.00078685990617
    3     0.00955168075162     0.01125063492398     0.00007896054643     0.01000277833728
    4     0.00068880741833     0.03893413729061     0.00003438609147     0.03941924028379
    5     0.00126542001416     0.00058555766990     0.00013329942180     0.00091033864725
    6     0.02147165908803     0.00980668099359     0.00010891924299     0.00985174470213
    7     0.00909726948216     0.00014277194457     0.01128422181759     0.00006637261511
    8     0.01045831758355     0.00002291203036     0.83349962165538     0.00001950393466
    9     0.00241777114626     0.00002349164856     0.06042621379950     0.00001764734441
   10     0.05640711501350     0.00003067764379     0.05993897475355     0.00001715858175
   11     0.79481805050484     0.00018227387729     0.01115871716820     0.00010287561165
   12     0.00002617093352     0.00002150552287     0.00000601817358     0.00009073302995
   13     0.00006731489121     0.00002354813168     0.00001999838673     0.00009962202846
   14     0.00010259123788     0.00013429124454     0.00004380784931     0.00010535836839
   15     0.00030299600827     0.88190431775089     0.00000368595084     0.88141635380103
   16     0.00004747962373     0.00346954118171     0.00000219208185     0.00980371747288
   17     0.00004501640954     0.00976771535873     0.00000309750083     0.00445117514665
   18     0.00043679468789     0.00000228361245     0.00019694817342     0.00000628710956
   19     0.00018855737129     0.00000190939032     0.00537623961255     0.00000174168361
   20     0.00552535229537     0.00000075363158     0.00529537453712     0.00000087388244
   21     0.00000000000000     0.00008332427962     0.00023565135322     0.00003187822031
   22     0.00008332427962     0.00000000000000     0.00000033683877     0.00760626974521
   23     0.00023565135322     0.00000033683877     0.00000000000000     0.00000047250532
   24     0.00003187822031     0.00760626974521     0.00000047250532     0.00000000000000



  Atomic Valences: 

 #  #
 Irrep: 1
      1:    4.812142720731784
      2:    4.425478398244424
      3:    5.143229763366561
      4:    4.509142953715226
      5:    4.262796588630180
      6:    2.946506667063551
      7:    4.482116604382413
      8:    4.457601094037180
      9:    4.459893552509627
     10:    4.458178803000385
     11:    4.482989086178496
     12:    0.993895827800151
     13:    0.996008026849371
     14:    0.997379183225370
     15:    3.420194854047764
     16:    0.991134691027708
     17:    0.984436171303427
     18:    0.988789174645635
     19:    0.990816588800081
     20:    0.990400304028525
     21:    0.982765595236112
     22:    0.965011929887776
     23:    0.990973190277608
     24:    0.964998081377223


    Psi4 stopped on: Saturday, 18 November 2023 08:35AM
    Psi4 wall time for execution: 0:00:31.36

*** Psi4 exiting successfully. Buy a developer a beer!
