
    -----------------------------------------------------------------------
          Psi4: An Open-Source Ab Initio Electronic Structure Package
                               Psi4 1.3.2 release

                         Git: Rev {HEAD} ecbda83 


    R. M. Parrish, L. A. Burns, D. G. A. Smith, A. C. Simmonett,
    A. E. DePrince III, E. G. Hohenstein, U. Bozkaya, A. Yu. Sokolov,
    R. Di Remigio, R. M. Richard, J. F. Gonthier, A. M. James,
    H. R. McAlexander, A. Kumar, M. Saitow, X. Wang, B. P. Pritchard,
    P. Verma, H. F. Schaefer III, K. Patkowski, R. A. King, E. F. Valeev,
    F. A. Evangelista, J. M. Turney, T. D. Crawford, and C. D. Sherrill,
    J. Chem. Theory Comput. 13(7) pp 3185--3197 (2017).
    (doi: 10.1021/acs.jctc.7b00174)


                         Additional Contributions by
    P. Kraus, H. Kruse, M. H. Lechner, M. C. Schieber, R. A. Shaw,
    A. Alenaizan, R. Galvelis, Z. L. Glick, S. Lehtola, and J. P. Misiewicz

    -----------------------------------------------------------------------


    Psi4 started on: Thursday, 04 November 2021 09:40PM

    Process ID: 70092
    Host:       node44.bme.utexas.edu
    PSIDATADIR: /home/bdw2292/miniconda3/envs/amoebamdpoltype/share/psi4
    Memory:     500.0 MiB
    Threads:    1
    
  ==> Input File <==

--------------------------------------------------------------------------
molecule { 
0 1
H -0.801015716100 -0.492273541475 -0.317931828638
N 0.000283338594 -0.000212192736 0.069038515058
H 0.825677269612 -0.445001887935 -0.324602580948
H -0.028598359184 0.940223709608 -0.316710900465
}
memory 8.333333333333334GB
set_num_threads(1)
psi4_io.set_default_path("/scratch/bdw2292/Psi4-43_Index_0-farH_in17")
set maxiter 500
set freeze_core True
set PROPERTIES_ORIGIN ["COM"]
set cubeprop_tasks ['esp']
E, wfn = properties('mp2/aug-cc-pVTZ',properties=['dipole'],return_wfn=True)
cubeprop(wfn)
fchk(wfn, "43_Index_0-esp.fchk")
oeprop(wfn,"GRID_ESP","WIBERG_LOWDIN_INDICES","MULLIKEN_CHARGES")
clean()
--------------------------------------------------------------------------

  Memory set to   7.761 GiB by Python driver.
  Threads set to 1 by Python driver.
    SCF Algorithm Type (re)set to DF.

*** tstart() called on node44.bme.utexas.edu
*** at Thu Nov  4 21:40:27 2021

   => Loading Basis Set <=

    Name: AUG-CC-PVTZ
    Role: ORBITAL
    Keyword: BASIS
    atoms 1, 3-4 entry H          line    36 file /home/bdw2292/miniconda3/envs/amoebamdpoltype/share/psi4/basis/aug-cc-pvtz.gbs 
    atoms 2      entry N          line   281 file /home/bdw2292/miniconda3/envs/amoebamdpoltype/share/psi4/basis/aug-cc-pvtz.gbs 


         ---------------------------------------------------------
                                   SCF
               by Justin Turney, Rob Parrish, Andy Simmonett
                          and Daniel G. A. Smith
                              RHF Reference
                        1 Threads,   7947 MiB Core
         ---------------------------------------------------------

  ==> Geometry <==

    Molecular point group: c1
    Full point group: C1

    Geometry (in Angstrom), charge = 0, multiplicity = 1:

       Center              X                  Y                   Z               Mass       
    ------------   -----------------  -----------------  -----------------  -----------------
         H           -0.801015716100    -0.492273541475    -0.317931828638     1.007825032230
         N            0.000283338594    -0.000212192736     0.069038515058    14.003074004430
         H            0.825677269612    -0.445001887935    -0.324602580948     1.007825032230
         H           -0.028598359184     0.940223709608    -0.316710900465     1.007825032230

  Running in c1 symmetry.

  Rotational constants: A =      9.85575  B =      9.85466  C =      6.31533 [cm^-1]
  Rotational constants: A = 295467.84679  B = 295435.33499  C = 189328.68115 [MHz]
  Nuclear repulsion =   11.903832194517843

  Charge       = 0
  Multiplicity = 1
  Electrons    = 10
  Nalpha       = 5
  Nbeta        = 5

  ==> Algorithm <==

  SCF Algorithm Type is DF.
  DIIS enabled.
  MOM disabled.
  Fractional occupation disabled.
  Guess Type is SAD.
  Energy threshold   = 1.00e-10
  Density threshold  = 1.00e-10
  Integral threshold = 0.00e+00

  ==> Primary Basis <==

  Basis Set: AUG-CC-PVTZ
    Blend: AUG-CC-PVTZ
    Number of shells: 41
    Number of basis function: 115
    Number of Cartesian functions: 130
    Spherical Harmonics?: true
    Max angular momentum: 3

   => Loading Basis Set <=

    Name: (AUG-CC-PVTZ AUX)
    Role: JKFIT
    Keyword: DF_BASIS_SCF
    atoms 1, 3-4 entry H          line    70 file /home/bdw2292/miniconda3/envs/amoebamdpoltype/share/psi4/basis/aug-cc-pvtz-jkfit.gbs 
    atoms 2      entry N          line   224 file /home/bdw2292/miniconda3/envs/amoebamdpoltype/share/psi4/basis/aug-cc-pvtz-jkfit.gbs 

  ==> Pre-Iterations <==

   -------------------------------------------------------
    Irrep   Nso     Nmo     Nalpha   Nbeta   Ndocc  Nsocc
   -------------------------------------------------------
     A        115     115       0       0       0       0
   -------------------------------------------------------
    Total     115     115       5       5       5       0
   -------------------------------------------------------

  ==> Integral Setup <==

  DFHelper Memory: AOs need 0.027 GiB; user supplied 5.821 GiB. Using in-core AOs.

  ==> MemDFJK: Density-Fitted J/K Matrices <==

    J tasked:                   Yes
    K tasked:                   Yes
    wK tasked:                   No
    OpenMP threads:               1
    Memory [MiB]:              5960
    Algorithm:                 Core
    Schwarz Cutoff:           1E-12
    Mask sparsity (%):       0.0000
    Fitting Condition:        1E-10

   => Auxiliary Basis Set <=

  Basis Set: (AUG-CC-PVTZ AUX)
    Blend: AUG-CC-PVTZ-JKFIT
    Number of shells: 72
    Number of basis function: 242
    Number of Cartesian functions: 296
    Spherical Harmonics?: true
    Max angular momentum: 4

  Minimum eigenvalue in the overlap matrix is 2.7218450354E-04.
  Using Symmetric Orthogonalization.

  SCF Guess: Superposition of Atomic Densities via on-the-fly atomic UHF.

  ==> Iterations <==

                           Total Energy        Delta E     RMS |[F,P]|

   @DF-RHF iter SAD:   -55.63708417890412   -5.56371e+01   0.00000e+00 
   @DF-RHF iter   1:   -56.12248481606958   -4.85401e-01   4.04175e-03 DIIS
   @DF-RHF iter   2:   -56.19090208695089   -6.84173e-02   2.35423e-03 DIIS
   @DF-RHF iter   3:   -56.21926636992526   -2.83643e-02   2.12965e-04 DIIS
   @DF-RHF iter   4:   -56.21990614465302   -6.39775e-04   4.01324e-05 DIIS
   @DF-RHF iter   5:   -56.21992776766031   -2.16230e-05   7.45186e-06 DIIS
   @DF-RHF iter   6:   -56.21992900258360   -1.23492e-06   1.77364e-06 DIIS
   @DF-RHF iter   7:   -56.21992907533823   -7.27546e-08   3.58464e-07 DIIS
   @DF-RHF iter   8:   -56.21992907842913   -3.09090e-09   5.51215e-08 DIIS
   @DF-RHF iter   9:   -56.21992907849592   -6.67910e-11   1.39631e-08 DIIS
   @DF-RHF iter  10:   -56.21992907850045   -4.52616e-12   2.89286e-09 DIIS
   @DF-RHF iter  11:   -56.21992907850089   -4.40536e-13   4.14200e-10 DIIS
   @DF-RHF iter  12:   -56.21992907850073    1.63425e-13   6.30989e-11 DIIS
  Energy and wave function converged.


  ==> Post-Iterations <==

    Orbital Energies [Eh]
    ---------------------

    Doubly Occupied:                                                      

       1A    -15.543673     2A     -1.140777     3A     -0.626167  
       4A     -0.626142     5A     -0.430508  

    Virtual:                                                              

       6A      0.029434     7A      0.048697     8A      0.048698  
       9A      0.117892    10A      0.152274    11A      0.162396  
      12A      0.162397    13A      0.221104    14A      0.221108  
      15A      0.234993    16A      0.234997    17A      0.254140  
      18A      0.355958    19A      0.357601    20A      0.370575  
      21A      0.370576    22A      0.427410    23A      0.460340  
      24A      0.460346    25A      0.486468    26A      0.486474  
      27A      0.564676    28A      0.601254    29A      0.601261  
      30A      0.748533    31A      0.784376    32A      0.784390  
      33A      0.810510    34A      0.880364    35A      0.902579  
      36A      0.914821    37A      0.914828    38A      0.978089  
      39A      0.978098    40A      1.033475    41A      1.035588  
      42A      1.035595    43A      1.080736    44A      1.103175  
      45A      1.103177    46A      1.141973    47A      1.141979  
      48A      1.184755    49A      1.219073    50A      1.219085  
      51A      1.325095    52A      1.360461    53A      1.360485  
      54A      1.616815    55A      1.757035    56A      1.757055  
      57A      1.761369    58A      1.862771    59A      1.862781  
      60A      1.863524    61A      2.001536    62A      2.037006  
      63A      2.037049    64A      2.047961    65A      2.047975  
      66A      2.275901    67A      2.337999    68A      2.373873  
      69A      2.373901    70A      2.435572    71A      2.435584  
      72A      2.466088    73A      3.378123    74A      3.554129  
      75A      3.554156    76A      3.969475    77A      3.969510  
      78A      4.043213    79A      4.134599    80A      4.134616  
      81A      4.207938    82A      4.219959    83A      4.257574  
      84A      4.257597    85A      4.313621    86A      4.355054  
      87A      4.355076    88A      4.472913    89A      4.543991  
      90A      4.544034    91A      4.683735    92A      4.734802  
      93A      4.734825    94A      4.936519    95A      4.936568  
      96A      4.978460    97A      5.058660    98A      5.058679  
      99A      5.069907   100A      5.252903   101A      5.683730  
     102A      5.683785   103A      5.715288   104A      5.882907  
     105A      5.883009   106A      6.035896   107A      6.321404  
     108A      6.321541   109A      6.397952   110A      6.606198  
     111A      6.921109   112A      6.921180   113A      7.679007  
     114A      7.679121   115A     17.085013  

    Final Occupation by Irrep:
              A 
    DOCC [     5 ]

  @DF-RHF Final Energy:   -56.21992907850073

   => Energetics <=

    Nuclear Repulsion Energy =             11.9038321945178431
    One-Electron Energy =                 -99.5129894065949827
    Two-Electron Energy =                  31.3892281335764096
    Total Energy =                        -56.2199290785007264

Computation Completed

*** tstop() called on node44.bme.utexas.edu at Thu Nov  4 21:40:29 2021
Module time:
	user time   =       1.53 seconds =       0.03 minutes
	system time =       0.07 seconds =       0.00 minutes
	total time  =          2 seconds =       0.03 minutes
Total time:
	user time   =       1.53 seconds =       0.03 minutes
	system time =       0.07 seconds =       0.00 minutes
	total time  =          2 seconds =       0.03 minutes
   => Loading Basis Set <=

    Name: (AUG-CC-PVTZ AUX)
    Role: RIFIT
    Keyword: DF_BASIS_MP2
    atoms 1, 3-4 entry H          line    30 file /home/bdw2292/miniconda3/envs/amoebamdpoltype/share/psi4/basis/aug-cc-pvtz-ri.gbs 
    atoms 2      entry N          line   206 file /home/bdw2292/miniconda3/envs/amoebamdpoltype/share/psi4/basis/aug-cc-pvtz-ri.gbs 


*** tstart() called on node44.bme.utexas.edu
*** at Thu Nov  4 21:40:29 2021


  //>>>>>>>>>>>>>>>>>>>>>>>>>>>>>>>>>>>//
  //               DFMP2               //
  //<<<<<<<<<<<<<<<<<<<<<<<<<<<<<<<<<<<//

	 --------------------------------------------------------
	                          DF-MP2                         
	      2nd-Order Density-Fitted Moller-Plesset Theory     
	              RMP2 Wavefunction,   1 Threads             
	                                                         
	        Rob Parrish, Justin Turney, Andy Simmonett,      
	           Ed Hohenstein, and C. David Sherrill          
	 --------------------------------------------------------

   => Auxiliary Basis Set <=

  Basis Set: (AUG-CC-PVTZ AUX)
    Blend: AUG-CC-PVTZ-RI
    Number of shells: 70
    Number of basis function: 244
    Number of Cartesian functions: 301
    Spherical Harmonics?: true
    Max angular momentum: 4

	 --------------------------------------------------------
	                 NBF =   115, NAUX =   244
	 --------------------------------------------------------
	   CLASS    FOCC     OCC    AOCC    AVIR     VIR    FVIR
	   PAIRS       1       5       4     110     110       0
	 --------------------------------------------------------

  DFHelper Memory: AOs need 0.027 GiB; user supplied 5.821 GiB. Using in-core AOs.


         ------------------------------------------------------------
                                     CPHF                           
                                  Rob Parrish                       
         ------------------------------------------------------------

  ==> Geometry <==

    Molecular point group: c1
    Full point group: C1

    Geometry (in Angstrom), charge = 0, multiplicity = 1:

       Center              X                  Y                   Z               Mass       
    ------------   -----------------  -----------------  -----------------  -----------------
         H           -0.801015716100    -0.492273541475    -0.317931828638     1.007825032230
         N            0.000283338594    -0.000212192736     0.069038515058    14.003074004430
         H            0.825677269612    -0.445001887935    -0.324602580948     1.007825032230
         H           -0.028598359184     0.940223709608    -0.316710900465     1.007825032230

  Nuclear repulsion =   11.903832194517843
  Reference energy  =  -56.219929078500726

  ==> Basis Set <==

  Basis Set: AUG-CC-PVTZ
    Blend: AUG-CC-PVTZ
    Number of shells: 41
    Number of basis function: 115
    Number of Cartesian functions: 130
    Spherical Harmonics?: true
    Max angular momentum: 3

  ==> CGRSolver (by Rob Parrish) <==

   Number of roots    =         1
   Preconditioning    =    JACOBI
   Convergence cutoff =     1E-06
   Maximum iterations =       100

  ==> CPHFRHamiltonian (by Rob Parrish) <== 

  ==> MemDFJK: Density-Fitted J/K Matrices <==

    J tasked:                   Yes
    K tasked:                   Yes
    wK tasked:                   No
    OpenMP threads:               1
    Memory [MiB]:              5960
    Algorithm:                 Core
    Schwarz Cutoff:           1E-12
    Mask sparsity (%):       0.0000
    Fitting Condition:        1E-10

   => Auxiliary Basis Set <=

  Basis Set: (AUG-CC-PVTZ AUX)
    Blend: AUG-CC-PVTZ-JKFIT
    Number of shells: 72
    Number of basis function: 242
    Number of Cartesian functions: 296
    Spherical Harmonics?: true
    Max angular momentum: 4

  ==> CPHF Iterations <==

  => Iterations <=

             Iter  Converged  Remaining    Residual
  CGR           1          0          1   1.006E-01
  CGR           2          0          1   2.225E-02
  CGR           3          0          1   3.484E-03
  CGR           4          0          1   8.399E-04
  CGR           5          0          1   2.234E-04
  CGR           6          0          1   3.414E-05
  CGR           7          0          1   5.046E-06
  CGR           8          1          0   8.821E-07

    CGRSolver converged.

	-----------------------------------------------------------
	 ==================> DF-MP2 Energies <==================== 
	-----------------------------------------------------------
	 Reference Energy          =     -56.2199290785007264 [Eh]
	 Singles Energy            =      -0.0000000000000000 [Eh]
	 Same-Spin Energy          =      -0.0531832782648492 [Eh]
	 Opposite-Spin Energy      =      -0.1873282091063406 [Eh]
	 Correlation Energy        =      -0.2405114873711898 [Eh]
	 Total Energy              =     -56.4604405658719131 [Eh]
	-----------------------------------------------------------
	 ================> DF-SCS-MP2 Energies <================== 
	-----------------------------------------------------------
	 SCS Same-Spin Scale       =       0.3333333333333333 [-]
	 SCS Opposite-Spin Scale   =       1.2000000000000000 [-]
	 SCS Same-Spin Energy      =      -0.0177277594216164 [Eh]
	 SCS Opposite-Spin Energy  =      -0.2247938509276087 [Eh]
	 SCS Correlation Energy    =      -0.2425216103492251 [Eh]
	 SCS Total Energy          =     -56.4624506888499482 [Eh]
	-----------------------------------------------------------



Properties will be evaluated at   0.000000,   0.000000,   0.000000 [a0]

Properties computed using the MP2 density matrix

  Nuclear Dipole Moment: [e a0]
     X:    -0.0037      Y:     0.0028      Z:    -0.8995

  Electronic Dipole Moment: [e a0]
     X:     0.0012      Y:    -0.0009      Z:     0.2940

  Dipole Moment: [e a0]
     X:    -0.0025      Y:     0.0019      Z:    -0.6054     Total:     0.6054

  Dipole Moment: [D]
     X:    -0.0064      Y:     0.0048      Z:    -1.5389     Total:     1.5389


*** tstop() called on node44.bme.utexas.edu at Thu Nov  4 21:40:32 2021
Module time:
	user time   =       2.43 seconds =       0.04 minutes
	system time =       0.06 seconds =       0.00 minutes
	total time  =          3 seconds =       0.05 minutes
Total time:
	user time   =       4.02 seconds =       0.07 minutes
	system time =       0.13 seconds =       0.00 minutes
	total time  =          5 seconds =       0.08 minutes
  ==> One Electron Grid Properties (v2.0) <==

  ==> CubicScalarGrid <==

    Filepath     = .
    Total Points =           141075
    XYZ Blocking =               10
    X Points     =               57
    Y Points     =               55
    Z Points     =               45
    X Spacing    =        2.000E-01
    Y Spacing    =        2.000E-01
    Z Spacing    =        2.000E-01
    X Minimum    =       -5.577E+00
    Y Minimum    =       -4.977E+00
    Z Minimum    =       -4.641E+00
    X Maximum    =        5.623E+00
    Y Maximum    =        5.823E+00
    Z Maximum    =        4.159E+00

  Basis Set: AUG-CC-PVTZ
    Blend: AUG-CC-PVTZ
    Number of shells: 41
    Number of basis function: 115
    Number of Cartesian functions: 130
    Spherical Harmonics?: true
    Max angular momentum: 3



Properties will be evaluated at   0.000000,   0.000000,   0.000000 [a0]
OEProp: No title given, name of density matrix used for the following properties is 'DF-MP2 relaxed density'
  Mulliken Charges: (a.u.)
   Center  Symbol    Alpha    Beta     Spin     Total
       1     H     0.39871  0.39871  0.00000  0.20258
       2     N     3.80389  3.80389  0.00000 -0.60779
       3     H     0.39870  0.39870  0.00000  0.20260
       4     H     0.39870  0.39870  0.00000  0.20260

   Total alpha =  5.00000, Total beta =  5.00000, Total charge =  0.00000



  Wiberg Bond Indices using Orthogonal Lowdin Orbitals:

  Irrep: 1 Size: 4 x 4

                 1                   2                   3                   4

    1     0.00000000000000     1.26504852619756     0.39641213322936     0.39639722202556
    2     1.26504852619756     0.00000000000000     1.26495606252818     1.26496125070392
    3     0.39641213322936     1.26495606252818     0.00000000000000     0.39637668061441
    4     0.39639722202556     1.26496125070392     0.39637668061441     0.00000000000000



  Atomic Valences: 

 #  #
 Irrep: 1
      1:  2.0578579
      2:  3.7949658
      3:  2.0577449
      4:  2.0577352


 Electrostatic potential computed on the grid and written to grid_esp.dat

    Psi4 stopped on: Thursday, 04 November 2021 09:40PM
    Psi4 wall time for execution: 0:00:23.64

*** Psi4 exiting successfully. Buy a developer a beer!
