
    -----------------------------------------------------------------------
          Psi4: An Open-Source Ab Initio Electronic Structure Package
                               Psi4 1.3.2 release

                         Git: Rev {HEAD} ecbda83 


    R. M. Parrish, L. A. Burns, D. G. A. Smith, A. C. Simmonett,
    A. E. DePrince III, E. G. Hohenstein, U. Bozkaya, A. Yu. Sokolov,
    R. Di Remigio, R. M. Richard, J. F. Gonthier, A. M. James,
    H. R. McAlexander, A. Kumar, M. Saitow, X. Wang, B. P. Pritchard,
    P. Verma, H. F. Schaefer III, K. Patkowski, R. A. King, E. F. Valeev,
    F. A. Evangelista, J. M. Turney, T. D. Crawford, and C. D. Sherrill,
    J. Chem. Theory Comput. 13(7) pp 3185--3197 (2017).
    (doi: 10.1021/acs.jctc.7b00174)


                         Additional Contributions by
    P. Kraus, H. Kruse, M. H. Lechner, M. C. Schieber, R. A. Shaw,
    A. Alenaizan, R. Galvelis, Z. L. Glick, S. Lehtola, and J. P. Misiewicz

    -----------------------------------------------------------------------


    Psi4 started on: Thursday, 04 November 2021 09:40PM

    Process ID: 70084
    Host:       node44.bme.utexas.edu
    PSIDATADIR: /home/bdw2292/miniconda3/envs/amoebamdpoltype/share/psi4
    Memory:     500.0 MiB
    Threads:    1
    
  ==> Input File <==

--------------------------------------------------------------------------
molecule { 
0 1
H -0.801015716100 -0.492273541475 -0.317931828638
N 0.000283338594 -0.000212192736 0.069038515058
H 0.825677269612 -0.445001887935 -0.324602580948
H -0.028598359184 0.940223709608 -0.316710900465
}
memory 8.333333333333334GB
set_num_threads(1)
psi4_io.set_default_path("/scratch/bdw2292/Psi4-43_Index_0-farH_in17")
set freeze_core True
set PROPERTIES_ORIGIN ["COM"]
set cubeprop_tasks ['esp']
E, wfn = properties('mp2/6-311G**',properties=['dipole'],return_wfn=True)
cubeprop(wfn)
fchk(wfn, "43_Index_0-dma.fchk")
clean()
--------------------------------------------------------------------------

  Memory set to   7.761 GiB by Python driver.
  Threads set to 1 by Python driver.
    SCF Algorithm Type (re)set to DF.

*** tstart() called on node44.bme.utexas.edu
*** at Thu Nov  4 21:40:16 2021

   => Loading Basis Set <=

    Name: 6-311G**
    Role: ORBITAL
    Keyword: BASIS
    atoms 1, 3-4 entry H          line    32 file /home/bdw2292/miniconda3/envs/amoebamdpoltype/share/psi4/basis/6-311gss.gbs 
    atoms 2      entry N          line   132 file /home/bdw2292/miniconda3/envs/amoebamdpoltype/share/psi4/basis/6-311gss.gbs 


         ---------------------------------------------------------
                                   SCF
               by Justin Turney, Rob Parrish, Andy Simmonett
                          and Daniel G. A. Smith
                              RHF Reference
                        1 Threads,   7947 MiB Core
         ---------------------------------------------------------

  ==> Geometry <==

    Molecular point group: c1
    Full point group: C1

    Geometry (in Angstrom), charge = 0, multiplicity = 1:

       Center              X                  Y                   Z               Mass       
    ------------   -----------------  -----------------  -----------------  -----------------
         H           -0.801015716100    -0.492273541475    -0.317931828638     1.007825032230
         N            0.000283338594    -0.000212192736     0.069038515058    14.003074004430
         H            0.825677269612    -0.445001887935    -0.324602580948     1.007825032230
         H           -0.028598359184     0.940223709608    -0.316710900465     1.007825032230

  Running in c1 symmetry.

  Rotational constants: A =      9.85575  B =      9.85466  C =      6.31533 [cm^-1]
  Rotational constants: A = 295467.84679  B = 295435.33499  C = 189328.68115 [MHz]
  Nuclear repulsion =   11.903832194517843

  Charge       = 0
  Multiplicity = 1
  Electrons    = 10
  Nalpha       = 5
  Nbeta        = 5

  ==> Algorithm <==

  SCF Algorithm Type is DF.
  DIIS enabled.
  MOM disabled.
  Fractional occupation disabled.
  Guess Type is SAD.
  Energy threshold   = 1.00e-10
  Density threshold  = 1.00e-10
  Integral threshold = 0.00e+00

  ==> Primary Basis <==

  Basis Set: 6-311G**
    Blend: 6-311G**
    Number of shells: 20
    Number of basis function: 36
    Number of Cartesian functions: 37
    Spherical Harmonics?: true
    Max angular momentum: 2

   => Loading Basis Set <=

    Name: (6-311G** AUX)
    Role: JKFIT
    Keyword: DF_BASIS_SCF
    atoms 1, 3-4 entry H          line    51 file /home/bdw2292/miniconda3/envs/amoebamdpoltype/share/psi4/basis/cc-pvtz-jkfit.gbs 
    atoms 2      entry N          line   177 file /home/bdw2292/miniconda3/envs/amoebamdpoltype/share/psi4/basis/cc-pvtz-jkfit.gbs 

  ==> Pre-Iterations <==

   -------------------------------------------------------
    Irrep   Nso     Nmo     Nalpha   Nbeta   Ndocc  Nsocc
   -------------------------------------------------------
     A         36      36       0       0       0       0
   -------------------------------------------------------
    Total      36      36       5       5       5       0
   -------------------------------------------------------

  ==> Integral Setup <==

  DFHelper Memory: AOs need 0.002 GiB; user supplied 5.821 GiB. Using in-core AOs.

  ==> MemDFJK: Density-Fitted J/K Matrices <==

    J tasked:                   Yes
    K tasked:                   Yes
    wK tasked:                   No
    OpenMP threads:               1
    Memory [MiB]:              5960
    Algorithm:                 Core
    Schwarz Cutoff:           1E-12
    Mask sparsity (%):       0.0000
    Fitting Condition:        1E-10

   => Auxiliary Basis Set <=

  Basis Set: (6-311G** AUX)
    Blend: CC-PVTZ-JKFIT
    Number of shells: 55
    Number of basis function: 169
    Number of Cartesian functions: 201
    Spherical Harmonics?: true
    Max angular momentum: 4

  Minimum eigenvalue in the overlap matrix is 1.1439487804E-02.
  Using Symmetric Orthogonalization.

  SCF Guess: Superposition of Atomic Densities via on-the-fly atomic UHF.

  ==> Iterations <==

                           Total Energy        Delta E     RMS |[F,P]|

   @DF-RHF iter SAD:   -55.66978502528877   -5.56698e+01   0.00000e+00 
   @DF-RHF iter   1:   -56.12501696464120   -4.55232e-01   1.18480e-02 DIIS
   @DF-RHF iter   2:   -56.18866987462482   -6.36529e-02   6.42792e-03 DIIS
   @DF-RHF iter   3:   -56.20914949778839   -2.04796e-02   6.64931e-04 DIIS
   @DF-RHF iter   4:   -56.20973875814009   -5.89260e-04   1.21781e-04 DIIS
   @DF-RHF iter   5:   -56.20975650010740   -1.77420e-05   2.17880e-05 DIIS
   @DF-RHF iter   6:   -56.20975738227518   -8.82168e-07   4.72716e-06 DIIS
   @DF-RHF iter   7:   -56.20975743421992   -5.19447e-08   1.00583e-06 DIIS
   @DF-RHF iter   8:   -56.20975743691416   -2.69424e-09   2.24379e-07 DIIS
   @DF-RHF iter   9:   -56.20975743704476   -1.30598e-10   4.50969e-08 DIIS
   @DF-RHF iter  10:   -56.20975743704830   -3.53850e-12   4.26035e-09 DIIS
   @DF-RHF iter  11:   -56.20975743704840   -9.94760e-14   4.80050e-10 DIIS
   @DF-RHF iter  12:   -56.20975743704841   -1.42109e-14   4.36031e-11 DIIS
  Energy and wave function converged.


  ==> Post-Iterations <==

    Orbital Energies [Eh]
    ---------------------

    Doubly Occupied:                                                      

       1A    -15.530549     2A     -1.134004     3A     -0.619629  
       4A     -0.619603     5A     -0.424017  

    Virtual:                                                              

       6A      0.155648     7A      0.229608     8A      0.229612  
       9A      0.516474    10A      0.516496    11A      0.665579  
      12A      0.819071    13A      0.954734    14A      0.954746  
      15A      1.119405    16A      1.353503    17A      1.353552  
      18A      1.797218    19A      1.812822    20A      1.903852  
      21A      1.903889    22A      2.166777    23A      2.166819  
      24A      2.454117    25A      2.682765    26A      2.682823  
      27A      2.862022    28A      2.986440    29A      2.986470  
      30A      3.127492    31A      3.448915    32A      3.448988  
      33A      4.424745    34A      5.205993    35A      5.206124  
      36A     37.030617  

    Final Occupation by Irrep:
              A 
    DOCC [     5 ]

  @DF-RHF Final Energy:   -56.20975743704841

   => Energetics <=

    Nuclear Repulsion Energy =             11.9038321945178431
    One-Electron Energy =                 -99.5715748056465770
    Two-Electron Energy =                  31.4579851740803242
    Total Energy =                        -56.2097574370484097

Computation Completed

*** tstop() called on node44.bme.utexas.edu at Thu Nov  4 21:40:18 2021
Module time:
	user time   =       1.00 seconds =       0.02 minutes
	system time =       0.04 seconds =       0.00 minutes
	total time  =          2 seconds =       0.03 minutes
Total time:
	user time   =       1.00 seconds =       0.02 minutes
	system time =       0.04 seconds =       0.00 minutes
	total time  =          2 seconds =       0.03 minutes
   => Loading Basis Set <=

    Name: (6-311G** AUX)
    Role: RIFIT
    Keyword: DF_BASIS_MP2
    atoms 1, 3-4 entry H          line    19 file /home/bdw2292/miniconda3/envs/amoebamdpoltype/share/psi4/basis/cc-pvtz-ri.gbs 
    atoms 2      entry N          line   257 file /home/bdw2292/miniconda3/envs/amoebamdpoltype/share/psi4/basis/cc-pvtz-ri.gbs 


*** tstart() called on node44.bme.utexas.edu
*** at Thu Nov  4 21:40:18 2021


  //>>>>>>>>>>>>>>>>>>>>>>>>>>>>>>>>>>>//
  //               DFMP2               //
  //<<<<<<<<<<<<<<<<<<<<<<<<<<<<<<<<<<<//

	 --------------------------------------------------------
	                          DF-MP2                         
	      2nd-Order Density-Fitted Moller-Plesset Theory     
	              RMP2 Wavefunction,   1 Threads             
	                                                         
	        Rob Parrish, Justin Turney, Andy Simmonett,      
	           Ed Hohenstein, and C. David Sherrill          
	 --------------------------------------------------------

   => Auxiliary Basis Set <=

  Basis Set: (6-311G** AUX)
    Blend: CC-PVTZ-RI
    Number of shells: 53
    Number of basis function: 171
    Number of Cartesian functions: 206
    Spherical Harmonics?: true
    Max angular momentum: 4

	 --------------------------------------------------------
	                 NBF =    36, NAUX =   171
	 --------------------------------------------------------
	   CLASS    FOCC     OCC    AOCC    AVIR     VIR    FVIR
	   PAIRS       1       5       4      31      31       0
	 --------------------------------------------------------

  DFHelper Memory: AOs need 0.002 GiB; user supplied 5.821 GiB. Using in-core AOs.


         ------------------------------------------------------------
                                     CPHF                           
                                  Rob Parrish                       
         ------------------------------------------------------------

  ==> Geometry <==

    Molecular point group: c1
    Full point group: C1

    Geometry (in Angstrom), charge = 0, multiplicity = 1:

       Center              X                  Y                   Z               Mass       
    ------------   -----------------  -----------------  -----------------  -----------------
         H           -0.801015716100    -0.492273541475    -0.317931828638     1.007825032230
         N            0.000283338594    -0.000212192736     0.069038515058    14.003074004430
         H            0.825677269612    -0.445001887935    -0.324602580948     1.007825032230
         H           -0.028598359184     0.940223709608    -0.316710900465     1.007825032230

  Nuclear repulsion =   11.903832194517843
  Reference energy  =  -56.209757437048410

  ==> Basis Set <==

  Basis Set: 6-311G**
    Blend: 6-311G**
    Number of shells: 20
    Number of basis function: 36
    Number of Cartesian functions: 37
    Spherical Harmonics?: true
    Max angular momentum: 2

  ==> CGRSolver (by Rob Parrish) <==

   Number of roots    =         1
   Preconditioning    =    JACOBI
   Convergence cutoff =     1E-06
   Maximum iterations =       100

  ==> CPHFRHamiltonian (by Rob Parrish) <== 

  ==> MemDFJK: Density-Fitted J/K Matrices <==

    J tasked:                   Yes
    K tasked:                   Yes
    wK tasked:                   No
    OpenMP threads:               1
    Memory [MiB]:              5960
    Algorithm:                 Core
    Schwarz Cutoff:           1E-12
    Mask sparsity (%):       0.0000
    Fitting Condition:        1E-10

   => Auxiliary Basis Set <=

  Basis Set: (6-311G** AUX)
    Blend: CC-PVTZ-JKFIT
    Number of shells: 55
    Number of basis function: 169
    Number of Cartesian functions: 201
    Spherical Harmonics?: true
    Max angular momentum: 4

  ==> CPHF Iterations <==

  => Iterations <=

             Iter  Converged  Remaining    Residual
  CGR           1          0          1   5.888E-02
  CGR           2          0          1   1.191E-02
  CGR           3          0          1   2.592E-03
  CGR           4          0          1   4.413E-04
  CGR           5          0          1   7.094E-05
  CGR           6          0          1   1.304E-05
  CGR           7          0          1   1.833E-06
  CGR           8          1          0   2.619E-07

    CGRSolver converged.

	-----------------------------------------------------------
	 ==================> DF-MP2 Energies <==================== 
	-----------------------------------------------------------
	 Reference Energy          =     -56.2097574370484097 [Eh]
	 Singles Energy            =      -0.0000000000000000 [Eh]
	 Same-Spin Energy          =      -0.0453223187652776 [Eh]
	 Opposite-Spin Energy      =      -0.1536511756662243 [Eh]
	 Correlation Energy        =      -0.1989734944315019 [Eh]
	 Total Energy              =     -56.4087309314799086 [Eh]
	-----------------------------------------------------------
	 ================> DF-SCS-MP2 Energies <================== 
	-----------------------------------------------------------
	 SCS Same-Spin Scale       =       0.3333333333333333 [-]
	 SCS Opposite-Spin Scale   =       1.2000000000000000 [-]
	 SCS Same-Spin Energy      =      -0.0151074395884259 [Eh]
	 SCS Opposite-Spin Energy  =      -0.1843814107994691 [Eh]
	 SCS Correlation Energy    =      -0.1994888503878950 [Eh]
	 SCS Total Energy          =     -56.4092462874363036 [Eh]
	-----------------------------------------------------------



Properties will be evaluated at   0.000000,   0.000000,   0.000000 [a0]

Properties computed using the MP2 density matrix

  Nuclear Dipole Moment: [e a0]
     X:    -0.0037      Y:     0.0028      Z:    -0.8995

  Electronic Dipole Moment: [e a0]
     X:     0.0009      Y:    -0.0007      Z:     0.2171

  Dipole Moment: [e a0]
     X:    -0.0028      Y:     0.0021      Z:    -0.6823     Total:     0.6824

  Dipole Moment: [D]
     X:    -0.0072      Y:     0.0053      Z:    -1.7344     Total:     1.7344


*** tstop() called on node44.bme.utexas.edu at Thu Nov  4 21:40:19 2021
Module time:
	user time   =       0.76 seconds =       0.01 minutes
	system time =       0.01 seconds =       0.00 minutes
	total time  =          1 seconds =       0.02 minutes
Total time:
	user time   =       1.81 seconds =       0.03 minutes
	system time =       0.06 seconds =       0.00 minutes
	total time  =          3 seconds =       0.05 minutes
  ==> One Electron Grid Properties (v2.0) <==

  ==> CubicScalarGrid <==

    Filepath     = .
    Total Points =           141075
    XYZ Blocking =               10
    X Points     =               57
    Y Points     =               55
    Z Points     =               45
    X Spacing    =        2.000E-01
    Y Spacing    =        2.000E-01
    Z Spacing    =        2.000E-01
    X Minimum    =       -5.577E+00
    Y Minimum    =       -4.977E+00
    Z Minimum    =       -4.641E+00
    X Maximum    =        5.623E+00
    Y Maximum    =        5.823E+00
    Z Maximum    =        4.159E+00

  Basis Set: 6-311G**
    Blend: 6-311G**
    Number of shells: 20
    Number of basis function: 36
    Number of Cartesian functions: 37
    Spherical Harmonics?: true
    Max angular momentum: 2


    Psi4 stopped on: Thursday, 04 November 2021 09:40PM
    Psi4 wall time for execution: 0:00:07.71

*** Psi4 exiting successfully. Buy a developer a beer!
