Generated by Psi4
        SP                        DF-MP2                      6-311G**
Number of atoms                            I               24
Charge                                     I                0
Multiplicity                               I                1
Number of electrons                        I               98
Number of alpha electrons                  I               49
Number of beta electrons                   I               49
Number of basis functions                  I              312
Number of independent functions            I              312
Atomic numbers                             I   N=          24
           7           6           6           6           6           6
           1           6           7           6           6           6
           6           6           1           1           1           8
           1           1           1           1           1           1
Nuclear charges                            R   N=          24
  7.00000000e+00  6.00000000e+00  6.00000000e+00  6.00000000e+00  6.00000000e+00
  6.00000000e+00  1.00000000e+00  6.00000000e+00  7.00000000e+00  6.00000000e+00
  6.00000000e+00  6.00000000e+00  6.00000000e+00  6.00000000e+00  1.00000000e+00
  1.00000000e+00  1.00000000e+00  8.00000000e+00  1.00000000e+00  1.00000000e+00
  1.00000000e+00  1.00000000e+00  1.00000000e+00  1.00000000e+00
Current cartesian coordinates              R   N=          72
  3.92406564e+00 -7.63877371e-01 -1.52504094e-01  1.40898492e+00 -2.29274445e-01
 -4.95845445e-02 -3.29154274e-01 -2.34390646e+00 -5.61309311e-01 -2.45737297e+00
 -1.99582362e+00 -2.10046664e+00  5.78658137e-01  2.13479866e+00  6.49048755e-01
  1.79293250e-01 -4.74339144e+00  4.42970081e-01  5.08878375e+00  7.75485565e-01
 -1.22342112e-02 -1.93849043e+00  3.06415987e+00  1.16326331e+00  7.93986007e-01
  6.31718977e+00  1.44117974e+00  2.32842859e+00  4.27549452e+00  8.89327758e-01
 -1.72989811e+00  5.57844616e+00  1.65175742e+00 -1.44167388e+00 -6.75578471e+00
 -6.04444377e-02 -4.06510768e+00 -4.01920466e+00 -2.60185655e+00 -3.56450698e+00
 -6.40102930e+00 -1.58455245e+00  1.81306605e+00 -4.99693999e+00  1.66280065e+00
 -2.81273912e+00 -1.49209684e-01 -2.92516740e+00  1.49519979e+00  8.06345019e+00
  1.77537233e+00  4.67169343e+00  4.34262554e+00  6.47287411e-01 -1.05182705e+00
 -8.60507339e+00  7.44938339e-01 -5.70396805e+00 -3.74209412e+00 -3.80925150e+00
 -4.82477141e+00 -7.97464340e+00 -1.97774839e+00 -3.66047894e+00  1.96792732e+00
  1.24574616e+00 -3.17036354e+00  6.94084806e+00  2.14958575e+00  4.47198670e+00
 -2.19931372e+00 -1.29153622e+00
Integer atomic weights                     I   N=          24
          14          12          12          12          12          12
           1          12          14          12          12          12
          12          12           1           1           1          16
           1           1           1           1           1           1
Real atomic weights                        R   N=          24
  1.40030740e+01  1.20000000e+01  1.20000000e+01  1.20000000e+01  1.20000000e+01
  1.20000000e+01  1.00782503e+00  1.20000000e+01  1.40030740e+01  1.20000000e+01
  1.20000000e+01  1.20000000e+01  1.20000000e+01  1.20000000e+01  1.00782503e+00
  1.00782503e+00  1.00782503e+00  1.59949146e+01  1.00782503e+00  1.00782503e+00
  1.00782503e+00  1.00782503e+00  1.00782503e+00  1.00782503e+00
Number of primitive shells                 I              298
Number of contracted shells                I              152
Pure/Cartesian d shells                    I                0
Pure/Cartesian f shells                    I                0
Highest angular momentum                   I                2
Largest degree of contraction              I                6
Shell types                                I   N=         152
           0           0           1           0           1           0
           1          -2           0           0           1           0
           1           0           1          -2           0           0
           1           0           1           0           1          -2
           0           0           1           0           1           0
           1          -2           0           0           1           0
           1           0           1          -2           0           0
           1           0           1           0           1          -2
           0           0           0           1           0           0
           1           0           1           0           1          -2
           0           0           1           0           1           0
           1          -2           0           0           1           0
           1           0           1          -2           0           0
           1           0           1           0           1          -2
           0           0           1           0           1           0
           1          -2           0           0           1           0
           1           0           1          -2           0           0
           1           0           1           0           1          -2
           0           0           0           1           0           0
           0           1           0           0           0           1
           0           0           1           0           1           0
           1          -2           0           0           0           1
           0           0           0           1           0           0
           0           1           0           0           0           1
           0           0           0           1           0           0
           0           1
Number of primitives per shell             I   N=         152
           6           3           3           1           1           1
           1           1           6           3           3           1
           1           1           1           1           6           3
           3           1           1           1           1           1
           6           3           3           1           1           1
           1           1           6           3           3           1
           1           1           1           1           6           3
           3           1           1           1           1           1
           3           1           1           1           6           3
           3           1           1           1           1           1
           6           3           3           1           1           1
           1           1           6           3           3           1
           1           1           1           1           6           3
           3           1           1           1           1           1
           6           3           3           1           1           1
           1           1           6           3           3           1
           1           1           1           1           6           3
           3           1           1           1           1           1
           3           1           1           1           3           1
           1           1           3           1           1           1
           6           3           3           1           1           1
           1           1           3           1           1           1
           3           1           1           1           3           1
           1           1           3           1           1           1
           3           1           1           1           3           1
           1           1
Shell to atom map                          I   N=         152
           1           1           1           1           1           1
           1           1           2           2           2           2
           2           2           2           2           3           3
           3           3           3           3           3           3
           4           4           4           4           4           4
           4           4           5           5           5           5
           5           5           5           5           6           6
           6           6           6           6           6           6
           7           7           7           7           8           8
           8           8           8           8           8           8
           9           9           9           9           9           9
           9           9          10          10          10          10
          10          10          10          10          11          11
          11          11          11          11          11          11
          12          12          12          12          12          12
          12          12          13          13          13          13
          13          13          13          13          14          14
          14          14          14          14          14          14
          15          15          15          15          16          16
          16          16          17          17          17          17
          18          18          18          18          18          18
          18          18          19          19          19          19
          20          20          20          20          21          21
          21          21          22          22          22          22
          23          23          23          23          24          24
          24          24
Primitive exponents                        R   N=         298
  6.29348000e+03  9.49044000e+02  2.18776000e+02  6.36916000e+01  1.88282000e+01
  2.72023000e+00  3.06331000e+01  7.02614000e+00  2.11205000e+00  3.06331000e+01
  7.02614000e+00  2.11205000e+00  6.84009000e-01  6.84009000e-01  2.00878000e-01
  2.00878000e-01  9.13000000e-01  4.56324000e+03  6.82024000e+02  1.54973000e+02
  4.44553000e+01  1.30290000e+01  1.82773000e+00  2.09642000e+01  4.80331000e+00
  1.45933000e+00  2.09642000e+01  4.80331000e+00  1.45933000e+00  4.83456000e-01
  4.83456000e-01  1.45585000e-01  1.45585000e-01  6.26000000e-01  4.56324000e+03
  6.82024000e+02  1.54973000e+02  4.44553000e+01  1.30290000e+01  1.82773000e+00
  2.09642000e+01  4.80331000e+00  1.45933000e+00  2.09642000e+01  4.80331000e+00
  1.45933000e+00  4.83456000e-01  4.83456000e-01  1.45585000e-01  1.45585000e-01
  6.26000000e-01  4.56324000e+03  6.82024000e+02  1.54973000e+02  4.44553000e+01
  1.30290000e+01  1.82773000e+00  2.09642000e+01  4.80331000e+00  1.45933000e+00
  2.09642000e+01  4.80331000e+00  1.45933000e+00  4.83456000e-01  4.83456000e-01
  1.45585000e-01  1.45585000e-01  6.26000000e-01  4.56324000e+03  6.82024000e+02
  1.54973000e+02  4.44553000e+01  1.30290000e+01  1.82773000e+00  2.09642000e+01
  4.80331000e+00  1.45933000e+00  2.09642000e+01  4.80331000e+00  1.45933000e+00
  4.83456000e-01  4.83456000e-01  1.45585000e-01  1.45585000e-01  6.26000000e-01
  4.56324000e+03  6.82024000e+02  1.54973000e+02  4.44553000e+01  1.30290000e+01
  1.82773000e+00  2.09642000e+01  4.80331000e+00  1.45933000e+00  2.09642000e+01
  4.80331000e+00  1.45933000e+00  4.83456000e-01  4.83456000e-01  1.45585000e-01
  1.45585000e-01  6.26000000e-01  3.38650000e+01  5.09479000e+00  1.15879000e+00
  3.25840000e-01  1.02741000e-01  7.50000000e-01  4.56324000e+03  6.82024000e+02
  1.54973000e+02  4.44553000e+01  1.30290000e+01  1.82773000e+00  2.09642000e+01
  4.80331000e+00  1.45933000e+00  2.09642000e+01  4.80331000e+00  1.45933000e+00
  4.83456000e-01  4.83456000e-01  1.45585000e-01  1.45585000e-01  6.26000000e-01
  6.29348000e+03  9.49044000e+02  2.18776000e+02  6.36916000e+01  1.88282000e+01
  2.72023000e+00  3.06331000e+01  7.02614000e+00  2.11205000e+00  3.06331000e+01
  7.02614000e+00  2.11205000e+00  6.84009000e-01  6.84009000e-01  2.00878000e-01
  2.00878000e-01  9.13000000e-01  4.56324000e+03  6.82024000e+02  1.54973000e+02
  4.44553000e+01  1.30290000e+01  1.82773000e+00  2.09642000e+01  4.80331000e+00
  1.45933000e+00  2.09642000e+01  4.80331000e+00  1.45933000e+00  4.83456000e-01
  4.83456000e-01  1.45585000e-01  1.45585000e-01  6.26000000e-01  4.56324000e+03
  6.82024000e+02  1.54973000e+02  4.44553000e+01  1.30290000e+01  1.82773000e+00
  2.09642000e+01  4.80331000e+00  1.45933000e+00  2.09642000e+01  4.80331000e+00
  1.45933000e+00  4.83456000e-01  4.83456000e-01  1.45585000e-01  1.45585000e-01
  6.26000000e-01  4.56324000e+03  6.82024000e+02  1.54973000e+02  4.44553000e+01
  1.30290000e+01  1.82773000e+00  2.09642000e+01  4.80331000e+00  1.45933000e+00
  2.09642000e+01  4.80331000e+00  1.45933000e+00  4.83456000e-01  4.83456000e-01
  1.45585000e-01  1.45585000e-01  6.26000000e-01  4.56324000e+03  6.82024000e+02
  1.54973000e+02  4.44553000e+01  1.30290000e+01  1.82773000e+00  2.09642000e+01
  4.80331000e+00  1.45933000e+00  2.09642000e+01  4.80331000e+00  1.45933000e+00
  4.83456000e-01  4.83456000e-01  1.45585000e-01  1.45585000e-01  6.26000000e-01
  4.56324000e+03  6.82024000e+02  1.54973000e+02  4.44553000e+01  1.30290000e+01
  1.82773000e+00  2.09642000e+01  4.80331000e+00  1.45933000e+00  2.09642000e+01
  4.80331000e+00  1.45933000e+00  4.83456000e-01  4.83456000e-01  1.45585000e-01
  1.45585000e-01  6.26000000e-01  3.38650000e+01  5.09479000e+00  1.15879000e+00
  3.25840000e-01  1.02741000e-01  7.50000000e-01  3.38650000e+01  5.09479000e+00
  1.15879000e+00  3.25840000e-01  1.02741000e-01  7.50000000e-01  3.38650000e+01
  5.09479000e+00  1.15879000e+00  3.25840000e-01  1.02741000e-01  7.50000000e-01
  8.58850000e+03  1.29723000e+03  2.99296000e+02  8.73771000e+01  2.56789000e+01
  3.74004000e+00  4.21175000e+01  9.62837000e+00  2.85332000e+00  4.21175000e+01
  9.62837000e+00  2.85332000e+00  9.05661000e-01  9.05661000e-01  2.55611000e-01
  2.55611000e-01  1.29200000e+00  3.38650000e+01  5.09479000e+00  1.15879000e+00
  3.25840000e-01  1.02741000e-01  7.50000000e-01  3.38650000e+01  5.09479000e+00
  1.15879000e+00  3.25840000e-01  1.02741000e-01  7.50000000e-01  3.38650000e+01
  5.09479000e+00  1.15879000e+00  3.25840000e-01  1.02741000e-01  7.50000000e-01
  3.38650000e+01  5.09479000e+00  1.15879000e+00  3.25840000e-01  1.02741000e-01
  7.50000000e-01  3.38650000e+01  5.09479000e+00  1.15879000e+00  3.25840000e-01
  1.02741000e-01  7.50000000e-01  3.38650000e+01  5.09479000e+00  1.15879000e+00
  3.25840000e-01  1.02741000e-01  7.50000000e-01
Contraction coefficients                   R   N=         298
  1.96978815e-03  1.49612859e-02  7.35005308e-02  2.48936766e-01  6.02459433e-01
  2.56201759e-01  1.11906080e-01  9.21666655e-01 -2.56919183e-03  3.83119186e-02
  2.37403116e-01  8.17592398e-01  1.00000000e+00  1.00000000e+00  1.00000000e+00
  1.00000000e+00  1.00000000e+00  1.96665025e-03  1.52306019e-02  7.61269097e-02
  2.60801033e-01  6.16462078e-01  2.21006028e-01  1.14660081e-01  9.19999648e-01
 -3.03068213e-03  4.02486927e-02  2.37593957e-01  8.15853851e-01  1.00000000e+00
  1.00000000e+00  1.00000000e+00  1.00000000e+00  1.00000000e+00  1.96665025e-03
  1.52306019e-02  7.61269097e-02  2.60801033e-01  6.16462078e-01  2.21006028e-01
  1.14660081e-01  9.19999648e-01 -3.03068213e-03  4.02486927e-02  2.37593957e-01
  8.15853851e-01  1.00000000e+00  1.00000000e+00  1.00000000e+00  1.00000000e+00
  1.00000000e+00  1.96665025e-03  1.52306019e-02  7.61269097e-02  2.60801033e-01
  6.16462078e-01  2.21006028e-01  1.14660081e-01  9.19999648e-01 -3.03068213e-03
  4.02486927e-02  2.37593957e-01  8.15853851e-01  1.00000000e+00  1.00000000e+00
  1.00000000e+00  1.00000000e+00  1.00000000e+00  1.96665025e-03  1.52306019e-02
  7.61269097e-02  2.60801033e-01  6.16462078e-01  2.21006028e-01  1.14660081e-01
  9.19999648e-01 -3.03068213e-03  4.02486927e-02  2.37593957e-01  8.15853851e-01
  1.00000000e+00  1.00000000e+00  1.00000000e+00  1.00000000e+00  1.00000000e+00
  1.96665025e-03  1.52306019e-02  7.61269097e-02  2.60801033e-01  6.16462078e-01
  2.21006028e-01  1.14660081e-01  9.19999648e-01 -3.03068213e-03  4.02486927e-02
  2.37593957e-01  8.15853851e-01  1.00000000e+00  1.00000000e+00  1.00000000e+00
  1.00000000e+00  1.00000000e+00  2.54938145e-02  1.90373109e-01  8.52161486e-01
  1.00000000e+00  1.00000000e+00  1.00000000e+00  1.96665025e-03  1.52306019e-02
  7.61269097e-02  2.60801033e-01  6.16462078e-01  2.21006028e-01  1.14660081e-01
  9.19999648e-01 -3.03068213e-03  4.02486927e-02  2.37593957e-01  8.15853851e-01
  1.00000000e+00  1.00000000e+00  1.00000000e+00  1.00000000e+00  1.00000000e+00
  1.96978815e-03  1.49612859e-02  7.35005308e-02  2.48936766e-01  6.02459433e-01
  2.56201759e-01  1.11906080e-01  9.21666655e-01 -2.56919183e-03  3.83119186e-02
  2.37403116e-01  8.17592398e-01  1.00000000e+00  1.00000000e+00  1.00000000e+00
  1.00000000e+00  1.00000000e+00  1.96665025e-03  1.52306019e-02  7.61269097e-02
  2.60801033e-01  6.16462078e-01  2.21006028e-01  1.14660081e-01  9.19999648e-01
 -3.03068213e-03  4.02486927e-02  2.37593957e-01  8.15853851e-01  1.00000000e+00
  1.00000000e+00  1.00000000e+00  1.00000000e+00  1.00000000e+00  1.96665025e-03
  1.52306019e-02  7.61269097e-02  2.60801033e-01  6.16462078e-01  2.21006028e-01
  1.14660081e-01  9.19999648e-01 -3.03068213e-03  4.02486927e-02  2.37593957e-01
  8.15853851e-01  1.00000000e+00  1.00000000e+00  1.00000000e+00  1.00000000e+00
  1.00000000e+00  1.96665025e-03  1.52306019e-02  7.61269097e-02  2.60801033e-01
  6.16462078e-01  2.21006028e-01  1.14660081e-01  9.19999648e-01 -3.03068213e-03
  4.02486927e-02  2.37593957e-01  8.15853851e-01  1.00000000e+00  1.00000000e+00
  1.00000000e+00  1.00000000e+00  1.00000000e+00  1.96665025e-03  1.52306019e-02
  7.61269097e-02  2.60801033e-01  6.16462078e-01  2.21006028e-01  1.14660081e-01
  9.19999648e-01 -3.03068213e-03  4.02486927e-02  2.37593957e-01  8.15853851e-01
  1.00000000e+00  1.00000000e+00  1.00000000e+00  1.00000000e+00  1.00000000e+00
  1.96665025e-03  1.52306019e-02  7.61269097e-02  2.60801033e-01  6.16462078e-01
  2.21006028e-01  1.14660081e-01  9.19999648e-01 -3.03068213e-03  4.02486927e-02
  2.37593957e-01  8.15853851e-01  1.00000000e+00  1.00000000e+00  1.00000000e+00
  1.00000000e+00  1.00000000e+00  2.54938145e-02  1.90373109e-01  8.52161486e-01
  1.00000000e+00  1.00000000e+00  1.00000000e+00  2.54938145e-02  1.90373109e-01
  8.52161486e-01  1.00000000e+00  1.00000000e+00  1.00000000e+00  2.54938145e-02
  1.90373109e-01  8.52161486e-01  1.00000000e+00  1.00000000e+00  1.00000000e+00
  1.89515008e-03  1.43859006e-02  7.07320031e-02  2.40001011e-01  5.94797026e-01
  2.80802012e-01  1.13889012e-01  9.20811101e-01 -3.27447036e-03  3.65113974e-02
  2.37152983e-01  8.19701941e-01  1.00000000e+00  1.00000000e+00  1.00000000e+00
  1.00000000e+00  1.00000000e+00  2.54938145e-02  1.90373109e-01  8.52161486e-01
  1.00000000e+00  1.00000000e+00  1.00000000e+00  2.54938145e-02  1.90373109e-01
  8.52161486e-01  1.00000000e+00  1.00000000e+00  1.00000000e+00  2.54938145e-02
  1.90373109e-01  8.52161486e-01  1.00000000e+00  1.00000000e+00  1.00000000e+00
  2.54938145e-02  1.90373109e-01  8.52161486e-01  1.00000000e+00  1.00000000e+00
  1.00000000e+00  2.54938145e-02  1.90373109e-01  8.52161486e-01  1.00000000e+00
  1.00000000e+00  1.00000000e+00  2.54938145e-02  1.90373109e-01  8.52161486e-01
  1.00000000e+00  1.00000000e+00  1.00000000e+00
Coordinates of each shell                  R   N=         456
  3.92406564e+00 -7.63877371e-01 -1.52504094e-01  3.92406564e+00 -7.63877371e-01
 -1.52504094e-01  3.92406564e+00 -7.63877371e-01 -1.52504094e-01  3.92406564e+00
 -7.63877371e-01 -1.52504094e-01  3.92406564e+00 -7.63877371e-01 -1.52504094e-01
  3.92406564e+00 -7.63877371e-01 -1.52504094e-01  3.92406564e+00 -7.63877371e-01
 -1.52504094e-01  3.92406564e+00 -7.63877371e-01 -1.52504094e-01  1.40898492e+00
 -2.29274445e-01 -4.95845445e-02  1.40898492e+00 -2.29274445e-01 -4.95845445e-02
  1.40898492e+00 -2.29274445e-01 -4.95845445e-02  1.40898492e+00 -2.29274445e-01
 -4.95845445e-02  1.40898492e+00 -2.29274445e-01 -4.95845445e-02  1.40898492e+00
 -2.29274445e-01 -4.95845445e-02  1.40898492e+00 -2.29274445e-01 -4.95845445e-02
  1.40898492e+00 -2.29274445e-01 -4.95845445e-02 -3.29154274e-01 -2.34390646e+00
 -5.61309311e-01 -3.29154274e-01 -2.34390646e+00 -5.61309311e-01 -3.29154274e-01
 -2.34390646e+00 -5.61309311e-01 -3.29154274e-01 -2.34390646e+00 -5.61309311e-01
 -3.29154274e-01 -2.34390646e+00 -5.61309311e-01 -3.29154274e-01 -2.34390646e+00
 -5.61309311e-01 -3.29154274e-01 -2.34390646e+00 -5.61309311e-01 -3.29154274e-01
 -2.34390646e+00 -5.61309311e-01 -2.45737297e+00 -1.99582362e+00 -2.10046664e+00
 -2.45737297e+00 -1.99582362e+00 -2.10046664e+00 -2.45737297e+00 -1.99582362e+00
 -2.10046664e+00 -2.45737297e+00 -1.99582362e+00 -2.10046664e+00 -2.45737297e+00
 -1.99582362e+00 -2.10046664e+00 -2.45737297e+00 -1.99582362e+00 -2.10046664e+00
 -2.45737297e+00 -1.99582362e+00 -2.10046664e+00 -2.45737297e+00 -1.99582362e+00
 -2.10046664e+00  5.78658137e-01  2.13479866e+00  6.49048755e-01  5.78658137e-01
  2.13479866e+00  6.49048755e-01  5.78658137e-01  2.13479866e+00  6.49048755e-01
  5.78658137e-01  2.13479866e+00  6.49048755e-01  5.78658137e-01  2.13479866e+00
  6.49048755e-01  5.78658137e-01  2.13479866e+00  6.49048755e-01  5.78658137e-01
  2.13479866e+00  6.49048755e-01  5.78658137e-01  2.13479866e+00  6.49048755e-01
  1.79293250e-01 -4.74339144e+00  4.42970081e-01  1.79293250e-01 -4.74339144e+00
  4.42970081e-01  1.79293250e-01 -4.74339144e+00  4.42970081e-01  1.79293250e-01
 -4.74339144e+00  4.42970081e-01  1.79293250e-01 -4.74339144e+00  4.42970081e-01
  1.79293250e-01 -4.74339144e+00  4.42970081e-01  1.79293250e-01 -4.74339144e+00
  4.42970081e-01  1.79293250e-01 -4.74339144e+00  4.42970081e-01  5.08878375e+00
  7.75485565e-01 -1.22342112e-02  5.08878375e+00  7.75485565e-01 -1.22342112e-02
  5.08878375e+00  7.75485565e-01 -1.22342112e-02  5.08878375e+00  7.75485565e-01
 -1.22342112e-02 -1.93849043e+00  3.06415987e+00  1.16326331e+00 -1.93849043e+00
  3.06415987e+00  1.16326331e+00 -1.93849043e+00  3.06415987e+00  1.16326331e+00
 -1.93849043e+00  3.06415987e+00  1.16326331e+00 -1.93849043e+00  3.06415987e+00
  1.16326331e+00 -1.93849043e+00  3.06415987e+00  1.16326331e+00 -1.93849043e+00
  3.06415987e+00  1.16326331e+00 -1.93849043e+00  3.06415987e+00  1.16326331e+00
  7.93986007e-01  6.31718977e+00  1.44117974e+00  7.93986007e-01  6.31718977e+00
  1.44117974e+00  7.93986007e-01  6.31718977e+00  1.44117974e+00  7.93986007e-01
  6.31718977e+00  1.44117974e+00  7.93986007e-01  6.31718977e+00  1.44117974e+00
  7.93986007e-01  6.31718977e+00  1.44117974e+00  7.93986007e-01  6.31718977e+00
  1.44117974e+00  7.93986007e-01  6.31718977e+00  1.44117974e+00  2.32842859e+00
  4.27549452e+00  8.89327758e-01  2.32842859e+00  4.27549452e+00  8.89327758e-01
  2.32842859e+00  4.27549452e+00  8.89327758e-01  2.32842859e+00  4.27549452e+00
  8.89327758e-01  2.32842859e+00  4.27549452e+00  8.89327758e-01  2.32842859e+00
  4.27549452e+00  8.89327758e-01  2.32842859e+00  4.27549452e+00  8.89327758e-01
  2.32842859e+00  4.27549452e+00  8.89327758e-01 -1.72989811e+00  5.57844616e+00
  1.65175742e+00 -1.72989811e+00  5.57844616e+00  1.65175742e+00 -1.72989811e+00
  5.57844616e+00  1.65175742e+00 -1.72989811e+00  5.57844616e+00  1.65175742e+00
 -1.72989811e+00  5.57844616e+00  1.65175742e+00 -1.72989811e+00  5.57844616e+00
  1.65175742e+00 -1.72989811e+00  5.57844616e+00  1.65175742e+00 -1.72989811e+00
  5.57844616e+00  1.65175742e+00 -1.44167388e+00 -6.75578471e+00 -6.04444377e-02
 -1.44167388e+00 -6.75578471e+00 -6.04444377e-02 -1.44167388e+00 -6.75578471e+00
 -6.04444377e-02 -1.44167388e+00 -6.75578471e+00 -6.04444377e-02 -1.44167388e+00
 -6.75578471e+00 -6.04444377e-02 -1.44167388e+00 -6.75578471e+00 -6.04444377e-02
 -1.44167388e+00 -6.75578471e+00 -6.04444377e-02 -1.44167388e+00 -6.75578471e+00
 -6.04444377e-02 -4.06510768e+00 -4.01920466e+00 -2.60185655e+00 -4.06510768e+00
 -4.01920466e+00 -2.60185655e+00 -4.06510768e+00 -4.01920466e+00 -2.60185655e+00
 -4.06510768e+00 -4.01920466e+00 -2.60185655e+00 -4.06510768e+00 -4.01920466e+00
 -2.60185655e+00 -4.06510768e+00 -4.01920466e+00 -2.60185655e+00 -4.06510768e+00
 -4.01920466e+00 -2.60185655e+00 -4.06510768e+00 -4.01920466e+00 -2.60185655e+00
 -3.56450698e+00 -6.40102930e+00 -1.58455245e+00 -3.56450698e+00 -6.40102930e+00
 -1.58455245e+00 -3.56450698e+00 -6.40102930e+00 -1.58455245e+00 -3.56450698e+00
 -6.40102930e+00 -1.58455245e+00 -3.56450698e+00 -6.40102930e+00 -1.58455245e+00
 -3.56450698e+00 -6.40102930e+00 -1.58455245e+00 -3.56450698e+00 -6.40102930e+00
 -1.58455245e+00 -3.56450698e+00 -6.40102930e+00 -1.58455245e+00  1.81306605e+00
 -4.99693999e+00  1.66280065e+00  1.81306605e+00 -4.99693999e+00  1.66280065e+00
  1.81306605e+00 -4.99693999e+00  1.66280065e+00  1.81306605e+00 -4.99693999e+00
  1.66280065e+00 -2.81273912e+00 -1.49209684e-01 -2.92516740e+00 -2.81273912e+00
 -1.49209684e-01 -2.92516740e+00 -2.81273912e+00 -1.49209684e-01 -2.92516740e+00
 -2.81273912e+00 -1.49209684e-01 -2.92516740e+00  1.49519979e+00  8.06345019e+00
  1.77537233e+00  1.49519979e+00  8.06345019e+00  1.77537233e+00  1.49519979e+00
  8.06345019e+00  1.77537233e+00  1.49519979e+00  8.06345019e+00  1.77537233e+00
  4.67169343e+00  4.34262554e+00  6.47287411e-01  4.67169343e+00  4.34262554e+00
  6.47287411e-01  4.67169343e+00  4.34262554e+00  6.47287411e-01  4.67169343e+00
  4.34262554e+00  6.47287411e-01  4.67169343e+00  4.34262554e+00  6.47287411e-01
  4.67169343e+00  4.34262554e+00  6.47287411e-01  4.67169343e+00  4.34262554e+00
  6.47287411e-01  4.67169343e+00  4.34262554e+00  6.47287411e-01 -1.05182705e+00
 -8.60507339e+00  7.44938339e-01 -1.05182705e+00 -8.60507339e+00  7.44938339e-01
 -1.05182705e+00 -8.60507339e+00  7.44938339e-01 -1.05182705e+00 -8.60507339e+00
  7.44938339e-01 -5.70396805e+00 -3.74209412e+00 -3.80925150e+00 -5.70396805e+00
 -3.74209412e+00 -3.80925150e+00 -5.70396805e+00 -3.74209412e+00 -3.80925150e+00
 -5.70396805e+00 -3.74209412e+00 -3.80925150e+00 -4.82477141e+00 -7.97464340e+00
 -1.97774839e+00 -4.82477141e+00 -7.97464340e+00 -1.97774839e+00 -4.82477141e+00
 -7.97464340e+00 -1.97774839e+00 -4.82477141e+00 -7.97464340e+00 -1.97774839e+00
 -3.66047894e+00  1.96792732e+00  1.24574616e+00 -3.66047894e+00  1.96792732e+00
  1.24574616e+00 -3.66047894e+00  1.96792732e+00  1.24574616e+00 -3.66047894e+00
  1.96792732e+00  1.24574616e+00 -3.17036354e+00  6.94084806e+00  2.14958575e+00
 -3.17036354e+00  6.94084806e+00  2.14958575e+00 -3.17036354e+00  6.94084806e+00
  2.14958575e+00 -3.17036354e+00  6.94084806e+00  2.14958575e+00  4.47198670e+00
 -2.19931372e+00 -1.29153622e+00  4.47198670e+00 -2.19931372e+00 -1.29153622e+00
  4.47198670e+00 -2.19931372e+00 -1.29153622e+00  4.47198670e+00 -2.19931372e+00
 -1.29153622e+00
Total Energy                               R     -6.083200964816268e+02
Alpha Orbital Energies                     R   N=         312
 -2.04969346e+01 -1.55834058e+01 -1.55721645e+01 -1.13359972e+01 -1.13154609e+01
 -1.12630026e+01 -1.12611275e+01 -1.12542341e+01 -1.12537611e+01 -1.12532037e+01
 -1.12504939e+01 -1.12501294e+01 -1.12203862e+01 -1.12143745e+01 -1.35513507e+00
 -1.25537470e+00 -1.24489175e+00 -1.16577407e+00 -1.07019011e+00 -1.03749704e+00
 -1.03040990e+00 -9.71763934e-01 -8.96384645e-01 -8.45797790e-01 -8.28749031e-01
 -7.90366242e-01 -7.60961576e-01 -7.17590662e-01 -6.93499469e-01 -6.82593188e-01
 -6.60693567e-01 -6.41975298e-01 -6.26100758e-01 -6.03882640e-01 -5.91858613e-01
 -5.89380842e-01 -5.84556583e-01 -5.76253385e-01 -5.50648635e-01 -5.25706873e-01
 -5.15893481e-01 -5.08658842e-01 -4.91938281e-01 -4.57586092e-01 -4.06459823e-01
 -3.70622652e-01 -3.51938480e-01 -3.50855559e-01 -2.65017614e-01  7.61882956e-02
  1.15177557e-01  1.43588735e-01  1.48239346e-01  1.64521215e-01  1.70906366e-01
  1.81371164e-01  1.95722147e-01  2.02534038e-01  2.10018609e-01  2.25631359e-01
  2.33046095e-01  2.44311449e-01  2.67418832e-01  3.08265517e-01  3.46667034e-01
  3.65977864e-01  3.91086623e-01  3.96459057e-01  4.11712205e-01  4.17755268e-01
  4.34214784e-01  4.40328547e-01  4.41058034e-01  4.57262511e-01  4.87548488e-01
  4.97789883e-01  5.16389068e-01  5.25892020e-01  5.42547069e-01  5.64492492e-01
  5.67574275e-01  5.74487868e-01  5.86234503e-01  5.90602994e-01  5.94499695e-01
  6.08134911e-01  6.10778343e-01  6.16284850e-01  6.22399673e-01  6.24989984e-01
  6.34233835e-01  6.37659182e-01  6.47110133e-01  6.70174598e-01  6.76998801e-01
  6.95954060e-01  7.02230969e-01  7.33668007e-01  7.41013580e-01  7.54847880e-01
  7.62497058e-01  7.70346890e-01  7.82439654e-01  7.87811906e-01  7.93362405e-01
  8.04695777e-01  8.07086176e-01  8.17867108e-01  8.20885821e-01  8.34386259e-01
  8.41661693e-01  8.49218033e-01  8.67495063e-01  8.76186551e-01  8.97840287e-01
  9.10673030e-01  9.14644121e-01  9.25648852e-01  9.38686613e-01  9.57919285e-01
  9.72287736e-01  9.84979497e-01  9.90431807e-01  1.01154151e+00  1.02123759e+00
  1.03374897e+00  1.05334367e+00  1.06201103e+00  1.08049940e+00  1.08616411e+00
  1.09811206e+00  1.13232643e+00  1.16275045e+00  1.17729225e+00  1.18910251e+00
  1.20490303e+00  1.21353877e+00  1.21794230e+00  1.23512837e+00  1.24828542e+00
  1.28046301e+00  1.30495709e+00  1.31563698e+00  1.32008457e+00  1.33298397e+00
  1.34945739e+00  1.37145317e+00  1.37930798e+00  1.40205665e+00  1.42279438e+00
  1.42938379e+00  1.43494923e+00  1.48428299e+00  1.49216652e+00  1.51983234e+00
  1.56613047e+00  1.59233567e+00  1.62937673e+00  1.67361567e+00  1.68682889e+00
  1.71170298e+00  1.72630646e+00  1.74397050e+00  1.75162406e+00  1.78467441e+00
  1.79368404e+00  1.79717391e+00  1.80745535e+00  1.81112562e+00  1.84435346e+00
  1.84548086e+00  1.85068199e+00  1.86286476e+00  1.88586025e+00  1.89922149e+00
  1.90197487e+00  1.91889138e+00  1.96073474e+00  1.96595334e+00  1.98581469e+00
  1.99726883e+00  2.00604199e+00  2.02174017e+00  2.02874685e+00  2.04063870e+00
  2.05090547e+00  2.05829295e+00  2.07896498e+00  2.09877819e+00  2.11590404e+00