Generated by Psi4
        SP                           RHF                         MINIX
Number of atoms                            I               34
Charge                                     I                0
Multiplicity                               I                1
Number of electrons                        I              138
Number of alpha electrons                  I               69
Number of beta electrons                   I               69
Number of basis functions                  I              114
Number of independent functions            I              114
Atomic numbers                             I   N=          34
           7           6           6           6           6           6
           6           6           6           6           6           6
           1           6           7           6           6           6
           6           6           1           1           1           1
           1           1           1           8           1           1
           1           1           1           1
Nuclear charges                            R   N=          34
  7.00000000e+00  6.00000000e+00  6.00000000e+00  6.00000000e+00  6.00000000e+00
  6.00000000e+00  6.00000000e+00  6.00000000e+00  6.00000000e+00  6.00000000e+00
  6.00000000e+00  6.00000000e+00  1.00000000e+00  6.00000000e+00  7.00000000e+00
  6.00000000e+00  6.00000000e+00  6.00000000e+00  6.00000000e+00  6.00000000e+00
  1.00000000e+00  1.00000000e+00  1.00000000e+00  1.00000000e+00  1.00000000e+00
  1.00000000e+00  1.00000000e+00  8.00000000e+00  1.00000000e+00  1.00000000e+00
  1.00000000e+00  1.00000000e+00  1.00000000e+00  1.00000000e+00
Current cartesian coordinates              R   N=         102
  1.41536583e+00 -3.57669532e-01 -1.74707069e+00 -9.70413401e-01  2.01500428e-01
 -8.02207627e-01 -2.73258301e+00 -1.93766955e+00 -1.19092429e+00 -4.29519755e+00
 -1.99530619e+00 -3.33236194e+00 -1.79679064e+00  2.39074814e+00  2.30716674e-01
 -2.83425028e+00 -3.93964540e+00  5.39686895e-01  3.64373088e+00 -5.24910294e-01
 -2.74785065e-01  3.62729026e+00 -8.70352230e-01  2.33870617e+00  5.97943237e+00
 -6.25821670e-01 -1.50178424e+00  5.88626887e+00 -1.18045629e+00  3.69458466e+00
  8.23841098e+00 -9.39327234e-01 -1.48173415e-01  8.24804858e+00 -1.20048738e+00
  2.48308124e+00  1.77101229e+00  5.96075243e-01 -3.38187276e+00 -4.29085118e+00
  3.07445106e+00  1.31258488e+00 -1.70835145e+00  6.54606692e+00  1.56372948e+00
 -1.73704867e-01  4.74912635e+00  4.42554972e-01 -4.09828808e+00  5.60082591e+00
  2.06828636e+00 -4.50911454e+00 -5.94256612e+00  1.59851944e-01 -5.96779414e+00
 -4.00068356e+00 -3.70596079e+00 -6.07834312e+00 -5.96732154e+00 -1.95645234e+00
 -1.61197542e+00 -3.95041684e+00  2.18847294e+00 -4.22282104e+00 -4.76155360e-01
 -4.71337379e+00  1.85737277e+00 -8.80556751e-01  3.37654375e+00  6.07580840e+00
 -4.71997963e-01 -3.54854660e+00  5.71487071e+00 -1.35317726e+00  5.73152045e+00
  9.96297504e+00 -1.04723060e+00 -1.25290731e+00 -1.10874135e+00  8.32127564e+00
  1.91106114e+00  1.98946463e+00  5.11932370e+00 -2.38124378e-01 -4.59112866e+00
 -7.48458264e+00  1.51402969e+00 -7.18628955e+00 -4.02978534e+00 -5.35947115e+00
 -7.38716743e+00 -7.52483381e+00 -2.24520250e+00  9.90949579e+00 -1.39815274e+00
  3.48501403e+00 -5.85346571e+00  1.91907250e+00  1.47510133e+00 -5.54147193e+00
  6.62278980e+00  2.89069517e+00
Integer atomic weights                     I   N=          34
          14          12          12          12          12          12
          12          12          12          12          12          12
           1          12          14          12          12          12
          12          12           1           1           1           1
           1           1           1          16           1           1
           1           1           1           1
Real atomic weights                        R   N=          34
  1.40030740e+01  1.20000000e+01  1.20000000e+01  1.20000000e+01  1.20000000e+01
  1.20000000e+01  1.20000000e+01  1.20000000e+01  1.20000000e+01  1.20000000e+01
  1.20000000e+01  1.20000000e+01  1.00782503e+00  1.20000000e+01  1.40030740e+01
  1.20000000e+01  1.20000000e+01  1.20000000e+01  1.20000000e+01  1.20000000e+01
  1.00782503e+00  1.00782503e+00  1.00782503e+00  1.00782503e+00  1.00782503e+00
  1.00782503e+00  1.00782503e+00  1.59949146e+01  1.00782503e+00  1.00782503e+00
  1.00782503e+00  1.00782503e+00  1.00782503e+00  1.00782503e+00
Number of primitive shells                 I              222
Number of contracted shells                I               74
Pure/Cartesian d shells                    I                0
Pure/Cartesian f shells                    I                0
Highest angular momentum                   I                1
Largest degree of contraction              I                3
Shell types                                I   N=          74
           0           0           1           0           0           1
           0           0           1           0           0           1
           0           0           1           0           0           1
           0           0           1           0           0           1
           0           0           1           0           0           1
           0           0           1           0           0           1
           0           0           0           1           0           0
           1           0           0           1           0           0
           1           0           0           1           0           0
           1           0           0           1           0           0
           0           0           0           0           0           0
           0           1           0           0           0           0
           0           0
Number of primitives per shell             I   N=          74
           3           3           3           3           3           3
           3           3           3           3           3           3
           3           3           3           3           3           3
           3           3           3           3           3           3
           3           3           3           3           3           3
           3           3           3           3           3           3
           3           3           3           3           3           3
           3           3           3           3           3           3
           3           3           3           3           3           3
           3           3           3           3           3           3
           3           3           3           3           3           3
           3           3           3           3           3           3
           3           3
Shell to atom map                          I   N=          74
           1           1           1           2           2           2
           3           3           3           4           4           4
           5           5           5           6           6           6
           7           7           7           8           8           8
           9           9           9          10          10          10
          11          11          11          12          12          12
          13          14          14          14          15          15
          15          16          16          16          17          17
          17          18          18          18          19          19
          19          20          20          20          21          22
          23          24          25          26          27          28
          28          28          29          30          31          32
          33          34
Primitive exponents                        R   N=         222
  2.18364490e+02  3.25988900e+01  6.91739000e+00  8.91942600e+00  7.06141000e-01
  2.25054000e-01  6.55627200e+00  1.34907900e+00  3.12209000e-01  1.53172260e+02
  2.30730300e+01  4.92329000e+00  6.61661200e+00  5.25856000e-01  1.69958000e-01
  4.91292000e+00  9.97616000e-01  2.32685000e-01  1.53172260e+02  2.30730300e+01
  4.92329000e+00  6.61661200e+00  5.25856000e-01  1.69958000e-01  4.91292000e+00
  9.97616000e-01  2.32685000e-01  1.53172260e+02  2.30730300e+01  4.92329000e+00
  6.61661200e+00  5.25856000e-01  1.69958000e-01  4.91292000e+00  9.97616000e-01
  2.32685000e-01  1.53172260e+02  2.30730300e+01  4.92329000e+00  6.61661200e+00
  5.25856000e-01  1.69958000e-01  4.91292000e+00  9.97616000e-01  2.32685000e-01
  1.53172260e+02  2.30730300e+01  4.92329000e+00  6.61661200e+00  5.25856000e-01
  1.69958000e-01  4.91292000e+00  9.97616000e-01  2.32685000e-01  1.53172260e+02
  2.30730300e+01  4.92329000e+00  6.61661200e+00  5.25856000e-01  1.69958000e-01
  4.91292000e+00  9.97616000e-01  2.32685000e-01  1.53172260e+02  2.30730300e+01
  4.92329000e+00  6.61661200e+00  5.25856000e-01  1.69958000e-01  4.91292000e+00
  9.97616000e-01  2.32685000e-01  1.53172260e+02  2.30730300e+01  4.92329000e+00
  6.61661200e+00  5.25856000e-01  1.69958000e-01  4.91292000e+00  9.97616000e-01
  2.32685000e-01  1.53172260e+02  2.30730300e+01  4.92329000e+00  6.61661200e+00
  5.25856000e-01  1.69958000e-01  4.91292000e+00  9.97616000e-01  2.32685000e-01
  1.53172260e+02  2.30730300e+01  4.92329000e+00  6.61661200e+00  5.25856000e-01
  1.69958000e-01  4.91292000e+00  9.97616000e-01  2.32685000e-01  1.53172260e+02
  2.30730300e+01  4.92329000e+00  6.61661200e+00  5.25856000e-01  1.69958000e-01
  4.91292000e+00  9.97616000e-01  2.32685000e-01  7.03406300e+00  1.06475600e+00
  2.36559000e-01  1.53172260e+02  2.30730300e+01  4.92329000e+00  6.61661200e+00
  5.25856000e-01  1.69958000e-01  4.91292000e+00  9.97616000e-01  2.32685000e-01
  2.18364490e+02  3.25988900e+01  6.91739000e+00  8.91942600e+00  7.06141000e-01
  2.25054000e-01  6.55627200e+00  1.34907900e+00  3.12209000e-01  1.53172260e+02
  2.30730300e+01  4.92329000e+00  6.61661200e+00  5.25856000e-01  1.69958000e-01
  4.91292000e+00  9.97616000e-01  2.32685000e-01  1.53172260e+02  2.30730300e+01
  4.92329000e+00  6.61661200e+00  5.25856000e-01  1.69958000e-01  4.91292000e+00
  9.97616000e-01  2.32685000e-01  1.53172260e+02  2.30730300e+01  4.92329000e+00
  6.61661200e+00  5.25856000e-01  1.69958000e-01  4.91292000e+00  9.97616000e-01
  2.32685000e-01  1.53172260e+02  2.30730300e+01  4.92329000e+00  6.61661200e+00
  5.25856000e-01  1.69958000e-01  4.91292000e+00  9.97616000e-01  2.32685000e-01
  1.53172260e+02  2.30730300e+01  4.92329000e+00  6.61661200e+00  5.25856000e-01
  1.69958000e-01  4.91292000e+00  9.97616000e-01  2.32685000e-01  7.03406300e+00
  1.06475600e+00  2.36559000e-01  7.03406300e+00  1.06475600e+00  2.36559000e-01
  7.03406300e+00  1.06475600e+00  2.36559000e-01  7.03406300e+00  1.06475600e+00
  2.36559000e-01  7.03406300e+00  1.06475600e+00  2.36559000e-01  7.03406300e+00
  1.06475600e+00  2.36559000e-01  7.03406300e+00  1.06475600e+00  2.36559000e-01
  2.81866580e+02  4.24160000e+01  9.09562000e+00  1.17893260e+01  9.12894000e-01
  2.86661000e-01  8.27414000e+00  1.71546300e+00  3.83013000e-01  7.03406300e+00
  1.06475600e+00  2.36559000e-01  7.03406300e+00  1.06475600e+00  2.36559000e-01
  7.03406300e+00  1.06475600e+00  2.36559000e-01  7.03406300e+00  1.06475600e+00
  2.36559000e-01  7.03406300e+00  1.06475600e+00  2.36559000e-01  7.03406300e+00
  1.06475600e+00  2.36559000e-01
Contraction coefficients                   R   N=         222
  6.78700100e-02  3.90202057e-01  6.70083099e-01 -8.08899713e-02  5.67201799e-01
  5.11091818e-01  1.15918975e-01  4.69957900e-01  6.18447868e-01  7.07400095e-02
  3.95380053e-01  6.63311089e-01 -8.13799884e-02  5.74852918e-01  5.02412928e-01
  1.09930928e-01  4.62712695e-01  6.27513586e-01  7.07400095e-02  3.95380053e-01
  6.63311089e-01 -8.13799884e-02  5.74852918e-01  5.02412928e-01  1.09930928e-01
  4.62712695e-01  6.27513586e-01  7.07400095e-02  3.95380053e-01  6.63311089e-01
 -8.13799884e-02  5.74852918e-01  5.02412928e-01  1.09930928e-01  4.62712695e-01
  6.27513586e-01  7.07400095e-02  3.95380053e-01  6.63311089e-01 -8.13799884e-02
  5.74852918e-01  5.02412928e-01  1.09930928e-01  4.62712695e-01  6.27513586e-01
  7.07400095e-02  3.95380053e-01  6.63311089e-01 -8.13799884e-02  5.74852918e-01
  5.02412928e-01  1.09930928e-01  4.62712695e-01  6.27513586e-01  7.07400095e-02
  3.95380053e-01  6.63311089e-01 -8.13799884e-02  5.74852918e-01  5.02412928e-01
  1.09930928e-01  4.62712695e-01  6.27513586e-01  7.07400095e-02  3.95380053e-01
  6.63311089e-01 -8.13799884e-02  5.74852918e-01  5.02412928e-01  1.09930928e-01
  4.62712695e-01  6.27513586e-01  7.07400095e-02  3.95380053e-01  6.63311089e-01
 -8.13799884e-02  5.74852918e-01  5.02412928e-01  1.09930928e-01  4.62712695e-01
  6.27513586e-01  7.07400095e-02  3.95380053e-01  6.63311089e-01 -8.13799884e-02
  5.74852918e-01  5.02412928e-01  1.09930928e-01  4.62712695e-01  6.27513586e-01
  7.07400095e-02  3.95380053e-01  6.63311089e-01 -8.13799884e-02  5.74852918e-01
  5.02412928e-01  1.09930928e-01  4.62712695e-01  6.27513586e-01  7.07400095e-02
  3.95380053e-01  6.63311089e-01 -8.13799884e-02  5.74852918e-01  5.02412928e-01
  1.09930928e-01  4.62712695e-01  6.27513586e-01  7.04520124e-02  4.07826072e-01
  6.47752114e-01  7.07400095e-02  3.95380053e-01  6.63311089e-01 -8.13799884e-02
  5.74852918e-01  5.02412928e-01  1.09930928e-01  4.62712695e-01  6.27513586e-01
  6.78700100e-02  3.90202057e-01  6.70083099e-01 -8.08899713e-02  5.67201799e-01
  5.11091818e-01  1.15918975e-01  4.69957900e-01  6.18447868e-01  7.07400095e-02
  3.95380053e-01  6.63311089e-01 -8.13799884e-02  5.74852918e-01  5.02412928e-01
  1.09930928e-01  4.62712695e-01  6.27513586e-01  7.07400095e-02  3.95380053e-01
  6.63311089e-01 -8.13799884e-02  5.74852918e-01  5.02412928e-01  1.09930928e-01
  4.62712695e-01  6.27513586e-01  7.07400095e-02  3.95380053e-01  6.63311089e-01
 -8.13799884e-02  5.74852918e-01  5.02412928e-01  1.09930928e-01  4.62712695e-01
  6.27513586e-01  7.07400095e-02  3.95380053e-01  6.63311089e-01 -8.13799884e-02
  5.74852918e-01  5.02412928e-01  1.09930928e-01  4.62712695e-01  6.27513586e-01
  7.07400095e-02  3.95380053e-01  6.63311089e-01 -8.13799884e-02  5.74852918e-01
  5.02412928e-01  1.09930928e-01  4.62712695e-01  6.27513586e-01  7.04520124e-02
  4.07826072e-01  6.47752114e-01  7.04520124e-02  4.07826072e-01  6.47752114e-01
  7.04520124e-02  4.07826072e-01  6.47752114e-01  7.04520124e-02  4.07826072e-01
  6.47752114e-01  7.04520124e-02  4.07826072e-01  6.47752114e-01  7.04520124e-02
  4.07826072e-01  6.47752114e-01  7.04520124e-02  4.07826072e-01  6.47752114e-01
  6.90600291e-02  3.93159166e-01  6.65669281e-01 -8.08199297e-02  5.82089494e-01
  4.97159568e-01  1.24271003e-01  4.76594010e-01  6.13044013e-01  7.04520124e-02
  4.07826072e-01  6.47752114e-01  7.04520124e-02  4.07826072e-01  6.47752114e-01
  7.04520124e-02  4.07826072e-01  6.47752114e-01  7.04520124e-02  4.07826072e-01
  6.47752114e-01  7.04520124e-02  4.07826072e-01  6.47752114e-01  7.04520124e-02
  4.07826072e-01  6.47752114e-01
Coordinates of each shell                  R   N=         222
  1.41536583e+00 -3.57669532e-01 -1.74707069e+00  1.41536583e+00 -3.57669532e-01
 -1.74707069e+00  1.41536583e+00 -3.57669532e-01 -1.74707069e+00 -9.70413401e-01
  2.01500428e-01 -8.02207627e-01 -9.70413401e-01  2.01500428e-01 -8.02207627e-01
 -9.70413401e-01  2.01500428e-01 -8.02207627e-01 -2.73258301e+00 -1.93766955e+00
 -1.19092429e+00 -2.73258301e+00 -1.93766955e+00 -1.19092429e+00 -2.73258301e+00
 -1.93766955e+00 -1.19092429e+00 -4.29519755e+00 -1.99530619e+00 -3.33236194e+00
 -4.29519755e+00 -1.99530619e+00 -3.33236194e+00 -4.29519755e+00 -1.99530619e+00
 -3.33236194e+00 -1.79679064e+00  2.39074814e+00  2.30716674e-01 -1.79679064e+00
  2.39074814e+00  2.30716674e-01 -1.79679064e+00  2.39074814e+00  2.30716674e-01
 -2.83425028e+00 -3.93964540e+00  5.39686895e-01 -2.83425028e+00 -3.93964540e+00
  5.39686895e-01 -2.83425028e+00 -3.93964540e+00  5.39686895e-01  3.64373088e+00
 -5.24910294e-01 -2.74785065e-01  3.64373088e+00 -5.24910294e-01 -2.74785065e-01
  3.64373088e+00 -5.24910294e-01 -2.74785065e-01  3.62729026e+00 -8.70352230e-01
  2.33870617e+00  3.62729026e+00 -8.70352230e-01  2.33870617e+00  3.62729026e+00
 -8.70352230e-01  2.33870617e+00  5.97943237e+00 -6.25821670e-01 -1.50178424e+00
  5.97943237e+00 -6.25821670e-01 -1.50178424e+00  5.97943237e+00 -6.25821670e-01
 -1.50178424e+00  5.88626887e+00 -1.18045629e+00  3.69458466e+00  5.88626887e+00
 -1.18045629e+00  3.69458466e+00  5.88626887e+00 -1.18045629e+00  3.69458466e+00
  8.23841098e+00 -9.39327234e-01 -1.48173415e-01  8.23841098e+00 -9.39327234e-01
 -1.48173415e-01  8.23841098e+00 -9.39327234e-01 -1.48173415e-01  8.24804858e+00
 -1.20048738e+00  2.48308124e+00  8.24804858e+00 -1.20048738e+00  2.48308124e+00
  8.24804858e+00 -1.20048738e+00  2.48308124e+00  1.77101229e+00  5.96075243e-01
 -3.38187276e+00 -4.29085118e+00  3.07445106e+00  1.31258488e+00 -4.29085118e+00
  3.07445106e+00  1.31258488e+00 -4.29085118e+00  3.07445106e+00  1.31258488e+00
 -1.70835145e+00  6.54606692e+00  1.56372948e+00 -1.70835145e+00  6.54606692e+00
  1.56372948e+00 -1.70835145e+00  6.54606692e+00  1.56372948e+00 -1.73704867e-01
  4.74912635e+00  4.42554972e-01 -1.73704867e-01  4.74912635e+00  4.42554972e-01
 -1.73704867e-01  4.74912635e+00  4.42554972e-01 -4.09828808e+00  5.60082591e+00
  2.06828636e+00 -4.09828808e+00  5.60082591e+00  2.06828636e+00 -4.09828808e+00
  5.60082591e+00  2.06828636e+00 -4.50911454e+00 -5.94256612e+00  1.59851944e-01
 -4.50911454e+00 -5.94256612e+00  1.59851944e-01 -4.50911454e+00 -5.94256612e+00
  1.59851944e-01 -5.96779414e+00 -4.00068356e+00 -3.70596079e+00 -5.96779414e+00
 -4.00068356e+00 -3.70596079e+00 -5.96779414e+00 -4.00068356e+00 -3.70596079e+00
 -6.07834312e+00 -5.96732154e+00 -1.95645234e+00 -6.07834312e+00 -5.96732154e+00
 -1.95645234e+00 -6.07834312e+00 -5.96732154e+00 -1.95645234e+00 -1.61197542e+00
 -3.95041684e+00  2.18847294e+00 -4.22282104e+00 -4.76155360e-01 -4.71337379e+00
  1.85737277e+00 -8.80556751e-01  3.37654375e+00  6.07580840e+00 -4.71997963e-01
 -3.54854660e+00  5.71487071e+00 -1.35317726e+00  5.73152045e+00  9.96297504e+00
 -1.04723060e+00 -1.25290731e+00 -1.10874135e+00  8.32127564e+00  1.91106114e+00
  1.98946463e+00  5.11932370e+00 -2.38124378e-01  1.98946463e+00  5.11932370e+00
 -2.38124378e-01  1.98946463e+00  5.11932370e+00 -2.38124378e-01 -4.59112866e+00
 -7.48458264e+00  1.51402969e+00 -7.18628955e+00 -4.02978534e+00 -5.35947115e+00
 -7.38716743e+00 -7.52483381e+00 -2.24520250e+00  9.90949579e+00 -1.39815274e+00
  3.48501403e+00 -5.85346571e+00  1.91907250e+00  1.47510133e+00 -5.54147193e+00
  6.62278980e+00  2.89069517e+00
Total Energy                               R     -8.298597348933606e+02
Alpha Orbital Energies                     R   N=         114
 -2.03235325e+01 -1.54708883e+01 -1.54185849e+01 -1.13367060e+01 -1.12458946e+01
 -1.12427371e+01 -1.12312458e+01 -1.11985589e+01 -1.11931792e+01 -1.11782928e+01
 -1.11779380e+01 -1.11766141e+01 -1.11763852e+01 -1.11748966e+01 -1.11686896e+01
 -1.11684959e+01 -1.11633745e+01 -1.11563642e+01 -1.11546636e+01 -1.11542086e+01
 -1.40033301e+00 -1.27706626e+00 -1.25233749e+00 -1.16481013e+00 -1.13641123e+00
 -1.08574873e+00 -1.03690053e+00 -1.02002283e+00 -1.00438985e+00 -1.00176005e+00
 -9.80407202e-01 -9.03000903e-01 -8.29040854e-01 -8.26041262e-01 -8.18414390e-01
 -8.14195986e-01 -8.02773793e-01 -7.46241007e-01 -7.18170267e-01 -7.05531145e-01
 -6.91033763e-01 -6.68425056e-01 -6.56569958e-01 -6.38125845e-01 -6.27489999e-01
 -6.19039670e-01 -6.10919670e-01 -6.01929714e-01 -5.98081677e-01 -5.89900316e-01
 -5.86959509e-01 -5.79808143e-01 -5.68142324e-01 -5.54892222e-01 -5.28072829e-01
 -5.18775712e-01 -5.00907390e-01 -4.93402583e-01 -4.89906733e-01 -4.73527078e-01
 -4.68251288e-01 -4.37707069e-01 -4.22517816e-01 -4.01262847e-01 -3.49864896e-01
 -3.45885364e-01 -3.36069191e-01 -2.96712699e-01 -2.90012914e-01  9.84757900e-02
  1.81094922e-01  1.84999852e-01  1.95371268e-01  2.06515129e-01  2.54979130e-01
  3.36482796e-01  4.17795182e-01  4.35885960e-01  4.93464624e-01  5.23879861e-01
  5.42704995e-01  5.68134570e-01  5.84819679e-01  6.09520050e-01  6.12470115e-01
  6.19913521e-01  6.38956397e-01  6.50230894e-01  6.56961571e-01  6.72598425e-01
  6.79531386e-01  6.83119541e-01  6.85615733e-01  6.96147238e-01  7.01516619e-01
  7.21653286e-01  7.69763233e-01  7.86943092e-01  8.34178202e-01  8.62654536e-01
  8.65982836e-01  8.71956870e-01  8.75338115e-01  8.81396553e-01  8.86613258e-01
  8.96397582e-01  9.13033008e-01  9.30695227e-01  1.02427666e+00  1.04797221e+00
  1.06070614e+00  1.08948763e+00  1.11332806e+00  1.13041067e+00
Alpha MO coefficients                      R   N=       12996
  3.51164251e-06 -7.83323351e-05 -3.74091049e-05 -2.77050698e-05 -1.85897144e-06
  8.07475970e-06  2.64752772e-04 -1.49427273e-04  3.50870904e-05  5.91859978e-05
  2.31356806e-06 -5.02412852e-05 -1.84052104e-05 -3.09315651e-05 -9.70101047e-06
  1.57951293e-07 -1.89016706e-06 -1.71554478e-06  5.65992503e-07 -1.66933984e-06
  3.56180588e-05  6.47995362e-04 -7.41312763e-04  9.77060305e-04  6.20122042e-04
  1.11041979e-07 -1.60577346e-06  3.19965826e-07 -7.12906117e-07  4.26283800e-07
 -2.55886150e-05  1.88811722e-04 -2.90884896e-05  2.36719297e-04 -1.96802375e-05
  1.03466217e-06  1.16964288e-06  2.78606288e-05 -5.96499353e-05  4.25052398e-05
 -4.81788102e-07 -6.93530110e-06  4.07561132e-05 -2.80043026e-05 -1.37158292e-05
  8.97013470e-07 -2.22061237e-05  1.83979726e-05  3.98515471e-06  6.96942377e-06
  5.89419494e-07 -1.27373955e-05  8.14248187e-06 -1.23090230e-06  1.17353932e-05
  5.34575559e-08 -4.58292121e-06 -1.66457672e-06 -1.70980588e-06 -9.72980906e-07
  8.90631604e-05 -1.87300502e-05 -3.15127262e-04  2.19595605e-04  3.22274362e-04
  3.09826526e-05  3.05273031e-05  2.11533754e-04 -9.93942725e-04 -8.84863018e-04
  9.44184658e-05 -7.60547155e-04  1.53775623e-02  1.45084675e-02  2.68194071e-03
 -4.50045202e-03 -2.99712883e-05 -1.58079821e-04  3.01991212e-04 -3.54192171e-04
 -2.15207354e-04  5.18945042e-08 -1.28958762e-07 -1.70636114e-07 -5.82900096e-07
  8.08626241e-07  3.91831652e-08 -2.24368215e-07 -4.98174423e-07  7.86468467e-08
 -7.14811298e-07  2.02275681e-08  4.11251941e-07 -1.26357434e-07 -2.33554815e-07
 -9.36423091e-08 -1.68463363e-07 -3.15982669e-06 -3.97838092e-05 -1.46383413e-05
  2.55685017e-07  1.57141185e-07  1.71091881e-04 -9.90321032e-01 -5.00082698e-02
  1.08456006e-02  1.82323279e-03 -3.42115793e-03 -4.21418223e-07 -3.96797201e-07
 -2.25426307e-07  9.34769941e-07  2.20815982e-04  2.56503283e-04 -1.88207104e-04
  1.71246412e-05 -1.89017974e-05 -4.00219347e-05 -5.12481510e-06  1.49795128e-05
 -1.16455609e-06 -1.67095535e-04 -1.75705440e-04 -4.56941491e-06  3.11288111e-06
 -8.98266313e-05 -3.87888934e-05 -5.12737443e-05 -1.68128015e-05 -4.15812673e-10
 -2.31450872e-06  2.51281106e-07  2.73792492e-06 -1.47976966e-06  8.98703972e-06
  6.41321050e-05 -2.67535992e-04  1.72038429e-04  1.44604652e-04  1.58606555e-08
  9.87979987e-07  5.48700399e-07  6.09742517e-07  1.60503702e-06  2.49180633e-06
 -1.49770408e-05  1.94004424e-05 -2.94949416e-05 -9.52349971e-06  6.30360969e-08
  5.20629252e-07  3.87844446e-07  3.07140857e-06 -7.00912101e-06 -1.74996237e-07
 -4.82678967e-06 -1.52771916e-06  9.77441651e-06 -2.05762598e-06 -4.86161209e-08
  1.52619271e-06 -1.38089603e-06  9.85482571e-07  4.00913099e-07 -2.81739577e-08
  1.94946637e-06 -5.49819281e-07 -1.23062733e-06 -1.26381161e-06  1.63940745e-08
  4.04331431e-07  3.54012389e-07  1.09611177e-07  2.73211073e-07 -1.15971133e-05
  6.52794731e-06  5.12798774e-06  7.20679560e-04  2.48819655e-05 -2.38787681e-04
  9.88860717e-01  6.05859641e-02 -4.38638938e-04 -2.02689406e-03 -6.64494431e-04
  5.91375292e-04 -1.14355073e-02  5.63647893e-03 -7.24874712e-03 -4.31544254e-03
  5.81374429e-04 -1.10600828e-02 -9.10061092e-03 -3.71588388e-03  1.89300545e-03
  1.01216358e-07 -4.39323624e-07 -1.67596321e-07 -1.31443858e-06  9.14270797e-07
  7.67433430e-08  4.56154216e-07 -6.75601607e-07  1.61568379e-07 -1.03857181e-06
  3.70678226e-08  4.26209319e-07 -3.99612221e-07 -3.38179094e-07 -1.12362912e-08
 -8.37905226e-07  9.38950925e-07  1.31064528e-05  2.21001019e-07 -4.06097297e-07
 -3.45842327e-07 -1.21911083e-02 -1.87664229e-05 -3.66104523e-05 -3.18309278e-04
  9.14295938e-04  4.02960563e-04 -5.96127885e-07 -5.99926877e-07 -3.70537900e-07
 -2.58233734e-07  9.09227862e-05 -2.95384443e-04  9.88901493e-01  6.00229690e-02
  1.88489345e-04  5.13107460e-03  1.68250326e-03  5.46555598e-04 -1.05816438e-02
 -9.71168263e-03  1.92224322e-03  3.55097513e-03  5.11114147e-05 -6.16275097e-04
 -1.86026381e-04 -3.56127983e-04 -7.95355237e-05  7.21343774e-07  2.24403765e-05
  1.00417524e-04  1.49295222e-05  3.22481428e-05 -2.56503886e-06 -6.22093900e-04
  7.50317581e-04  7.21741437e-04  4.02788267e-05  1.79494475e-06  1.00883963e-05
  2.41934555e-05  8.65631950e-05 -2.14193201e-05  5.61162742e-04 -1.01940000e-02
  8.46902804e-03 -9.06847782e-04  5.32426772e-03 -1.01670666e-05 -3.59446123e-04
 -8.68442281e-04  3.16125374e-05  1.46896891e-04 -5.49004755e-06 -3.35402014e-04
 -2.17205476e-04  1.73127952e-04 -7.49033470e-04  1.15765721e-05  1.62970406e-04
 -9.46278635e-05 -2.85532397e-05  1.89234196e-04  1.19382715e-05  1.34341917e-04
  1.35637533e-04 -3.15230725e-05 -1.61362708e-04  4.68336356e-06  8.12384129e-05
  5.82709477e-05 -5.06441473e-06  3.64675397e-05 -1.24283223e-02  6.80345698e-06
  1.59654118e-04  5.67920794e-05  1.31236098e-04  2.32264526e-05  1.96941235e-04
 -3.97403118e-05 -1.98926382e-05  3.27450160e-05  1.88013130e-05  7.10604487e-06
 -2.05544306e-04 -4.59345617e-05  1.86729382e-04  6.58296215e-05  2.84272270e-06
 -8.25075296e-05 -7.46961323e-07  5.17596160e-05  1.50124973e-05 -4.68394778e-07
  2.82809692e-05  1.98770240e-05  1.05851716e-05  1.33380687e-05 -3.22236030e-07
  2.68629653e-05 -5.58482882e-07  2.61438326e-05 -1.95117532e-06  2.83069939e-07
  7.05077222e-06 -2.85318558e-06 -7.04966628e-06 -1.73347731e-06  6.78921797e-05
  7.39563671e-05 -5.52247715e-05 -8.35808683e-06 -1.11155976e-04 -1.09473500e-04
 -1.08496006e-05 -6.99108165e-06  6.91119527e-05 -2.46185748e-05 -3.16832184e-06
  1.60091585e-05 -2.87543521e-06 -3.24054034e-06 -3.60878446e-06 -5.75335639e-05
  2.32734664e-05 -1.90184357e-06 -2.35967030e-05 -1.59253248e-05 -6.12462248e-06
  1.63934374e-04  5.20908654e-05  1.26104206e-03  4.00126504e-04 -1.75927208e-04
  1.81264582e-04  1.24642659e-04  2.31737566e-04  1.34037653e-04 -4.88508716e-05
  1.96496787e-04  1.04006915e-04  6.19462258e-06 -3.35092292e-06  6.87614788e-06
 -2.53886559e-05 -1.43977586e-05  7.08310516e-03  1.01034288e-02  4.91298492e-03
  6.47386804e-03  3.87533806e-04  4.16607487e-06  2.99891668e-06  9.67191877e-06
 -2.89975877e-05 -2.25776263e-05  4.71121653e-04  1.69560185e-04 -1.10569821e-04
  2.12402976e-04  2.76109713e-05  1.46627040e-04  6.54535524e-05 -4.18480868e-05
  1.14657727e-04  1.90716043e-05  4.96792608e-07  1.50062259e-05  1.94790611e-05
 -4.77126421e-05  2.94476271e-06 -4.51622064e-06  3.26856101e-07  1.55507118e-05
 -2.91382049e-05 -3.92561787e-06 -4.28821229e-06 -1.17482650e-05  3.66167744e-06
  2.69147634e-06  7.83358409e-06 -2.31987847e-06 -7.52411292e-06  9.89388360e-07
  1.73956024e-06 -4.02269009e-06  1.57588699e-04  7.07250624e-04  1.83150290e-04
  2.72230414e-04 -1.92511724e-04 -1.54232435e-04 -9.54827707e-04  9.60336374e-03
  4.69341476e-03 -4.19067106e-03 -3.01908476e-03 -9.89185800e-01 -5.51778940e-02
  1.58505686e-03 -6.40130702e-04 -5.59704904e-04  2.60688759e-03  1.20298335e-03
  1.10448846e-03 -8.13195072e-05 -4.09959873e-04 -8.89777659e-07 -6.26028074e-06
 -4.26686774e-06  2.23555331e-07 -2.20240323e-06  1.15325517e-08 -4.31846717e-06
 -1.45044375e-08 -2.57438706e-06  2.45139718e-06  1.24390892e-06 -1.06767592e-06
  1.87829345e-06  1.11413329e-06 -2.21268753e-07 -6.00720842e-06 -8.83497198e-06
  7.81192792e-06 -7.73014664e-06 -1.17416355e-06  1.43087720e-06  9.68917952e-04
 -5.79203438e-04  1.01852227e-02 -3.50655316e-03 -4.02679149e-04  1.12825195e-03
  1.67172009e-06  1.59633924e-06  1.04107416e-06  1.42164283e-06  8.51597699e-05
  2.09527894e-04 -8.82574423e-04  8.79281480e-03 -6.35994852e-03  1.38994199e-03
  2.39706766e-03 -9.88267885e-01 -6.10284781e-02  1.38338567e-03 -9.45081774e-04
 -2.55434270e-04  1.75913553e-02  1.11448416e-02  5.45903548e-03  6.78837228e-03
  1.22721259e-03  2.00389260e-03  4.32476687e-04  4.91693641e-04  1.69342669e-04
  4.15069798e-04  1.23110740e-02  1.38573161e-02  3.28991961e-03 -8.14579317e-03
 -3.97131957e-03  1.97073547e-03  4.81766258e-04  1.34533971e-04  5.34587676e-04
 -3.06467787e-04  1.33398360e-02  1.54867451e-03 -1.19181500e-03  1.07182787e-04
 -1.24800371e-04  5.79082152e-04 -2.69573554e-04 -4.21808140e-04  1.25696472e-04
 -3.31804003e-04  1.74626383e-04  1.21684301e-04 -3.91274878e-05 -3.84592206e-05
  5.91836895e-05  2.36312423e-04  2.67705888e-04 -1.09384465e-04  8.55366114e-06
 -1.20500594e-04  2.78591412e-05 -1.65046939e-06 -1.80708250e-05  9.54550792e-06
  1.02807622e-05 -1.70662281e-06 -2.29130979e-05  5.42341678e-06 -1.34700637e-07
 -1.44091576e-06  1.58676045e-03  8.15695545e-04  4.46074006e-04  3.66406458e-04
 -1.40593033e-05 -1.01881404e-04 -1.94047934e-05  2.57459198e-05  8.68101391e-05
 -2.14914949e-04 -9.24803109e-05 -1.23241422e-03  3.62425964e-04  2.52086687e-05
 -3.98204919e-04 -1.56261592e-04  9.21627181e-03  5.79813735e-04  2.21635872e-04
 -1.43104794e-04 -1.24611006e-04  4.81378635e-04  2.12884170e-04  7.36849213e-05
  2.29890318e-04 -1.23306757e-04  5.08721387e-04  2.40122426e-04  1.87597711e-04
  9.64407454e-05  1.87597687e-04  1.30607619e-04 -7.95110054e-05  3.97117881e-05
  4.68637088e-05  8.34509958e-06  3.59842446e-04  4.06490330e-04  7.77773979e-04
 -3.39781854e-05  5.79040566e-06  9.35689964e-06  6.75689687e-05  2.00225051e-06
 -8.27590676e-05  8.34740369e-05 -1.32172944e-05 -4.27699955e-05  8.01832840e-05
  7.90339532e-05  5.15150214e-05  5.51831831e-06 -2.84773060e-05 -4.42833836e-06