
    -----------------------------------------------------------------------
          Psi4: An Open-Source Ab Initio Electronic Structure Package
                               Psi4 1.3.2 release

                         Git: Rev {HEAD} ecbda83 


    R. M. Parrish, L. A. Burns, D. G. A. Smith, A. C. Simmonett,
    A. E. DePrince III, E. G. Hohenstein, U. Bozkaya, A. Yu. Sokolov,
    R. Di Remigio, R. M. Richard, J. F. Gonthier, A. M. James,
    H. R. McAlexander, A. Kumar, M. Saitow, X. Wang, B. P. Pritchard,
    P. Verma, H. F. Schaefer III, K. Patkowski, R. A. King, E. F. Valeev,
    F. A. Evangelista, J. M. Turney, T. D. Crawford, and C. D. Sherrill,
    J. Chem. Theory Comput. 13(7) pp 3185--3197 (2017).
    (doi: 10.1021/acs.jctc.7b00174)


                         Additional Contributions by
    P. Kraus, H. Kruse, M. H. Lechner, M. C. Schieber, R. A. Shaw,
    A. Alenaizan, R. Galvelis, Z. L. Glick, S. Lehtola, and J. P. Misiewicz

    -----------------------------------------------------------------------


    Psi4 started on: Thursday, 04 November 2021 09:28PM

    Process ID: 69342
    Host:       node44.bme.utexas.edu
    PSIDATADIR: /home/bdw2292/miniconda3/envs/amoebamdpoltype/share/psi4
    Memory:     500.0 MiB
    Threads:    1
    
  ==> Input File <==

--------------------------------------------------------------------------
molecule { 
1 1
N 0.046432598034 0.136604734547 -0.285468151044
C -0.967001984074 0.982373863589 0.427372781520
C -0.459446779707 -1.247387487337 -0.560131928711
C 1.379293623597 0.127419817918 0.422134070166
H 0.194303667274 0.579704341679 -1.200942811016
H -1.931533271312 0.867339882238 -0.065141681961
H -0.638072067998 2.020077880281 0.402206291166
H 0.313568035832 -1.802372227766 -1.090509022346
H -1.359665543496 -1.178186648538 -1.169294685991
H 1.422814257421 0.966636171424 1.113804108647
H 1.454322170162 -0.797796501877 0.992842939887
H 2.180086837261 0.176977473421 -0.313228423428
H -1.036779424363 0.631495046853 1.457092709859
H -0.682727265968 -1.723603573770 0.394027422843
}
memory 8.333333333333334GB
set_num_threads(1)
psi4_io.set_default_path("/scratch/bdw2292/Psi4-40_Index_0-farH_in17")
set maxiter 500
set freeze_core True
set PROPERTIES_ORIGIN ["COM"]
set cubeprop_tasks ['esp']
E, wfn = properties('mp2/aug-cc-pVTZ',properties=['dipole'],return_wfn=True)
cubeprop(wfn)
fchk(wfn, "40_Index_0-esp.fchk")
oeprop(wfn,"GRID_ESP","WIBERG_LOWDIN_INDICES","MULLIKEN_CHARGES")
clean()
--------------------------------------------------------------------------

  Memory set to   7.761 GiB by Python driver.
  Threads set to 1 by Python driver.
    SCF Algorithm Type (re)set to DF.

*** tstart() called on node44.bme.utexas.edu
*** at Thu Nov  4 21:28:58 2021

   => Loading Basis Set <=

    Name: AUG-CC-PVTZ
    Role: ORBITAL
    Keyword: BASIS
    atoms 1    entry N          line   281 file /home/bdw2292/miniconda3/envs/amoebamdpoltype/share/psi4/basis/aug-cc-pvtz.gbs 
    atoms 2-4  entry C          line   235 file /home/bdw2292/miniconda3/envs/amoebamdpoltype/share/psi4/basis/aug-cc-pvtz.gbs 
    atoms 5-14 entry H          line    36 file /home/bdw2292/miniconda3/envs/amoebamdpoltype/share/psi4/basis/aug-cc-pvtz.gbs 


         ---------------------------------------------------------
                                   SCF
               by Justin Turney, Rob Parrish, Andy Simmonett
                          and Daniel G. A. Smith
                              RHF Reference
                        1 Threads,   7947 MiB Core
         ---------------------------------------------------------

  ==> Geometry <==

    Molecular point group: c1
    Full point group: C1

    Geometry (in Angstrom), charge = 1, multiplicity = 1:

       Center              X                  Y                   Z               Mass       
    ------------   -----------------  -----------------  -----------------  -----------------
         N            0.046432598034     0.136604734547    -0.285468151044    14.003074004430
         C           -0.967001984074     0.982373863589     0.427372781520    12.000000000000
         C           -0.459446779707    -1.247387487337    -0.560131928711    12.000000000000
         C            1.379293623597     0.127419817918     0.422134070166    12.000000000000
         H            0.194303667274     0.579704341679    -1.200942811016     1.007825032230
         H           -1.931533271312     0.867339882238    -0.065141681961     1.007825032230
         H           -0.638072067998     2.020077880281     0.402206291166     1.007825032230
         H            0.313568035832    -1.802372227766    -1.090509022346     1.007825032230
         H           -1.359665543496    -1.178186648538    -1.169294685991     1.007825032230
         H            1.422814257421     0.966636171424     1.113804108647     1.007825032230
         H            1.454322170162    -0.797796501877     0.992842939887     1.007825032230
         H            2.180086837261     0.176977473421    -0.313228423428     1.007825032230
         H           -1.036779424363     0.631495046853     1.457092709859     1.007825032230
         H           -0.682727265968    -1.723603573770     0.394027422843     1.007825032230

  Running in c1 symmetry.

  Rotational constants: A =      0.26952  B =      0.26783  C =      0.15543 [cm^-1]
  Rotational constants: A =   8080.03191  B =   8029.30129  C =   4659.66132 [MHz]
  Nuclear repulsion =  146.033041194080994

  Charge       = 1
  Multiplicity = 1
  Electrons    = 34
  Nalpha       = 17
  Nbeta        = 17

  ==> Algorithm <==

  SCF Algorithm Type is DF.
  DIIS enabled.
  MOM disabled.
  Fractional occupation disabled.
  Guess Type is SAD.
  Energy threshold   = 1.00e-10
  Density threshold  = 1.00e-10
  Integral threshold = 0.00e+00

  ==> Primary Basis <==

  Basis Set: AUG-CC-PVTZ
    Blend: AUG-CC-PVTZ
    Number of shells: 146
    Number of basis function: 414
    Number of Cartesian functions: 470
    Spherical Harmonics?: true
    Max angular momentum: 3

   => Loading Basis Set <=

    Name: (AUG-CC-PVTZ AUX)
    Role: JKFIT
    Keyword: DF_BASIS_SCF
    atoms 1    entry N          line   224 file /home/bdw2292/miniconda3/envs/amoebamdpoltype/share/psi4/basis/aug-cc-pvtz-jkfit.gbs 
    atoms 2-4  entry C          line   162 file /home/bdw2292/miniconda3/envs/amoebamdpoltype/share/psi4/basis/aug-cc-pvtz-jkfit.gbs 
    atoms 5-14 entry H          line    70 file /home/bdw2292/miniconda3/envs/amoebamdpoltype/share/psi4/basis/aug-cc-pvtz-jkfit.gbs 

  ==> Pre-Iterations <==

   -------------------------------------------------------
    Irrep   Nso     Nmo     Nalpha   Nbeta   Ndocc  Nsocc
   -------------------------------------------------------
     A        414     414       0       0       0       0
   -------------------------------------------------------
    Total     414     414      17      17      17       0
   -------------------------------------------------------

  ==> Integral Setup <==

  DFHelper Memory: AOs need 1.155 GiB; user supplied 5.821 GiB. Using in-core AOs.

  ==> MemDFJK: Density-Fitted J/K Matrices <==

    J tasked:                   Yes
    K tasked:                   Yes
    wK tasked:                   No
    OpenMP threads:               1
    Memory [MiB]:              5960
    Algorithm:                 Core
    Schwarz Cutoff:           1E-12
    Mask sparsity (%):       0.4959
    Fitting Condition:        1E-10

   => Auxiliary Basis Set <=

  Basis Set: (AUG-CC-PVTZ AUX)
    Blend: AUG-CC-PVTZ-JKFIT
    Number of shells: 260
    Number of basis function: 876
    Number of Cartesian functions: 1074
    Spherical Harmonics?: true
    Max angular momentum: 4

  Minimum eigenvalue in the overlap matrix is 5.6313493281E-06.
  Using Symmetric Orthogonalization.

  SCF Guess: Superposition of Atomic Densities via on-the-fly atomic UHF.

  ==> Iterations <==

                           Total Energy        Delta E     RMS |[F,P]|

   @DF-RHF iter SAD:  -173.57500022126777   -1.73575e+02   0.00000e+00 
   @DF-RHF iter   1:  -173.58317789942242   -8.17768e-03   1.04151e-03 DIIS
   @DF-RHF iter   2:  -173.70124225224785   -1.18064e-01   3.42836e-04 DIIS
   @DF-RHF iter   3:  -173.71275239552659   -1.15101e-02   9.87844e-05 DIIS
   @DF-RHF iter   4:  -173.71426579226124   -1.51340e-03   1.73163e-05 DIIS
   @DF-RHF iter   5:  -173.71431003482559   -4.42426e-05   6.46140e-06 DIIS
   @DF-RHF iter   6:  -173.71431448784151   -4.45302e-06   1.59606e-06 DIIS
   @DF-RHF iter   7:  -173.71431484098594   -3.53144e-07   3.10228e-07 DIIS
   @DF-RHF iter   8:  -173.71431485957069   -1.85848e-08   6.63306e-08 DIIS
   @DF-RHF iter   9:  -173.71431486043679   -8.66095e-10   1.53162e-08 DIIS
   @DF-RHF iter  10:  -173.71431486048522   -4.84306e-11   2.72533e-09 DIIS
   @DF-RHF iter  11:  -173.71431486048434    8.81073e-13   6.77046e-10 DIIS
   @DF-RHF iter  12:  -173.71431486048508   -7.38964e-13   2.17801e-10 DIIS
   @DF-RHF iter  13:  -173.71431486048516   -8.52651e-14   3.22989e-11 DIIS
  Energy and wave function converged.


  ==> Post-Iterations <==

    Orbital Energies [Eh]
    ---------------------

    Doubly Occupied:                                                      

       1A    -15.878701     2A    -11.463885     3A    -11.463632  
       4A    -11.463230     5A     -1.508711     6A     -1.180712  
       7A     -1.178920     8A     -1.083674     9A     -0.931957  
      10A     -0.859948    11A     -0.857876    12A     -0.776467  
      13A     -0.775746    14A     -0.739970    15A     -0.736603  
      16A     -0.732845    17A     -0.732026  

    Virtual:                                                              

      18A     -0.099011    19A     -0.077427    20A     -0.069934  
      21A     -0.069709    22A     -0.050734    23A     -0.044746  
      24A     -0.043840    25A     -0.041869    26A     -0.039383  
      27A     -0.019778    28A     -0.011275    29A      0.004277  
      30A      0.005113    31A      0.006910    32A      0.010441  
      33A      0.013601    34A      0.017529    35A      0.018933  
      36A      0.024321    37A      0.026362    38A      0.037887  
      39A      0.044048    40A      0.047571    41A      0.054024  
      42A      0.059890    43A      0.071108    44A      0.080632  
      45A      0.099965    46A      0.109159    47A      0.116485  
      48A      0.119807    49A      0.134479    50A      0.146134  
      51A      0.148659    52A      0.156556    53A      0.167271  
      54A      0.175266    55A      0.185815    56A      0.189782  
      57A      0.194263    58A      0.200411    59A      0.201728  
      60A      0.214535    61A      0.216108    62A      0.220572  
      63A      0.225225    64A      0.230415    65A      0.236138  
      66A      0.242145    67A      0.249202    68A      0.257926  
      69A      0.264207    70A      0.275139    71A      0.280082  
      72A      0.285099    73A      0.289411    74A      0.292882  
      75A      0.295768    76A      0.301645    77A      0.304734  
      78A      0.307711    79A      0.314770    80A      0.320562  
      81A      0.328192    82A      0.331915    83A      0.338314  
      84A      0.340595    85A      0.346796    86A      0.356963  
      87A      0.366050    88A      0.374581    89A      0.397595  
      90A      0.410370    91A      0.418429    92A      0.421169  
      93A      0.424686    94A      0.432887    95A      0.440544  
      96A      0.446938    97A      0.461901    98A      0.465670  
      99A      0.468620   100A      0.489755   101A      0.494121  
     102A      0.512808   103A      0.524856   104A      0.546191  
     105A      0.561689   106A      0.582672   107A      0.607955  
     108A      0.613975   109A      0.624536   110A      0.624593  
     111A      0.639427   112A      0.642217   113A      0.652240  
     114A      0.655524   115A      0.674107   116A      0.681799  
     117A      0.688340   118A      0.694392   119A      0.704953  
     120A      0.723906   121A      0.730565   122A      0.739467  
     123A      0.744608   124A      0.746969   125A      0.751752  
     126A      0.756050   127A      0.761104   128A      0.765098  
     129A      0.776161   130A      0.790021   131A      0.793783  
     132A      0.804265   133A      0.807036   134A      0.823274  
     135A      0.832686   136A      0.848441   137A      0.877578  
     138A      0.890892   139A      0.899045   140A      0.904988  
     141A      0.913459   142A      0.922241   143A      0.931808  
     144A      0.956528   145A      0.958008   146A      0.972435  
     147A      0.978211   148A      0.989421   149A      0.997919  
     150A      1.010922   151A      1.015901   152A      1.019462  
     153A      1.034566   154A      1.045919   155A      1.054953  
     156A      1.061213   157A      1.071770   158A      1.077309  
     159A      1.084606   160A      1.107775   161A      1.114269  
     162A      1.119421   163A      1.146388   164A      1.157607  
     165A      1.161486   166A      1.171348   167A      1.196796  
     168A      1.203461   169A      1.209773   170A      1.220846  
     171A      1.241910   172A      1.248173   173A      1.251941  
     174A      1.272902   175A      1.288369   176A      1.306430  
     177A      1.312268   178A      1.327450   179A      1.336967  
     180A      1.353039   181A      1.353854   182A      1.372704  
     183A      1.397059   184A      1.397748   185A      1.407767  
     186A      1.431504   187A      1.436004   188A      1.442710  
     189A      1.451866   190A      1.462328   191A      1.466207  
     192A      1.476155   193A      1.493781   194A      1.495520  
     195A      1.504111   196A      1.518075   197A      1.531868  
     198A      1.546355   199A      1.558777   200A      1.564675  
     201A      1.583440   202A      1.588730   203A      1.606580  
     204A      1.614857   205A      1.633205   206A      1.648999  
     207A      1.665526   208A      1.672085   209A      1.698183  
     210A      1.709123   211A      1.723610   212A      1.737410  
     213A      1.748958   214A      1.755456   215A      1.767018  
     216A      1.783017   217A      1.794619   218A      1.844697  
     219A      1.855530   220A      1.880868   221A      1.893923  
     222A      1.896498   223A      1.902529   224A      1.920857  
     225A      1.940114   226A      1.962209   227A      1.977674  
     228A      1.987025   229A      2.000889   230A      2.012136  
     231A      2.034934   232A      2.041582   233A      2.049012  
     234A      2.055321   235A      2.082128   236A      2.102240  
     237A      2.106746   238A      2.109434   239A      2.139151  
     240A      2.158902   241A      2.188820   242A      2.216259  
     243A      2.220353   244A      2.266585   245A      2.275841  
     246A      2.298807   247A      2.325456   248A      2.359086  
     249A      2.376778   250A      2.406251   251A      2.453681  
     252A      2.471164   253A      2.489013   254A      2.602178  
     255A      2.616744   256A      2.670811   257A      2.753603  
     258A      2.776813   259A      2.851142   260A      2.998387  
     261A      3.021157   262A      3.119990   263A      3.163870  
     264A      3.252274   265A      3.279123   266A      3.305583  
     267A      3.325650   268A      3.360423   269A      3.371829  
     270A      3.387686   271A      3.406197   272A      3.438420  
     273A      3.441686   274A      3.447093   275A      3.467558  
     276A      3.493087   277A      3.502304   278A      3.518083  
     279A      3.538551   280A      3.548109   281A      3.570803  
     282A      3.594226   283A      3.601043   284A      3.625987  
     285A      3.638126   286A      3.654640   287A      3.673195  
     288A      3.679870   289A      3.720436   290A      3.731223  
     291A      3.736937   292A      3.745281   293A      3.764548  
     294A      3.771224   295A      3.788800   296A      3.800586  
     297A      3.813767   298A      3.822519   299A      3.842651  
     300A      3.900739   301A      3.916262   302A      3.933501  
     303A      3.936169   304A      3.948512   305A      3.965075  
     306A      3.983347   307A      3.994203   308A      4.003806  
     309A      4.011512   310A      4.043279   311A      4.044587  
     312A      4.066109   313A      4.084313   314A      4.098845  
     315A      4.111317   316A      4.164105   317A      4.192594  
     318A      4.220509   319A      4.230868   320A      4.267392  
     321A      4.305435   322A      4.313180   323A      4.359404  
     324A      4.363683   325A      4.406724   326A      4.430951  
     327A      4.439695   328A      4.470346   329A      4.477253  
     330A      4.498885   331A      4.509334   332A      4.534978  
     333A      4.575288   334A      4.583854   335A      4.604002  
     336A      4.630731   337A      4.633724   338A      4.649888  
     339A      4.670649   340A      4.679588   341A      4.692050  
     342A      4.700883   343A      4.737560   344A      4.744942  
     345A      4.758843   346A      4.800262   347A      4.817889  
     348A      4.858487   349A      4.887628   350A      4.913575  
     351A      4.932585   352A      4.982308   353A      5.000849  
     354A      5.022534   355A      5.042385   356A      5.051869  
     357A      5.085223   358A      5.101269   359A      5.106695  
     360A      5.125656   361A      5.155070   362A      5.196834  
     363A      5.213775   364A      5.226110   365A      5.237035  
     366A      5.262562   367A      5.280949   368A      5.294872  
     369A      5.346657   370A      5.368001   371A      5.385847  
     372A      5.409065   373A      5.432057   374A      5.471410  
     375A      5.505719   376A      5.533400   377A      5.549087  
     378A      5.580913   379A      5.640086   380A      5.678076  
     381A      5.723415   382A      5.734761   383A      5.812227  
     384A      5.847066   385A      5.855668   386A      5.871703  
     387A      5.906354   388A      5.949570   389A      5.963484  
     390A      5.972460   391A      6.027414   392A      6.076423  
     393A      6.147998   394A      6.171757   395A      6.195751  
     396A      6.292145   397A      6.296791   398A      6.419647  
     399A      6.472359   400A      6.517893   401A      6.552214  
     402A      6.583896   403A      6.599330   404A      6.623345  
     405A      6.648442   406A      6.712242   407A      6.729113  
     408A      6.748017   409A      6.886501   410A      7.529284  
     411A     17.681017   412A     18.238322   413A     18.732220  
     414A     19.315130  

    Final Occupation by Irrep:
              A 
    DOCC [    17 ]

  @DF-RHF Final Energy:  -173.71431486048516

   => Energetics <=

    Nuclear Repulsion Energy =            146.0330411940809938
    One-Electron Energy =                -514.7649082639613880
    Two-Electron Energy =                 195.0175522093952623
    Total Energy =                       -173.7143148604851604

Computation Completed

*** tstop() called on node44.bme.utexas.edu at Thu Nov  4 21:29:26 2021
Module time:
	user time   =      26.90 seconds =       0.45 minutes
	system time =       0.79 seconds =       0.01 minutes
	total time  =         28 seconds =       0.47 minutes
Total time:
	user time   =      26.90 seconds =       0.45 minutes
	system time =       0.79 seconds =       0.01 minutes
	total time  =         28 seconds =       0.47 minutes
   => Loading Basis Set <=

    Name: (AUG-CC-PVTZ AUX)
    Role: RIFIT
    Keyword: DF_BASIS_MP2
    atoms 1    entry N          line   206 file /home/bdw2292/miniconda3/envs/amoebamdpoltype/share/psi4/basis/aug-cc-pvtz-ri.gbs 
    atoms 2-4  entry C          line   148 file /home/bdw2292/miniconda3/envs/amoebamdpoltype/share/psi4/basis/aug-cc-pvtz-ri.gbs 
    atoms 5-14 entry H          line    30 file /home/bdw2292/miniconda3/envs/amoebamdpoltype/share/psi4/basis/aug-cc-pvtz-ri.gbs 


*** tstart() called on node44.bme.utexas.edu
*** at Thu Nov  4 21:29:26 2021


  //>>>>>>>>>>>>>>>>>>>>>>>>>>>>>>>>>>>//
  //               DFMP2               //
  //<<<<<<<<<<<<<<<<<<<<<<<<<<<<<<<<<<<//

	 --------------------------------------------------------
	                          DF-MP2                         
	      2nd-Order Density-Fitted Moller-Plesset Theory     
	              RMP2 Wavefunction,   1 Threads             
	                                                         
	        Rob Parrish, Justin Turney, Andy Simmonett,      
	           Ed Hohenstein, and C. David Sherrill          
	 --------------------------------------------------------

   => Auxiliary Basis Set <=

  Basis Set: (AUG-CC-PVTZ AUX)
    Blend: AUG-CC-PVTZ-RI
    Number of shells: 252
    Number of basis function: 884
    Number of Cartesian functions: 1094
    Spherical Harmonics?: true
    Max angular momentum: 4

	 --------------------------------------------------------
	                 NBF =   414, NAUX =   884
	 --------------------------------------------------------
	   CLASS    FOCC     OCC    AOCC    AVIR     VIR    FVIR
	   PAIRS       4      17      13     397     397       0
	 --------------------------------------------------------

  DFHelper Memory: AOs need 1.155 GiB; user supplied 5.821 GiB. Using in-core AOs.


         ------------------------------------------------------------
                                     CPHF                           
                                  Rob Parrish                       
         ------------------------------------------------------------

  ==> Geometry <==

    Molecular point group: c1
    Full point group: C1

    Geometry (in Angstrom), charge = 1, multiplicity = 1:

       Center              X                  Y                   Z               Mass       
    ------------   -----------------  -----------------  -----------------  -----------------
         N            0.046432598034     0.136604734547    -0.285468151044    14.003074004430
         C           -0.967001984074     0.982373863589     0.427372781520    12.000000000000
         C           -0.459446779707    -1.247387487337    -0.560131928711    12.000000000000
         C            1.379293623597     0.127419817918     0.422134070166    12.000000000000
         H            0.194303667274     0.579704341679    -1.200942811016     1.007825032230
         H           -1.931533271312     0.867339882238    -0.065141681961     1.007825032230
         H           -0.638072067998     2.020077880281     0.402206291166     1.007825032230
         H            0.313568035832    -1.802372227766    -1.090509022346     1.007825032230
         H           -1.359665543496    -1.178186648538    -1.169294685991     1.007825032230
         H            1.422814257421     0.966636171424     1.113804108647     1.007825032230
         H            1.454322170162    -0.797796501877     0.992842939887     1.007825032230
         H            2.180086837261     0.176977473421    -0.313228423428     1.007825032230
         H           -1.036779424363     0.631495046853     1.457092709859     1.007825032230
         H           -0.682727265968    -1.723603573770     0.394027422843     1.007825032230

  Nuclear repulsion =  146.033041194080994
  Reference energy  = -173.714314860485160

  ==> Basis Set <==

  Basis Set: AUG-CC-PVTZ
    Blend: AUG-CC-PVTZ
    Number of shells: 146
    Number of basis function: 414
    Number of Cartesian functions: 470
    Spherical Harmonics?: true
    Max angular momentum: 3

  ==> CGRSolver (by Rob Parrish) <==

   Number of roots    =         1
   Preconditioning    =    JACOBI
   Convergence cutoff =     1E-06
   Maximum iterations =       100

  ==> CPHFRHamiltonian (by Rob Parrish) <== 

  ==> MemDFJK: Density-Fitted J/K Matrices <==

    J tasked:                   Yes
    K tasked:                   Yes
    wK tasked:                   No
    OpenMP threads:               1
    Memory [MiB]:              5960
    Algorithm:                 Core
    Schwarz Cutoff:           1E-12
    Mask sparsity (%):       0.4959
    Fitting Condition:        1E-10

   => Auxiliary Basis Set <=

  Basis Set: (AUG-CC-PVTZ AUX)
    Blend: AUG-CC-PVTZ-JKFIT
    Number of shells: 260
    Number of basis function: 876
    Number of Cartesian functions: 1074
    Spherical Harmonics?: true
    Max angular momentum: 4

  ==> CPHF Iterations <==

  => Iterations <=

             Iter  Converged  Remaining    Residual
  CGR           1          0          1   6.942E-02
  CGR           2          0          1   1.311E-02
  CGR           3          0          1   4.640E-03
  CGR           4          0          1   1.035E-03
  CGR           5          0          1   2.515E-04
  CGR           6          0          1   5.395E-05
  CGR           7          0          1   1.030E-05
  CGR           8          0          1   1.758E-06
  CGR           9          1          0   2.861E-07

    CGRSolver converged.

	-----------------------------------------------------------
	 ==================> DF-MP2 Energies <==================== 
	-----------------------------------------------------------
	 Reference Energy          =    -173.7143148604851604 [Eh]
	 Singles Energy            =      -0.0000000000000000 [Eh]
	 Same-Spin Energy          =      -0.1617373279685571 [Eh]
	 Opposite-Spin Energy      =      -0.5933547095281533 [Eh]
	 Correlation Energy        =      -0.7550920374967104 [Eh]
	 Total Energy              =    -174.4694068979818837 [Eh]
	-----------------------------------------------------------
	 ================> DF-SCS-MP2 Energies <================== 
	-----------------------------------------------------------
	 SCS Same-Spin Scale       =       0.3333333333333333 [-]
	 SCS Opposite-Spin Scale   =       1.2000000000000000 [-]
	 SCS Same-Spin Energy      =      -0.0539124426561857 [Eh]
	 SCS Opposite-Spin Energy  =      -0.7120256514337839 [Eh]
	 SCS Correlation Energy    =      -0.7659380940899696 [Eh]
	 SCS Total Energy          =    -174.4802529545751213 [Eh]
	-----------------------------------------------------------



Properties will be evaluated at  -0.000000,  -0.000000,   0.000000 [a0]

Properties computed using the MP2 density matrix

  Nuclear Dipole Moment: [e a0]
     X:    -0.0786      Y:    -0.2439      Z:     0.4891

  Electronic Dipole Moment: [e a0]
     X:     0.1281      Y:     0.3776      Z:    -0.7717

  Dipole Moment: [e a0]
     X:     0.0495      Y:     0.1337      Z:    -0.2826     Total:     0.3165

  Dipole Moment: [D]
     X:     0.1257      Y:     0.3398      Z:    -0.7183     Total:     0.8045


*** tstop() called on node44.bme.utexas.edu at Thu Nov  4 21:31:09 2021
Module time:
	user time   =      99.60 seconds =       1.66 minutes
	system time =       2.72 seconds =       0.05 minutes
	total time  =        103 seconds =       1.72 minutes
Total time:
	user time   =     126.64 seconds =       2.11 minutes
	system time =       3.51 seconds =       0.06 minutes
	total time  =        131 seconds =       2.18 minutes
  ==> One Electron Grid Properties (v2.0) <==

  ==> CubicScalarGrid <==

    Filepath     = .
    Total Points =           418080
    XYZ Blocking =               10
    X Points     =               80
    Y Points     =               78
    Z Points     =               67
    X Spacing    =        2.000E-01
    Y Spacing    =        2.000E-01
    Z Spacing    =        2.000E-01
    X Minimum    =       -7.665E+00
    Y Minimum    =       -7.494E+00
    Z Minimum    =       -6.358E+00
    X Maximum    =        8.135E+00
    Y Maximum    =        7.906E+00
    Z Maximum    =        6.842E+00

  Basis Set: AUG-CC-PVTZ
    Blend: AUG-CC-PVTZ
    Number of shells: 146
    Number of basis function: 414
    Number of Cartesian functions: 470
    Spherical Harmonics?: true
    Max angular momentum: 3



Properties will be evaluated at  -0.000000,  -0.000000,   0.000000 [a0]
OEProp: No title given, name of density matrix used for the following properties is 'DF-MP2 relaxed density'
  Mulliken Charges: (a.u.)
   Center  Symbol    Alpha    Beta     Spin     Total
       1     N     3.26527  3.26527  0.00000  0.46947
       2     C     3.48013  3.48013  0.00000 -0.96025
       3     C     3.47170  3.47170  0.00000 -0.94341
       4     C     3.47114  3.47114  0.00000 -0.94227
       5     H     0.47585  0.47585  0.00000  0.04830
       6     H     0.32533  0.32533  0.00000  0.34934
       7     H     0.30441  0.30441  0.00000  0.39117
       8     H     0.31818  0.31818  0.00000  0.36365
       9     H     0.31471  0.31471  0.00000  0.37057
      10     H     0.31988  0.31988  0.00000  0.36023
      11     H     0.31948  0.31948  0.00000  0.36104
      12     H     0.30699  0.30699  0.00000  0.38601
      13     H     0.31402  0.31402  0.00000  0.37197
      14     H     0.31291  0.31291  0.00000  0.37419

   Total alpha = 17.00000, Total beta = 17.00000, Total charge =  1.00000



  Wiberg Bond Indices using Orthogonal Lowdin Orbitals:

  Irrep: 1 Size: 14 x 14

                 1                   2                   3                   4                   5

    1     0.00000000000000     1.06440941937140     1.06607264968618     1.04303866073059     0.84207065178797
    2     1.06440941937140     0.00000000000000     0.24608394251265     0.24514965426459     0.22506494425975
    3     1.06607264968618     0.24608394251265     0.00000000000000     0.24555865515433     0.22455612806705
    4     1.04303866073059     0.24514965426459     0.24555865515433     0.00000000000000     0.22190807320712
    5     0.84207065178797     0.22506494425975     0.22455612806705     0.22190807320712     0.00000000000000
    6     0.22769773115313     0.81086103438337     0.06457601607043     0.03330462629443     0.04096293112442
    7     0.22884180600827     0.81064559441589     0.03392574359909     0.05426978938403     0.04733680754301
    8     0.22857820233021     0.03386766576570     0.81091251876898     0.05684887970662     0.04294742831684
    9     0.22875898607575     0.05868204507626     0.81141886267254     0.03345335401820     0.04516700477721
   10     0.22419104203915     0.07749362605756     0.03391615501824     0.80980630103061     0.03299394118284
   11     0.22642647589866     0.03864639849030     0.07499916741328     0.80612518754830     0.02976258991237
   12     0.22643453670059     0.03447705538126     0.04108107466448     0.81824869928267     0.05414594255388
   13     0.22862443035393     0.80424443437758     0.04895243234990     0.05660702433634     0.02981452535242
   14     0.22921384672296     0.05356797485162     0.80299984684030     0.05428574820762     0.02962864255794

                 6                   7                   8                   9                  10

    1     0.22769773115313     0.22884180600827     0.22857820233021     0.22875898607575     0.22419104203915
    2     0.81086103438337     0.81064559441589     0.03386766576570     0.05868204507626     0.07749362605756
    3     0.06457601607043     0.03392574359909     0.81091251876898     0.81141886267254     0.03391615501824
    4     0.03330462629443     0.05426978938403     0.05684887970662     0.03345335401820     0.80980630103061
    5     0.04096293112442     0.04733680754301     0.04294742831684     0.04516700477721     0.03299394118284
    6     0.00000000000000     0.24306596373214     0.00620498236593     0.02480082861855     0.00821167296193
    7     0.24306596373214     0.00000000000000     0.00306811569688     0.00551373059891     0.02522674159282
    8     0.00620498236593     0.00306811569688     0.00000000000000     0.24474488501983     0.00474713010721
    9     0.02480082861855     0.00551373059891     0.24474488501983     0.00000000000000     0.00293900838689
   10     0.00821167296193     0.02522674159282     0.00474713010721     0.00293900838689     0.00000000000000
   11     0.00277768141529     0.00551384013456     0.02001554581253     0.00789244477799     0.24708612864132
   12     0.00280995571971     0.00512461626363     0.00976313109029     0.00283117183049     0.24447135346900
   13     0.24445717183476     0.24349629738047     0.00403829761314     0.00821477246660     0.02256452284904
   14     0.01164661120135     0.00454932689892     0.24313227343404     0.24272490208970     0.00537338517177

                11                  12                  13                  14

    1     0.22642647589866     0.22643453670059     0.22862443035393     0.22921384672296
    2     0.03864639849030     0.03447705538126     0.80424443437758     0.05356797485162
    3     0.07499916741328     0.04108107466448     0.04895243234990     0.80299984684030
    4     0.80612518754830     0.81824869928267     0.05660702433634     0.05428574820762
    5     0.02976258991237     0.05414594255388     0.02981452535242     0.02962864255794
    6     0.00277768141529     0.00280995571971     0.24445717183476     0.01164661120135
    7     0.00551384013456     0.00512461626363     0.24349629738047     0.00454932689892
    8     0.02001554581253     0.00976313109029     0.00403829761314     0.24313227343404
    9     0.00789244477799     0.00283117183049     0.00821477246660     0.24272490208970
   10     0.24708612864132     0.24447135346900     0.02256452284904     0.00537338517177
   11     0.00000000000000     0.24697199546229     0.00864703706554     0.02541852005817
   12     0.24697199546229     0.00000000000000     0.00500800096084     0.00599879060446
   13     0.00864703706554     0.00500800096084     0.00000000000000     0.01444375137946
   14     0.02541852005817     0.00599879060446     0.01444375137946     0.00000000000000



  Atomic Valences: 

 #  #
 Irrep: 1
      1:  6.0643584
      2:  4.5031938
      3:  4.5050532
      4:  4.4786047
      5:  1.8663596
      6:  1.7213772
      7:  1.7105784
      8:  1.7088691
      9:  1.7171420
     10:  1.7390210
     11:  1.7402830
     12:  1.6973663
     13:  1.7191127
     14:  1.7229836


 Electrostatic potential computed on the grid and written to grid_esp.dat

    Psi4 stopped on: Thursday, 04 November 2021 09:37PM
    Psi4 wall time for execution: 0:08:12.53

*** Psi4 exiting successfully. Buy a developer a beer!
