
    -----------------------------------------------------------------------
          Psi4: An Open-Source Ab Initio Electronic Structure Package
                               Psi4 1.3.2 release

                         Git: Rev {HEAD} ecbda83 


    R. M. Parrish, L. A. Burns, D. G. A. Smith, A. C. Simmonett,
    A. E. DePrince III, E. G. Hohenstein, U. Bozkaya, A. Yu. Sokolov,
    R. Di Remigio, R. M. Richard, J. F. Gonthier, A. M. James,
    H. R. McAlexander, A. Kumar, M. Saitow, X. Wang, B. P. Pritchard,
    P. Verma, H. F. Schaefer III, K. Patkowski, R. A. King, E. F. Valeev,
    F. A. Evangelista, J. M. Turney, T. D. Crawford, and C. D. Sherrill,
    J. Chem. Theory Comput. 13(7) pp 3185--3197 (2017).
    (doi: 10.1021/acs.jctc.7b00174)


                         Additional Contributions by
    P. Kraus, H. Kruse, M. H. Lechner, M. C. Schieber, R. A. Shaw,
    A. Alenaizan, R. Galvelis, Z. L. Glick, S. Lehtola, and J. P. Misiewicz

    -----------------------------------------------------------------------


    Psi4 started on: Thursday, 04 November 2021 09:25PM

    Process ID: 69271
    Host:       node44.bme.utexas.edu
    PSIDATADIR: /home/bdw2292/miniconda3/envs/amoebamdpoltype/share/psi4
    Memory:     500.0 MiB
    Threads:    1
    
  ==> Input File <==

--------------------------------------------------------------------------
molecule { 
1 1
 N    0.018400   -0.016900   -0.399700
 C   -0.002500    1.350800    0.086000
 C   -1.182300   -0.656600    0.159300
 C    1.216700   -0.722800   -0.046500
 H   -0.081800   -0.002900   -1.426700
 H   -1.052400    1.714900   -0.081500
 H    0.673000    2.019200   -0.453400
 H   -1.274700   -1.704800   -0.162100
 H   -2.033000   -0.019300   -0.202700
 H    2.047100   -0.035200    0.256300
 H    1.078800   -1.462200    0.763000
 H    1.616200   -1.283300   -0.931200
 H    0.135500    1.340800    1.183100
 H   -1.159200   -0.521700    1.255800
}
set {
  geom_maxiter 400
  g_convergence GAU
  dynamic_level 1
}
set optking { 
  frozen_dihedral = ("
    3 1 2 6
, 2 1 3 8
, 2 1 4 10
  ")
}
memory 8.333333333333334GB
set_num_threads(1)
psi4_io.set_default_path("/scratch/bdw2292/Psi4-40_Index_0-farH_in17")
for _ in range(1):
  try:
    set opt_coordinates both
    optimize('mp2/6-31G*')
    break
  except OptimizationConvergenceError:
    break
  else:
    try:
      set opt_coordinates cartesian
      optimize('mp2/6-31G*')
      break
    except OptimizationConvergenceError:
      pass
clean()
--------------------------------------------------------------------------

  Memory set to   7.761 GiB by Python driver.
  Threads set to 1 by Python driver.
gradient() will perform analytic gradient computation.
    SCF Algorithm Type (re)set to DF.

*** tstart() called on node44.bme.utexas.edu
*** at Thu Nov  4 21:25:57 2021

   => Loading Basis Set <=

    Name: 6-31G*
    Role: ORBITAL
    Keyword: BASIS
    atoms 1    entry N          line   128 file /home/bdw2292/miniconda3/envs/amoebamdpoltype/share/psi4/basis/6-31gs.gbs 
    atoms 2-4  entry C          line   111 file /home/bdw2292/miniconda3/envs/amoebamdpoltype/share/psi4/basis/6-31gs.gbs 
    atoms 5-14 entry H          line    44 file /home/bdw2292/miniconda3/envs/amoebamdpoltype/share/psi4/basis/6-31gs.gbs 


         ---------------------------------------------------------
                                   SCF
               by Justin Turney, Rob Parrish, Andy Simmonett
                          and Daniel G. A. Smith
                              RHF Reference
                        1 Threads,   7947 MiB Core
         ---------------------------------------------------------

  ==> Geometry <==

    Molecular point group: c1
    Full point group: C1

    Geometry (in Angstrom), charge = 1, multiplicity = 1:

       Center              X                  Y                   Z               Mass       
    ------------   -----------------  -----------------  -----------------  -----------------
         N            0.008587276926    -0.008012114826    -0.349613571117    14.003074004430
         C           -0.012312723074     1.359687885174     0.136086428883    12.000000000000
         C           -1.192112723074    -0.647712114826     0.209386428883    12.000000000000
         C            1.206887276926    -0.713912114826     0.003586428883    12.000000000000
         H           -0.091612723074     0.005987885174    -1.376613571117     1.007825032230
         H           -1.062212723074     1.723787885174    -0.031413571117     1.007825032230
         H            0.663187276926     2.028087885174    -0.403313571117     1.007825032230
         H           -1.284512723074    -1.695912114826    -0.112013571117     1.007825032230
         H           -2.042812723074    -0.010412114826    -0.152613571117     1.007825032230
         H            2.037287276926    -0.026312114826     0.306386428883     1.007825032230
         H            1.068987276926    -1.453312114826     0.813086428883     1.007825032230
         H            1.606387276926    -1.274412114826    -0.881113571117     1.007825032230
         H            0.125687276926     1.349687885174     1.233186428883     1.007825032230
         H           -1.169012723074    -0.512812114826     1.305886428883     1.007825032230

  Running in c1 symmetry.

  Rotational constants: A =      0.29755  B =      0.27076  C =      0.16700 [cm^-1]
  Rotational constants: A =   8920.43685  B =   8117.05296  C =   5006.56708 [MHz]
  Nuclear repulsion =  148.945844699529374

  Charge       = 1
  Multiplicity = 1
  Electrons    = 34
  Nalpha       = 17
  Nbeta        = 17

  ==> Algorithm <==

  SCF Algorithm Type is DF.
  DIIS enabled.
  MOM disabled.
  Fractional occupation disabled.
  Guess Type is SAD.
  Energy threshold   = 1.00e-10
  Density threshold  = 1.00e-10
  Integral threshold = 0.00e+00

  ==> Primary Basis <==

  Basis Set: 6-31G*
    Blend: 6-31G*
    Number of shells: 44
    Number of basis function: 80
    Number of Cartesian functions: 80
    Spherical Harmonics?: false
    Max angular momentum: 2

   => Loading Basis Set <=

    Name: (6-31G* AUX)
    Role: JKFIT
    Keyword: DF_BASIS_SCF
    atoms 1    entry N          line   171 file /home/bdw2292/miniconda3/envs/amoebamdpoltype/share/psi4/basis/cc-pvdz-jkfit.gbs 
    atoms 2-4  entry C          line   121 file /home/bdw2292/miniconda3/envs/amoebamdpoltype/share/psi4/basis/cc-pvdz-jkfit.gbs 
    atoms 5-14 entry H          line    51 file /home/bdw2292/miniconda3/envs/amoebamdpoltype/share/psi4/basis/cc-pvdz-jkfit.gbs 

  ==> Pre-Iterations <==

   -------------------------------------------------------
    Irrep   Nso     Nmo     Nalpha   Nbeta   Ndocc  Nsocc
   -------------------------------------------------------
     A         80      80       0       0       0       0
   -------------------------------------------------------
    Total      80      80      17      17      17       0
   -------------------------------------------------------

  ==> Integral Setup <==

  DFHelper Memory: AOs need 0.031 GiB; user supplied 5.821 GiB. Using in-core AOs.

  ==> MemDFJK: Density-Fitted J/K Matrices <==

    J tasked:                   Yes
    K tasked:                   Yes
    wK tasked:                   No
    OpenMP threads:               1
    Memory [MiB]:              5960
    Algorithm:                 Core
    Schwarz Cutoff:           1E-12
    Mask sparsity (%):       0.0938
    Fitting Condition:        1E-10

   => Auxiliary Basis Set <=

  Basis Set: (6-31G* AUX)
    Blend: CC-PVDZ-JKFIT
    Number of shells: 186
    Number of basis function: 574
    Number of Cartesian functions: 574
    Spherical Harmonics?: false
    Max angular momentum: 3

  Minimum eigenvalue in the overlap matrix is 5.8960894230E-03.
  Using Symmetric Orthogonalization.

  SCF Guess: Superposition of Atomic Densities via on-the-fly atomic UHF.

  ==> Iterations <==

                           Total Energy        Delta E     RMS |[F,P]|

   @DF-RHF iter SAD:  -173.46079443918359   -1.73461e+02   0.00000e+00 
   @DF-RHF iter   1:  -173.54724528455526   -8.64508e-02   4.15858e-03 DIIS
   @DF-RHF iter   2:  -173.61875953528912   -7.15143e-02   1.38985e-03 DIIS
   @DF-RHF iter   3:  -173.62486625410224   -6.10672e-03   5.22174e-04 DIIS
   @DF-RHF iter   4:  -173.62582925038745   -9.62996e-04   8.33227e-05 DIIS
   @DF-RHF iter   5:  -173.62586050144128   -3.12511e-05   2.79142e-05 DIIS
   @DF-RHF iter   6:  -173.62586403170721   -3.53027e-06   4.27564e-06 DIIS
   @DF-RHF iter   7:  -173.62586416859628   -1.36889e-07   9.53377e-07 DIIS
   @DF-RHF iter   8:  -173.62586417645568   -7.85940e-09   1.59905e-07 DIIS
   @DF-RHF iter   9:  -173.62586417661092   -1.55239e-10   4.34354e-08 DIIS
   @DF-RHF iter  10:  -173.62586417661942   -8.49809e-12   1.10182e-08 DIIS
   @DF-RHF iter  11:  -173.62586417662038   -9.66338e-13   2.54324e-09 DIIS
   @DF-RHF iter  12:  -173.62586417662061   -2.27374e-13   6.26211e-10 DIIS
   @DF-RHF iter  13:  -173.62586417662041    1.98952e-13   1.08409e-10 DIIS
   @DF-RHF iter  14:  -173.62586417662055   -1.42109e-13   2.01204e-11 DIIS
  Energy and wave function converged.


  ==> Post-Iterations <==

    Orbital Energies [Eh]
    ---------------------

    Doubly Occupied:                                                      

       1A    -15.894564     2A    -11.474604     3A    -11.470508  
       4A    -11.466484     5A     -1.551435     6A     -1.199158  
       7A     -1.182483     8A     -1.092131     9A     -0.952354  
      10A     -0.881922    11A     -0.867527    12A     -0.789305  
      13A     -0.768814    14A     -0.746618    15A     -0.735238  
      16A     -0.726080    17A     -0.713017  

    Virtual:                                                              

      18A     -0.009394    19A      0.054376    20A      0.080606  
      21A      0.093720    22A      0.096124    23A      0.104661  
      24A      0.111046    25A      0.119622    26A      0.151086  
      27A      0.160579    28A      0.182561    29A      0.199739  
      30A      0.223712    31A      0.516724    32A      0.520652  
      33A      0.527589    34A      0.556535    35A      0.577240  
      36A      0.646911    37A      0.673299    38A      0.710770  
      39A      0.793730    40A      0.832883    41A      0.841246  
      42A      0.880070    43A      0.914002    44A      0.930223  
      45A      0.939655    46A      0.954362    47A      0.977422  
      48A      0.986088    49A      0.999692    50A      1.011357  
      51A      1.026218    52A      1.046082    53A      1.074208  
      54A      1.328673    55A      1.371801    56A      1.443863  
      57A      1.547537    58A      1.832052    59A      1.869755  
      60A      1.961623    61A      1.989369    62A      2.037028  
      63A      2.072834    64A      2.147125    65A      2.199247  
      66A      2.237033    67A      2.257575    68A      2.322949  
      69A      2.338241    70A      2.370757    71A      2.404484  
      72A      2.608775    73A      2.647484    74A      2.701245  
      75A      2.845638    76A      2.887085    77A      4.244684  
      78A      4.424495    79A      4.450486    80A      4.573120  

    Final Occupation by Irrep:
              A 
    DOCC [    17 ]

  @DF-RHF Final Energy:  -173.62586417662055

   => Energetics <=

    Nuclear Repulsion Energy =            148.9458446995293741
    One-Electron Energy =                -520.1189295805025949
    Two-Electron Energy =                 197.5472207043526396
    Total Energy =                       -173.6258641766205528

Computation Completed


Properties will be evaluated at   0.000000,   0.000000,   0.000000 [a0]

Properties computed using the SCF density matrix

  Nuclear Dipole Moment: [e a0]
     X:    -0.1394      Y:     0.1260      Z:     0.6586

  Electronic Dipole Moment: [e a0]
     X:     0.0959      Y:    -0.1229      Z:    -1.0230

  Dipole Moment: [e a0]
     X:    -0.0435      Y:     0.0031      Z:    -0.3644     Total:     0.3670

  Dipole Moment: [D]
     X:    -0.1105      Y:     0.0078      Z:    -0.9263     Total:     0.9329


*** tstop() called on node44.bme.utexas.edu at Thu Nov  4 21:26:01 2021
Module time:
	user time   =       2.68 seconds =       0.04 minutes
	system time =       0.10 seconds =       0.00 minutes
	total time  =          4 seconds =       0.07 minutes
Total time:
	user time   =       2.68 seconds =       0.04 minutes
	system time =       0.10 seconds =       0.00 minutes
	total time  =          4 seconds =       0.07 minutes

*** tstart() called on node44.bme.utexas.edu
*** at Thu Nov  4 21:26:01 2021


  //>>>>>>>>>>>>>>>>>>>>>>>>>>>>>>>>>>>//
  //               DFMP2               //
  //<<<<<<<<<<<<<<<<<<<<<<<<<<<<<<<<<<<//

   => Loading Basis Set <=

    Name: (6-31G* AUX)
    Role: RIFIT
    Keyword: DF_BASIS_MP2
    atoms 1    entry N          line   197 file /home/bdw2292/miniconda3/envs/amoebamdpoltype/share/psi4/basis/cc-pvdz-ri.gbs 
    atoms 2-4  entry C          line   159 file /home/bdw2292/miniconda3/envs/amoebamdpoltype/share/psi4/basis/cc-pvdz-ri.gbs 
    atoms 5-14 entry H          line    19 file /home/bdw2292/miniconda3/envs/amoebamdpoltype/share/psi4/basis/cc-pvdz-ri.gbs 

	 --------------------------------------------------------
	                          DF-MP2                         
	      2nd-Order Density-Fitted Moller-Plesset Theory     
	              RMP2 Wavefunction,   1 Threads             
	                                                         
	        Rob Parrish, Justin Turney, Andy Simmonett,      
	           Ed Hohenstein, and C. David Sherrill          
	 --------------------------------------------------------

   => Auxiliary Basis Set <=

  Basis Set: (6-31G* AUX)
    Blend: CC-PVDZ-RI
    Number of shells: 132
    Number of basis function: 364
    Number of Cartesian functions: 414
    Spherical Harmonics?: true
    Max angular momentum: 3

	 --------------------------------------------------------
	                 NBF =    80, NAUX =   364
	 --------------------------------------------------------
	   CLASS    FOCC     OCC    AOCC    AVIR     VIR    FVIR
	   PAIRS       0      17      17      63      63       0
	 --------------------------------------------------------

  DFHelper Memory: AOs need 0.031 GiB; user supplied 5.821 GiB. Using in-core AOs.


         ------------------------------------------------------------
                                     CPHF                           
                                  Rob Parrish                       
         ------------------------------------------------------------

  ==> Geometry <==

    Molecular point group: c1
    Full point group: C1

    Geometry (in Angstrom), charge = 1, multiplicity = 1:

       Center              X                  Y                   Z               Mass       
    ------------   -----------------  -----------------  -----------------  -----------------
         N            0.008587276926    -0.008012114826    -0.349613571117    14.003074004430
         C           -0.012312723074     1.359687885174     0.136086428883    12.000000000000
         C           -1.192112723074    -0.647712114826     0.209386428883    12.000000000000
         C            1.206887276926    -0.713912114826     0.003586428883    12.000000000000
         H           -0.091612723074     0.005987885174    -1.376613571117     1.007825032230
         H           -1.062212723074     1.723787885174    -0.031413571117     1.007825032230
         H            0.663187276926     2.028087885174    -0.403313571117     1.007825032230
         H           -1.284512723074    -1.695912114826    -0.112013571117     1.007825032230
         H           -2.042812723074    -0.010412114826    -0.152613571117     1.007825032230
         H            2.037287276926    -0.026312114826     0.306386428883     1.007825032230
         H            1.068987276926    -1.453312114826     0.813086428883     1.007825032230
         H            1.606387276926    -1.274412114826    -0.881113571117     1.007825032230
         H            0.125687276926     1.349687885174     1.233186428883     1.007825032230
         H           -1.169012723074    -0.512812114826     1.305886428883     1.007825032230

  Nuclear repulsion =  148.945844699529374
  Reference energy  = -173.625864176620553

  ==> Basis Set <==

  Basis Set: 6-31G*
    Blend: 6-31G*
    Number of shells: 44
    Number of basis function: 80
    Number of Cartesian functions: 80
    Spherical Harmonics?: false
    Max angular momentum: 2

  ==> CGRSolver (by Rob Parrish) <==

   Number of roots    =         1
   Preconditioning    =    JACOBI
   Convergence cutoff =     1E-06
   Maximum iterations =       100

  ==> CPHFRHamiltonian (by Rob Parrish) <== 

  ==> MemDFJK: Density-Fitted J/K Matrices <==

    J tasked:                   Yes
    K tasked:                   Yes
    wK tasked:                   No
    OpenMP threads:               1
    Memory [MiB]:              5960
    Algorithm:                 Core
    Schwarz Cutoff:           1E-12
    Mask sparsity (%):       0.0938
    Fitting Condition:        1E-10

   => Auxiliary Basis Set <=

  Basis Set: (6-31G* AUX)
    Blend: CC-PVDZ-JKFIT
    Number of shells: 186
    Number of basis function: 574
    Number of Cartesian functions: 574
    Spherical Harmonics?: false
    Max angular momentum: 3

  ==> CPHF Iterations <==

  => Iterations <=

             Iter  Converged  Remaining    Residual
  CGR           1          0          1   6.876E-02
  CGR           2          0          1   1.053E-02
  CGR           3          0          1   3.668E-03
  CGR           4          0          1   6.664E-04
  CGR           5          0          1   1.806E-04
  CGR           6          0          1   3.372E-05
  CGR           7          0          1   6.351E-06
  CGR           8          0          1   2.138E-06
  CGR           9          1          0   3.726E-07

    CGRSolver converged.

  ==> DFCorrGrad: Density-Fitted Correlated Gradients <==

    OpenMP threads:              1
    Integrals threads:           1
    Memory [GiB]:            5.821
    Schwarz Cutoff:          0E+00
    Fitting Condition:       1E-10

   => Auxiliary Basis Set <=

  Basis Set: (6-31G* AUX)
    Blend: CC-PVDZ-JKFIT
    Number of shells: 186
    Number of basis function: 574
    Number of Cartesian functions: 574
    Spherical Harmonics?: false
    Max angular momentum: 3

	-----------------------------------------------------------
	 ==================> DF-MP2 Energies <==================== 
	-----------------------------------------------------------
	 Reference Energy          =    -173.6258641766205528 [Eh]
	 Singles Energy            =      -0.0000000000000000 [Eh]
	 Same-Spin Energy          =      -0.1338399214003761 [Eh]
	 Opposite-Spin Energy      =      -0.4425749247173160 [Eh]
	 Correlation Energy        =      -0.5764148461176920 [Eh]
	 Total Energy              =    -174.2022790227382529 [Eh]
	-----------------------------------------------------------
	 ================> DF-SCS-MP2 Energies <================== 
	-----------------------------------------------------------
	 SCS Same-Spin Scale       =       0.3333333333333333 [-]
	 SCS Opposite-Spin Scale   =       1.2000000000000000 [-]
	 SCS Same-Spin Energy      =      -0.0446133071334587 [Eh]
	 SCS Opposite-Spin Energy  =      -0.5310899096607792 [Eh]
	 SCS Correlation Energy    =      -0.5757032167942379 [Eh]
	 SCS Total Energy          =    -174.2015673934147912 [Eh]
	-----------------------------------------------------------


  -Total Gradient:
     Atom            X                  Y                   Z
    ------   -----------------  -----------------  -----------------
       1        0.016962191467    -0.000768599955     0.011756506837
       2        0.031830324610    -0.041263762779    -0.011664233372
       3        0.038211952823    -0.006353283425    -0.001244384207
       4       -0.072030891126     0.031405352450     0.001569326491
       5       -0.000899870849    -0.000506976479    -0.003529452364
       6       -0.021745352148    -0.000453958629    -0.001510484446
       7       -0.005025918482     0.006285480946    -0.004641510588
       8       -0.001246653363    -0.007760727498    -0.004155825845
       9       -0.008790640582     0.022420942578    -0.004241248139
      10        0.017521981203     0.007042144046     0.004360308361
      11        0.005479897432    -0.010340666367     0.005646955359
      12        0.009995485531    -0.007378099067    -0.013803035716
      13       -0.007287436649    -0.001890589534     0.012035508280
      14       -0.002975069869     0.009562743715     0.009421569349


*** tstop() called on node44.bme.utexas.edu at Thu Nov  4 21:26:06 2021
Module time:
	user time   =       4.55 seconds =       0.08 minutes
	system time =       0.07 seconds =       0.00 minutes
	total time  =          5 seconds =       0.08 minutes
Total time:
	user time   =       7.23 seconds =       0.12 minutes
	system time =       0.17 seconds =       0.00 minutes
	total time  =          9 seconds =       0.15 minutes

			-----------------------------------------
			 OPTKING 2.0: for geometry optimizations 
			  - R.A. King,  Bethel University        
			-----------------------------------------
	At level 1: Red. Int., RFO, no backsteps, dynamic trust

	Internal coordinates to be generated automatically.
	Detected frag 1 with atoms:  1 2 3 4 5 6 7 8 9 10 11 12 13 14
	---Fragment 1 Bond Connectivity---
	 1 : 2 3 4 5
	 2 : 1 6 7 13
	 3 : 1 8 9 14
	 4 : 1 10 11 12
	 5 : 1
	 6 : 2
	 7 : 2
	 8 : 3
	 9 : 3
	 10 : 4
	 11 : 4
	 12 : 4
	 13 : 2
	 14 : 3

	Assuming in current code that numbering for constraints corresponds to unified fragment.
	Frozen dihedral atom list: 
	     3     1     2     6
	     2     1     3     8
	     2     1     4    10
	---Fragment 1 Geometry and Gradient---
	 N           0.0162276016       -0.0151407027       -0.6606738992
	 C          -0.0232676745        2.5694377191        0.2571660800
	 C          -2.2527665573       -1.2239985052        0.3956830050
	 C           2.2806864177       -1.3490983747        0.0067773684
	 H          -0.1731229562        0.0113154630       -2.6014226300
	 H          -2.0072911336        3.2574870014       -0.0593630460
	 H           1.2532423233        3.8325306613       -0.7621521921
	 H          -2.4273772513       -3.2048094299       -0.2116749717
	 H          -3.8603565722       -0.0196760454       -0.2883978524
	 H           3.8499149923       -0.0497226908        0.5789864391
	 H           2.0200931850       -2.7463618718        1.5365106669
	 H           3.0356320048       -2.4082898680       -1.6650633348
	 H           0.2375145308        2.5505404578        2.3303846122
	 H          -2.2091138838       -0.9690744508        2.4677677015
	             0.0169621915       -0.0007686000        0.0117565068
	             0.0318303246       -0.0412637628       -0.0116642334
	             0.0382119528       -0.0063532834       -0.0012443842
	            -0.0720308911        0.0314053525        0.0015693265
	            -0.0008998708       -0.0005069765       -0.0035294524
	            -0.0217453521       -0.0004539586       -0.0015104844
	            -0.0050259185        0.0062854809       -0.0046415106
	            -0.0012466534       -0.0077607275       -0.0041558258
	            -0.0087906406        0.0224209426       -0.0042412481
	             0.0175219812        0.0070421440        0.0043603084
	             0.0054798974       -0.0103406664        0.0056469554
	             0.0099954855       -0.0073780991       -0.0138030357
	            -0.0072874366       -0.0018905895        0.0120355083
	            -0.0029750699        0.0095627437        0.0094215693

	Previous optimization step data not found.  Starting new optimization.

	---Fragment 1 Intrafragment Coordinates---
	 - Coordinate -           - BOHR/RAD -       - ANG/DEG -
	 R(1,2)           =         2.742998	       1.451532
	 R(1,3)           =         2.779489	       1.470842
	 R(1,4)           =         2.711588	       1.434910
	 R(1,5)           =         1.950143	       1.031971
	 R(2,6)           =         2.123665	       1.123795
	 R(2,7)           =         2.064919	       1.092708
	 R(2,13)          =         2.089641	       1.105790
	 R(3,8)           =         2.079179	       1.100254
	 R(3,9)           =         2.121958	       1.122892
	 R(3,14)          =         2.088164	       1.105009
	 R(4,10)          =         2.116194	       1.119842
	 R(4,11)          =         2.088142	       1.104997
	 R(4,12)          =         2.118226	       1.120917
	 B(1,2,6)         =         1.843004	     105.596325
	 B(1,2,7)         =         1.984809	     113.721167
	 B(1,2,13)        =         1.898283	     108.763610
	 B(1,3,8)         =         1.951831	     111.831688
	 B(1,3,9)         =         1.822537	     104.423685
	 B(1,3,14)        =         1.882801	     107.876555
	 B(1,4,10)        =         1.964652	     112.566277
	 B(1,4,11)        =         1.988089	     113.909134
	 B(1,4,12)        =         1.927675	     110.447635
	 B(2,1,3)         =         1.845101	     105.716495
	 B(2,1,4)         =         1.974901	     113.153478
	 B(2,1,5)         =         1.895280	     108.591534
	 B(3,1,4)         =         1.954349	     111.975945
	 B(3,1,5)         =         1.880589	     107.749805
	 B(4,1,5)         =         1.909984	     109.434007
	 B(6,2,7)         =         1.881555	     107.805185
	 B(6,2,13)        =         1.841489	     105.509532
	 B(7,2,13)        =         2.002193	     114.717191
	 B(8,3,9)         =         1.963735	     112.513752
	 B(8,3,14)        =         1.990977	     114.074581
	 B(9,3,14)        =         1.840504	     105.453126
	 B(10,4,11)       =         1.881068	     107.777283
	 B(10,4,12)       =         1.829842	     104.842210
	 B(11,4,12)       =         1.863020	     106.743198
	*D(2,1,3,8)       =         3.126152	     179.115315
	 D(2,1,3,9)       =         0.997993	      57.180781
	 D(2,1,3,14)      =        -0.954003	     -54.660367
	*D(2,1,4,10)      =        -0.307453	     -17.615776
	 D(2,1,4,11)      =         1.840808	     105.470507
	 D(2,1,4,12)      =        -2.346126	    -134.423144
	*D(3,1,2,6)       =        -0.812016	     -46.525083
	 D(3,1,2,7)       =        -2.871449	    -164.521927
	 D(3,1,2,13)      =         1.157275	      66.306968
	 D(3,1,4,10)      =        -2.390636	    -136.973354
	 D(3,1,4,11)      =        -0.242375	     -13.887071
	 D(3,1,4,12)      =         1.853876	     106.219278
	 D(4,1,2,6)       =        -2.956988	    -169.422947
	 D(4,1,2,7)       =         1.266764	      72.580209
	 D(4,1,2,13)      =        -0.987697	     -56.590896
	 D(4,1,3,8)       =        -0.999045	     -57.241074
	 D(4,1,3,9)       =        -3.127204	    -179.175608
	 D(4,1,3,14)      =         1.203985	      68.983244
	 D(5,1,2,6)       =         1.201936	      68.865885
	 D(5,1,2,7)       =        -0.857497	     -49.130959
	 D(5,1,2,13)      =        -3.111958	    -178.302064
	 D(5,1,3,8)       =         1.102171	      63.149739
	 D(5,1,3,9)       =        -1.025988	     -58.784795
	 D(5,1,3,14)      =        -2.977984	    -170.625943
	 D(5,1,4,10)      =         1.808531	     103.621182
	 D(5,1,4,11)      =        -2.326394	    -133.292534
	 D(5,1,4,12)      =        -0.230142	     -13.186185

	Current energy   :      -174.2022790227

	Generating empirical Hessian (Schlegel '84) for each fragment.
	Taking RFO optimization step.
	Going to follow RFO solution 1.
	Using RFO vector 1.
	Norm of target step-size    0.42425
	Projected energy change by RFO approximation:        -0.0306806328

	Back-transformation to cartesian coordinates...
	Could not converge backtransformation.
	Using first guess instead.

	Back-transformation to cartesian coordinates to adjust frozen coordinates...
	Successfully converged to displaced geometry.

	--- Internal Coordinate Step in ANG or DEG, aJ/ANG or AJ/DEG ---
	 ---------------------------------------------------------------------------
	   Coordinate                Previous        Force       Change         New 
	   ----------                --------       ------       ------       ------
	    1 R(1,2)          =      1.451532     0.305405     0.777136     2.228667
	    2 R(1,3)          =      1.470842     0.234200     0.736359     2.207201
	    3 R(1,4)          =      1.434910     0.357087     0.528202     1.963113
	    4 R(1,5)          =      1.031971    -0.029601     0.124868     1.156839
	    5 R(2,6)          =      1.123795    -0.168017     0.390112     1.513907
	    6 R(2,7)          =      1.092708    -0.024955     0.431556     1.524264
	    7 R(2,13)         =      1.105790    -0.091026     0.119140     1.224930
	    8 R(3,8)          =      1.100254    -0.071778     0.525508     1.625762
	    9 R(3,9)          =      1.122892    -0.170971     0.299307     1.422198
	   10 R(3,14)         =      1.105009    -0.086130     0.165301     1.270309
	   11 R(4,10)         =      1.119842    -0.152384     0.511368     1.631210
	   12 R(4,11)         =      1.104997    -0.085455     0.113917     1.218914
	   13 R(4,12)         =      1.120917    -0.149500     0.458454     1.579371
	   14 B(1,2,6)        =    105.596325     0.001006     3.959593   109.555918
	   15 B(1,2,7)        =    113.721167    -0.000659    -5.810273   107.910895
	   16 B(1,2,13)       =    108.763610     0.000052    13.578282   122.341892
	   17 B(1,3,8)        =    111.831688    -0.000342    -1.755701   110.075986
	   18 B(1,3,9)        =    104.423685     0.001200    12.873903   117.297588
	   19 B(1,3,14)       =    107.876555     0.000145     0.691476   108.568031
	   20 B(1,4,10)       =    112.566277    -0.000405    -2.076225   110.490052
	   21 B(1,4,11)       =    113.909134    -0.000585   -15.971131    97.938002
	   22 B(1,4,12)       =    110.447635    -0.000111    12.099336   122.546971
	   23 B(2,1,3)        =    105.716495     0.001039     6.682719   112.399214
	   24 B(2,1,4)        =    113.153478    -0.000395     1.587931   114.741409
	   25 B(2,1,5)        =    108.591534    -0.000149    10.089178   118.680711
	   26 B(3,1,4)        =    111.975945    -0.000343     2.910809   114.886755
	   27 B(3,1,5)        =    107.749805    -0.000393    -3.957622   103.792183
	   28 B(4,1,5)        =    109.434007     0.000248   -19.133470    90.300537
	   29 B(6,2,7)        =    107.805185     0.000023     9.514510   117.319696
	   30 B(6,2,13)       =    105.509532    -0.000071    -6.762601    98.746931
	   31 B(7,2,13)       =    114.717191    -0.000196   -13.433883   101.283309
	   32 B(8,3,9)        =    112.513752    -0.000714    -1.046855   111.466898
	   33 B(8,3,14)       =    114.074581    -0.000164     7.047322   121.121903
	   34 B(9,3,14)       =    105.453126     0.000032   -18.379956    87.073170
	   35 B(10,4,11)      =    107.777283     0.000711    15.241367   123.018650
	   36 B(10,4,12)      =    104.842210     0.000138    -0.318952   104.523257
	   37 B(11,4,12)      =    106.743198     0.000358    -7.401882    99.341316
	   38 *D(2,1,3,8)     =    179.115315    -0.000000     0.000000   179.115315
	   39 D(2,1,3,9)      =     57.180781     0.000067    -6.900721    50.280060
	   40 D(2,1,3,14)     =    -54.660367    -0.000078     8.466756   -46.193611
	   41 *D(2,1,4,10)    =    -17.615776     0.000000     0.000000   -17.615776
	   42 D(2,1,4,11)     =    105.470507     0.000040     6.664481   112.134988
	   43 D(2,1,4,12)     =   -134.423144     0.000035    -6.977952  -141.401096
	   44 *D(3,1,2,6)     =    -46.525083    -0.000000     0.000000   -46.525083
	   45 D(3,1,2,7)      =   -164.521927    -0.000072   -10.807558  -175.329485
	   46 D(3,1,2,13)     =     66.306968     0.000099     1.746077    68.053045
	   47 D(3,1,4,10)     =   -136.973354    -0.000189   -13.197538  -150.170892
	   48 D(3,1,4,11)     =    -13.887071    -0.000149    -6.533057   -20.420128
	   49 D(3,1,4,12)     =    106.219278    -0.000154   -20.175490    86.043788
	   50 D(4,1,2,6)      =   -169.422947    -0.000011   -10.819651  -180.242598
	   51 D(4,1,2,7)      =     72.580209    -0.000084   -21.627209    50.952999
	   52 D(4,1,2,13)     =    -56.590896     0.000087    -9.073574   -65.664470
	   53 D(4,1,3,8)      =    -57.241074     0.000001    10.003537   -47.237537
	   54 D(4,1,3,9)      =   -179.175608     0.000068     3.102816  -176.072792
	   55 D(4,1,3,14)     =     68.983244    -0.000078    18.470293    87.453537
	   56 D(5,1,2,6)      =     68.865885     0.000000     5.900023    74.765907
	   57 D(5,1,2,7)      =    -49.130959    -0.000072    -4.907536   -54.038495
	   58 D(5,1,2,13)     =   -178.302064     0.000099     7.646100  -170.655964
	   59 D(5,1,3,8)      =     63.149739    -0.000036   -13.504841    49.644898
	   60 D(5,1,3,9)      =    -58.784795     0.000031   -20.405562   -79.190357
	   61 D(5,1,3,14)     =   -170.625943    -0.000114    -5.038085  -175.664028
	   62 D(5,1,4,10)     =    103.621182    -0.000064     0.826614   104.447796
	   63 D(5,1,4,11)     =   -133.292534    -0.000024     7.491095  -125.801439
	   64 D(5,1,4,12)     =    -13.186185    -0.000029    -6.151338   -19.337523
	 ---------------------------------------------------------------------------
	Successfully symmetrized geometry.

  ==> Convergence Check <==

  Measures of convergence in internal coordinates in au.
  Criteria marked as inactive (o), active & met (*), and active & unmet ( ).
  --------------------------------------------------------------------------------------------- ~
   Step     Total Energy     Delta E     MAX Force     RMS Force      MAX Disp      RMS Disp    ~
  --------------------------------------------------------------------------------------------- ~
    Convergence Criteria             o    4.50e-04 *    3.00e-04 *    1.80e-03 *    1.20e-03 *  ~
  --------------------------------------------------------------------------------------------- ~
      1    -174.20227902   -1.74e+02 o    4.33e-02      1.10e-02      1.47e+00      4.17e-01    ~
  ---------------------------------------------------------------------------------------------

	Writing optimization data to binary file.
	Structure for next step:
	Cartesian Geometry (in Angstrom)
	    N     0.0670702648   0.1361585429  -0.3622315405
	    C    -1.4036668277   1.5015085999   0.6071548241
	    C    -0.6118098170  -1.9640385020  -0.3678200364
	    C     1.9289995375   0.4010196442   0.2006888632
	    H     0.3654082461   0.3324929882  -1.4625607544
	    H    -2.7932618082   1.2012934613   0.0867597083
	    H    -0.8915983058   2.9287309644   0.4515811423
	    H     0.4893593952  -2.9045230925  -1.1067503625
	    H    -1.9247912826  -2.2238116902  -0.8487002128
	    H     2.1084511664   1.8573914343   0.9131657144
	    H     2.0763195733  -0.6523409243   0.7960717441
	    H     3.1431430086   0.2994456169  -0.8042746710
	    H    -1.6418993547   1.4619190948   1.8080425507
	    H    -1.0493019182  -2.2508157461   0.7897830320
			--------------------------
			 OPTKING Finished Execution 
			--------------------------

    Structure for next step:
    Molecular point group: c1
    Full point group: C1

    Geometry (in Angstrom), charge = 1, multiplicity = 1:

    N            0.070692545047     0.115874591103    -0.376144726476
    C           -1.400044553197     1.481224653518     0.593241641938
    C           -0.608187539424    -1.984322461975    -0.381733222414
    C            1.932621825114     0.380735693505     0.186775679406
    H            0.369030527521     0.312209037231    -1.476473944696
    H           -2.789639539127     1.181009513770     0.072846524073
    H           -0.887976029273     2.908447023650     0.437667959478
    H            0.492981677141    -2.924807056170    -1.120663551455
    H           -1.921169010167    -2.244095651235    -0.862613400700
    H            2.112073454660     1.837107489321     0.899252533370
    H            2.079941861461    -0.672624879148     0.782158562623
    H            3.146765300930     0.279161665781    -0.818187858797
    H           -1.638277081135     1.441635148269     1.794129373225
    H           -1.045679642283    -2.271099707267     0.775869850519

gradient() will perform analytic gradient computation.
    SCF Algorithm Type (re)set to DF.

*** tstart() called on node44.bme.utexas.edu
*** at Thu Nov  4 21:26:06 2021

   => Loading Basis Set <=

    Name: 6-31G*
    Role: ORBITAL
    Keyword: BASIS
    atoms 1    entry N          line   128 file /home/bdw2292/miniconda3/envs/amoebamdpoltype/share/psi4/basis/6-31gs.gbs 
    atoms 2-4  entry C          line   111 file /home/bdw2292/miniconda3/envs/amoebamdpoltype/share/psi4/basis/6-31gs.gbs 
    atoms 5-14 entry H          line    44 file /home/bdw2292/miniconda3/envs/amoebamdpoltype/share/psi4/basis/6-31gs.gbs 


         ---------------------------------------------------------
                                   SCF
               by Justin Turney, Rob Parrish, Andy Simmonett
                          and Daniel G. A. Smith
                              RHF Reference
                        1 Threads,   7947 MiB Core
         ---------------------------------------------------------

  ==> Geometry <==

    Molecular point group: c1
    Full point group: C1

    Geometry (in Angstrom), charge = 1, multiplicity = 1:

       Center              X                  Y                   Z               Mass       
    ------------   -----------------  -----------------  -----------------  -----------------
         N            0.070692545047     0.115874591103    -0.376144726476    14.003074004430
         C           -1.400044553197     1.481224653518     0.593241641938    12.000000000000
         C           -0.608187539424    -1.984322461975    -0.381733222414    12.000000000000
         C            1.932621825114     0.380735693505     0.186775679406    12.000000000000
         H            0.369030527521     0.312209037231    -1.476473944696     1.007825032230
         H           -2.789639539127     1.181009513770     0.072846524073     1.007825032230
         H           -0.887976029273     2.908447023650     0.437667959478     1.007825032230
         H            0.492981677141    -2.924807056170    -1.120663551455     1.007825032230
         H           -1.921169010167    -2.244095651235    -0.862613400700     1.007825032230
         H            2.112073454660     1.837107489321     0.899252533370     1.007825032230
         H            2.079941861461    -0.672624879148     0.782158562623     1.007825032230
         H            3.146765300930     0.279161665781    -0.818187858797     1.007825032230
         H           -1.638277081135     1.441635148269     1.794129373225     1.007825032230
         H           -1.045679642283    -2.271099707267     0.775869850519     1.007825032230

  Running in c1 symmetry.

  Rotational constants: A =      0.14216  B =      0.13015  C =      0.07434 [cm^-1]
  Rotational constants: A =   4261.99450  B =   3901.91015  C =   2228.62227 [MHz]
  Nuclear repulsion =  105.674320686613655

  Charge       = 1
  Multiplicity = 1
  Electrons    = 34
  Nalpha       = 17
  Nbeta        = 17

  ==> Algorithm <==

  SCF Algorithm Type is DF.
  DIIS enabled.
  MOM disabled.
  Fractional occupation disabled.
  Guess Type is READ.
  Energy threshold   = 1.00e-10
  Density threshold  = 1.00e-10
  Integral threshold = 0.00e+00

  ==> Primary Basis <==

  Basis Set: 6-31G*
    Blend: 6-31G*
    Number of shells: 44
    Number of basis function: 80
    Number of Cartesian functions: 80
    Spherical Harmonics?: false
    Max angular momentum: 2

   => Loading Basis Set <=

    Name: (6-31G* AUX)
    Role: JKFIT
    Keyword: DF_BASIS_SCF
    atoms 1    entry N          line   171 file /home/bdw2292/miniconda3/envs/amoebamdpoltype/share/psi4/basis/cc-pvdz-jkfit.gbs 
    atoms 2-4  entry C          line   121 file /home/bdw2292/miniconda3/envs/amoebamdpoltype/share/psi4/basis/cc-pvdz-jkfit.gbs 
    atoms 5-14 entry H          line    51 file /home/bdw2292/miniconda3/envs/amoebamdpoltype/share/psi4/basis/cc-pvdz-jkfit.gbs 

   => Loading Basis Set <=

    Name: 6-31G*
    Role: ORBITAL
    Keyword: BASIS
    atoms 1    entry N          line   128 file /home/bdw2292/miniconda3/envs/amoebamdpoltype/share/psi4/basis/6-31gs.gbs 
    atoms 2-4  entry C          line   111 file /home/bdw2292/miniconda3/envs/amoebamdpoltype/share/psi4/basis/6-31gs.gbs 
    atoms 5-14 entry H          line    44 file /home/bdw2292/miniconda3/envs/amoebamdpoltype/share/psi4/basis/6-31gs.gbs 

  Reading orbitals from file 180, no projection.

  ==> Pre-Iterations <==

   -------------------------------------------------------
    Irrep   Nso     Nmo     Nalpha   Nbeta   Ndocc  Nsocc
   -------------------------------------------------------
     A         80      80       0       0       0       0
   -------------------------------------------------------
    Total      80      80      17      17      17       0
   -------------------------------------------------------

  ==> Integral Setup <==

  DFHelper Memory: AOs need 0.031 GiB; user supplied 5.821 GiB. Using in-core AOs.

  ==> MemDFJK: Density-Fitted J/K Matrices <==

    J tasked:                   Yes
    K tasked:                   Yes
    wK tasked:                   No
    OpenMP threads:               1
    Memory [MiB]:              5960
    Algorithm:                 Core
    Schwarz Cutoff:           1E-12
    Mask sparsity (%):       2.3750
    Fitting Condition:        1E-10

   => Auxiliary Basis Set <=

  Basis Set: (6-31G* AUX)
    Blend: CC-PVDZ-JKFIT
    Number of shells: 186
    Number of basis function: 574
    Number of Cartesian functions: 574
    Spherical Harmonics?: false
    Max angular momentum: 3

  Minimum eigenvalue in the overlap matrix is 2.3641760981E-02.
  Using Symmetric Orthogonalization.

  SCF Guess: Orbitals guess was supplied from a previous computation.

  ==> Iterations <==

                           Total Energy        Delta E     RMS |[F,P]|

   @DF-RHF iter   0:  -169.85550264815885   -1.69856e+02   1.71688e-02 
   @DF-RHF iter   1:  -172.56683991906289   -2.71134e+00   5.94438e-03 DIIS
   @DF-RHF iter   2:  -172.71722172316842   -1.50382e-01   4.46657e-03 DIIS
   @DF-RHF iter   3:  -172.78943058371601   -7.22089e-02   1.20650e-03 DIIS
   @DF-RHF iter   4:  -172.80024215393439   -1.08116e-02   7.07201e-04 DIIS
   @DF-RHF iter   5:  -172.80478852576462   -4.54637e-03   2.11739e-04 DIIS
   @DF-RHF iter   6:  -172.80550301613169   -7.14490e-04   7.17844e-05 DIIS
   @DF-RHF iter   7:  -172.80556879829794   -6.57822e-05   2.96333e-05 DIIS
   @DF-RHF iter   8:  -172.80558043387609   -1.16356e-05   7.85870e-06 DIIS
   @DF-RHF iter   9:  -172.80558164485760   -1.21098e-06   2.34285e-06 DIIS
   @DF-RHF iter  10:  -172.80558174602970   -1.01172e-07   1.25067e-06 DIIS
   @DF-RHF iter  11:  -172.80558176425455   -1.82249e-08   4.31899e-07 DIIS
   @DF-RHF iter  12:  -172.80558176802964   -3.77509e-09   1.54683e-07 DIIS
   @DF-RHF iter  13:  -172.80558176849382   -4.64183e-10   5.49432e-08 DIIS
   @DF-RHF iter  14:  -172.80558176855297   -5.91456e-11   1.48611e-08 DIIS
   @DF-RHF iter  15:  -172.80558176855797   -5.00222e-12   5.19244e-09 DIIS
   @DF-RHF iter  16:  -172.80558176855769    2.84217e-13   2.67710e-09 DIIS
   @DF-RHF iter  17:  -172.80558176855791   -2.27374e-13   1.22708e-09 DIIS
   @DF-RHF iter  18:  -172.80558176855777    1.42109e-13   3.07313e-10 DIIS
   @DF-RHF iter  19:  -172.80558176855789   -1.13687e-13   1.21043e-10 DIIS
   @DF-RHF iter  20:  -172.80558176855803   -1.42109e-13   4.61041e-11 DIIS
  Energy and wave function converged.


  ==> Post-Iterations <==

    Orbital Energies [Eh]
    ---------------------

    Doubly Occupied:                                                      

       1A    -15.845735     2A    -11.578747     3A    -11.567892  
       4A    -11.543616     5A     -1.218349     6A     -1.025567  
       7A     -1.012014     8A     -0.973981     9A     -0.711297  
      10A     -0.682270    11A     -0.672001    12A     -0.660085  
      13A     -0.649362    14A     -0.631501    15A     -0.593870  
      16A     -0.574044    17A     -0.548053  

    Virtual:                                                              

      18A     -0.162393    19A     -0.094558    20A     -0.059544  
      21A     -0.033754    22A     -0.002684    23A      0.015370  
      24A      0.032976    25A      0.046294    26A      0.056392  
      27A      0.089247    28A      0.098325    29A      0.103635  
      30A      0.130845    31A      0.557103    32A      0.608541  
      33A      0.616066    34A      0.624275    35A      0.629083  
      36A      0.665093    37A      0.716086    38A      0.725851  
      39A      0.754946    40A      0.772045    41A      0.786515  
      42A      0.799573    43A      0.817596    44A      0.842821  
      45A      0.860786    46A      0.865949    47A      0.870439  
      48A      0.908312    49A      0.949125    50A      0.958670  
      51A      0.970755    52A      0.997826    53A      1.028799  
      54A      1.106855    55A      1.185504    56A      1.299420  
      57A      1.651617    58A      1.676850    59A      1.718466  
      60A      1.748159    61A      1.778985    62A      1.806210  
      63A      1.816531    64A      1.832220    65A      1.871180  
      66A      1.906258    67A      1.927199    68A      1.963073  
      69A      2.000360    70A      2.067102    71A      2.105906  
      72A      2.129683    73A      2.141508    74A      2.234363  
      75A      2.327323    76A      2.482698    77A      3.903898  
      78A      4.191105    79A      4.200926    80A      4.246835  

    Final Occupation by Irrep:
              A 
    DOCC [    17 ]

  @DF-RHF Final Energy:  -172.80558176855803

   => Energetics <=

    Nuclear Repulsion Energy =            105.6743206866136546
    One-Electron Energy =                -435.9830367211875455
    Two-Electron Energy =                 157.5031342660158487
    Total Energy =                       -172.8055817685580280

Computation Completed


Properties will be evaluated at   0.000000,   0.000000,   0.000000 [a0]

Properties computed using the SCF density matrix

  Nuclear Dipole Moment: [e a0]
     X:    -0.0770      Y:    -0.1438      Z:     0.4548

  Electronic Dipole Moment: [e a0]
     X:    -0.4488      Y:     0.0518      Z:    -0.2868

  Dipole Moment: [e a0]
     X:    -0.5258      Y:    -0.0920      Z:     0.1680     Total:     0.5596

  Dipole Moment: [D]
     X:    -1.3365      Y:    -0.2338      Z:     0.4271     Total:     1.4224


*** tstop() called on node44.bme.utexas.edu at Thu Nov  4 21:26:09 2021
Module time:
	user time   =       1.90 seconds =       0.03 minutes
	system time =       0.04 seconds =       0.00 minutes
	total time  =          3 seconds =       0.05 minutes
Total time:
	user time   =       9.26 seconds =       0.15 minutes
	system time =       0.25 seconds =       0.00 minutes
	total time  =         12 seconds =       0.20 minutes

*** tstart() called on node44.bme.utexas.edu
*** at Thu Nov  4 21:26:09 2021


  //>>>>>>>>>>>>>>>>>>>>>>>>>>>>>>>>>>>//
  //               DFMP2               //
  //<<<<<<<<<<<<<<<<<<<<<<<<<<<<<<<<<<<//

   => Loading Basis Set <=

    Name: (6-31G* AUX)
    Role: RIFIT
    Keyword: DF_BASIS_MP2
    atoms 1    entry N          line   197 file /home/bdw2292/miniconda3/envs/amoebamdpoltype/share/psi4/basis/cc-pvdz-ri.gbs 
    atoms 2-4  entry C          line   159 file /home/bdw2292/miniconda3/envs/amoebamdpoltype/share/psi4/basis/cc-pvdz-ri.gbs 
    atoms 5-14 entry H          line    19 file /home/bdw2292/miniconda3/envs/amoebamdpoltype/share/psi4/basis/cc-pvdz-ri.gbs 

	 --------------------------------------------------------
	                          DF-MP2                         
	      2nd-Order Density-Fitted Moller-Plesset Theory     
	              RMP2 Wavefunction,   1 Threads             
	                                                         
	        Rob Parrish, Justin Turney, Andy Simmonett,      
	           Ed Hohenstein, and C. David Sherrill          
	 --------------------------------------------------------

   => Auxiliary Basis Set <=

  Basis Set: (6-31G* AUX)
    Blend: CC-PVDZ-RI
    Number of shells: 132
    Number of basis function: 364
    Number of Cartesian functions: 414
    Spherical Harmonics?: true
    Max angular momentum: 3

	 --------------------------------------------------------
	                 NBF =    80, NAUX =   364
	 --------------------------------------------------------
	   CLASS    FOCC     OCC    AOCC    AVIR     VIR    FVIR
	   PAIRS       0      17      17      63      63       0
	 --------------------------------------------------------

  DFHelper Memory: AOs need 0.031 GiB; user supplied 5.821 GiB. Using in-core AOs.


         ------------------------------------------------------------
                                     CPHF                           
                                  Rob Parrish                       
         ------------------------------------------------------------

  ==> Geometry <==

    Molecular point group: c1
    Full point group: C1

    Geometry (in Angstrom), charge = 1, multiplicity = 1:

       Center              X                  Y                   Z               Mass       
    ------------   -----------------  -----------------  -----------------  -----------------
         N            0.070692545047     0.115874591103    -0.376144726476    14.003074004430
         C           -1.400044553197     1.481224653518     0.593241641938    12.000000000000
         C           -0.608187539424    -1.984322461975    -0.381733222414    12.000000000000
         C            1.932621825114     0.380735693505     0.186775679406    12.000000000000
         H            0.369030527521     0.312209037231    -1.476473944696     1.007825032230
         H           -2.789639539127     1.181009513770     0.072846524073     1.007825032230
         H           -0.887976029273     2.908447023650     0.437667959478     1.007825032230
         H            0.492981677141    -2.924807056170    -1.120663551455     1.007825032230
         H           -1.921169010167    -2.244095651235    -0.862613400700     1.007825032230
         H            2.112073454660     1.837107489321     0.899252533370     1.007825032230
         H            2.079941861461    -0.672624879148     0.782158562623     1.007825032230
         H            3.146765300930     0.279161665781    -0.818187858797     1.007825032230
         H           -1.638277081135     1.441635148269     1.794129373225     1.007825032230
         H           -1.045679642283    -2.271099707267     0.775869850519     1.007825032230

  Nuclear repulsion =  105.674320686613655
  Reference energy  = -172.805581768558028

  ==> Basis Set <==

  Basis Set: 6-31G*
    Blend: 6-31G*
    Number of shells: 44
    Number of basis function: 80
    Number of Cartesian functions: 80
    Spherical Harmonics?: false
    Max angular momentum: 2

  ==> CGRSolver (by Rob Parrish) <==

   Number of roots    =         1
   Preconditioning    =    JACOBI
   Convergence cutoff =     1E-06
   Maximum iterations =       100

  ==> CPHFRHamiltonian (by Rob Parrish) <== 

  ==> MemDFJK: Density-Fitted J/K Matrices <==

    J tasked:                   Yes
    K tasked:                   Yes
    wK tasked:                   No
    OpenMP threads:               1
    Memory [MiB]:              5960
    Algorithm:                 Core
    Schwarz Cutoff:           1E-12
    Mask sparsity (%):       2.3750
    Fitting Condition:        1E-10

   => Auxiliary Basis Set <=

  Basis Set: (6-31G* AUX)
    Blend: CC-PVDZ-JKFIT
    Number of shells: 186
    Number of basis function: 574
    Number of Cartesian functions: 574
    Spherical Harmonics?: false
    Max angular momentum: 3

  ==> CPHF Iterations <==

  => Iterations <=

             Iter  Converged  Remaining    Residual
  CGR           1          0          1   1.081E-01
  CGR           2          0          1   6.408E-02
  CGR           3          0          1   2.311E-02
  CGR           4          0          1   8.586E-03
  CGR           5          0          1   3.087E-03
  CGR           6          0          1   1.251E-03
  CGR           7          0          1   4.001E-04
  CGR           8          0          1   1.031E-04
  CGR           9          0          1   4.122E-05
  CGR          10          0          1   1.430E-05
  CGR          11          0          1   4.777E-06
  CGR          12          0          1   1.313E-06
  CGR          13          1          0   4.450E-07

    CGRSolver converged.

  ==> DFCorrGrad: Density-Fitted Correlated Gradients <==

    OpenMP threads:              1
    Integrals threads:           1
    Memory [GiB]:            5.821
    Schwarz Cutoff:          0E+00
    Fitting Condition:       1E-10

   => Auxiliary Basis Set <=

  Basis Set: (6-31G* AUX)
    Blend: CC-PVDZ-JKFIT
    Number of shells: 186
    Number of basis function: 574
    Number of Cartesian functions: 574
    Spherical Harmonics?: false
    Max angular momentum: 3

	-----------------------------------------------------------
	 ==================> DF-MP2 Energies <==================== 
	-----------------------------------------------------------
	 Reference Energy          =    -172.8055817685580280 [Eh]
	 Singles Energy            =      -0.0000000000000000 [Eh]
	 Same-Spin Energy          =      -0.1423280220437750 [Eh]
	 Opposite-Spin Energy      =      -0.5357447946858577 [Eh]
	 Correlation Energy        =      -0.6780728167296326 [Eh]
	 Total Energy              =    -173.4836545852876668 [Eh]
	-----------------------------------------------------------
	 ================> DF-SCS-MP2 Energies <================== 
	-----------------------------------------------------------
	 SCS Same-Spin Scale       =       0.3333333333333333 [-]
	 SCS Opposite-Spin Scale   =       1.2000000000000000 [-]
	 SCS Same-Spin Energy      =      -0.0474426740145917 [Eh]
	 SCS Opposite-Spin Energy  =      -0.6428937536230291 [Eh]
	 SCS Correlation Energy    =      -0.6903364276376208 [Eh]
	 SCS Total Energy          =    -173.4959181961956460 [Eh]
	-----------------------------------------------------------


  -Total Gradient:
     Atom            X                  Y                   Z
    ------   -----------------  -----------------  -----------------
       1       -0.036018156582     0.004080851875     0.021048927355
       2        0.049857961012    -0.054183605810    -0.002304569335
       3        0.051068524630     0.046607350151    -0.006143078733
       4       -0.034841402361     0.004586474851    -0.010421657499
       5        0.038613620733     0.004314858178    -0.056456595740
       6       -0.093962066607    -0.017258958260    -0.018044744982
       7        0.028747727840     0.093068611743     0.002699122969
       8        0.061719735265    -0.059523547093    -0.045987866403
       9       -0.086474145485    -0.031728539867    -0.005815030668
      10        0.015772862605     0.088501295226     0.038051138038
      11        0.009618084439    -0.063356822628     0.016698400927
      12        0.081508486180    -0.010151797980    -0.044918538455
      13       -0.032244104940     0.017658785058     0.057271105188
      14       -0.053367126729    -0.022614955444     0.054323387338


*** tstop() called on node44.bme.utexas.edu at Thu Nov  4 21:26:14 2021
Module time:
	user time   =       4.89 seconds =       0.08 minutes
	system time =       0.07 seconds =       0.00 minutes
	total time  =          5 seconds =       0.08 minutes
Total time:
	user time   =      14.15 seconds =       0.24 minutes
	system time =       0.32 seconds =       0.01 minutes
	total time  =         17 seconds =       0.28 minutes

			-----------------------------------------
			 OPTKING 2.0: for geometry optimizations 
			  - R.A. King,  Bethel University        
			-----------------------------------------
	At level 1: Red. Int., RFO, no backsteps, dynamic trust

	Previous internal coordinate definitions found.
	---Fragment 1 Geometry and Gradient---
	 N           0.1335895492        0.2189712421       -0.7108105166
	 C          -2.6457007690        2.7991089254        1.1210642295
	 C          -1.1493078824       -3.7498259977       -0.7213712434
	 C           3.6521259535        0.7194861869        0.3529548810
	 H           0.6973666289        0.5899895743       -2.7901313869
	 H          -5.2716547177        2.2317845326        0.1376599797
	 H          -1.6780315013        5.4961683251        0.8270725773
	 H           0.9316003547       -5.5270843060       -2.1177471910
	 H          -3.6304832699       -4.2407261802       -1.6301030795
	 H           3.9912403862        3.4716300178        1.6993410057
	 H           3.9305204750       -1.2710768068        1.4780654700
	 H           5.9465245999        0.5275390931       -1.5461509723
	 H          -3.0958950010        2.7242956031        3.3904131490
	 H          -1.9760481389       -4.2917564503        1.4661815265
	            -0.0360181566        0.0040808519        0.0210489274
	             0.0498579610       -0.0541836058       -0.0023045693
	             0.0510685246        0.0466073502       -0.0061430787
	            -0.0348414024        0.0045864749       -0.0104216575
	             0.0386136207        0.0043148582       -0.0564565957
	            -0.0939620666       -0.0172589583       -0.0180447450
	             0.0287477278        0.0930686117        0.0026991230
	             0.0617197353       -0.0595235471       -0.0459878664
	            -0.0864741455       -0.0317285399       -0.0058150307
	             0.0157728626        0.0885012952        0.0380511380
	             0.0096180844       -0.0633568226        0.0166984009
	             0.0815084862       -0.0101517980       -0.0449185385
	            -0.0322441049        0.0176587851        0.0572711052
	            -0.0533671267       -0.0226149554        0.0543233873

	---Fragment 1 Intrafragment Coordinates---
	 - Coordinate -           - BOHR/RAD -       - ANG/DEG -
	 R(1,2)           =         4.211571	       2.228667
	 R(1,3)           =         4.171006	       2.207201
	 R(1,4)           =         3.709745	       1.963113
	 R(1,5)           =         2.186109	       1.156839
	 R(2,6)           =         2.860870	       1.513907
	 R(2,7)           =         2.880442	       1.524264
	 R(2,13)          =         2.314782	       1.224930
	 R(3,8)           =         3.072245	       1.625762
	 R(3,9)           =         2.687565	       1.422198
	 R(3,14)          =         2.400536	       1.270309
	 R(4,10)          =         3.082540	       1.631210
	 R(4,11)          =         2.303415	       1.218914
	 R(4,12)          =         2.984579	       1.579371
	 B(1,2,6)         =         1.912111	     109.555918
	 B(1,2,7)         =         1.883400	     107.910895
	 B(1,2,13)        =         2.135269	     122.341892
	 B(1,3,8)         =         1.921188	     110.075986
	 B(1,3,9)         =         2.047229	     117.297588
	 B(1,3,14)        =         1.894870	     108.568031
	 B(1,4,10)        =         1.928415	     110.490052
	 B(1,4,11)        =         1.709341	      97.938002
	 B(1,4,12)        =         2.138848	     122.546971
	 B(2,1,3)         =         1.961736	     112.399214
	 B(2,1,4)         =         2.002615	     114.741409
	 B(2,1,5)         =         2.071369	     118.680711
	 B(3,1,4)         =         2.005152	     114.886755
	 B(3,1,5)         =         1.811515	     103.792183
	 B(4,1,5)         =         1.576042	      90.300537
	 B(6,2,7)         =         2.047615	     117.319696
	 B(6,2,13)        =         1.723459	      98.746931
	 B(7,2,13)        =         1.767727	     101.283309
	 B(8,3,9)         =         1.945464	     111.466898
	 B(8,3,14)        =         2.113976	     121.121903
	 B(9,3,14)        =         1.519714	      87.073170
	 B(10,4,11)       =         2.147080	     123.018650
	 B(10,4,12)       =         1.824275	     104.523257
	 B(11,4,12)       =         1.733833	      99.341316
	*D(2,1,3,8)       =         3.126152	     179.115315
	 D(2,1,3,9)       =         0.877553	      50.280060
	 D(2,1,3,14)      =        -0.806231	     -46.193611
	*D(2,1,4,10)      =        -0.307453	     -17.615776
	 D(2,1,4,11)      =         1.957125	     112.134988
	 D(2,1,4,12)      =        -2.467915	    -141.401096
	*D(3,1,2,6)       =        -0.812016	     -46.525083
	 D(3,1,2,7)       =        -3.060077	    -175.329485
	 D(3,1,2,13)      =         1.187750	      68.053045
	 D(3,1,4,10)      =        -2.620977	    -150.170892
	 D(3,1,4,11)      =        -0.356398	     -20.420128
	 D(3,1,4,12)      =         1.501747	      86.043788
	 D(4,1,2,6)       =         3.137359	     179.757402
	 D(4,1,2,7)       =         0.889298	      50.952999
	 D(4,1,2,13)      =        -1.146061	     -65.664470
	 D(4,1,3,8)       =        -0.824451	     -47.237537
	 D(4,1,3,9)       =        -3.073050	    -176.072792
	 D(4,1,3,14)      =         1.526352	      87.453537
	 D(5,1,2,6)       =         1.304911	      74.765907
	 D(5,1,2,7)       =        -0.943150	     -54.038495
	 D(5,1,2,13)      =        -2.978508	    -170.655964
	 D(5,1,3,8)       =         0.866467	      49.644898
	 D(5,1,3,9)       =        -1.382132	     -79.190357
	 D(5,1,3,14)      =        -3.065916	    -175.664028
	 D(5,1,4,10)      =         1.822958	     104.447796
	 D(5,1,4,11)      =        -2.195649	    -125.801439
	 D(5,1,4,12)      =        -0.337503	     -19.337523

	Current energy   :      -173.4836545853

	Energy change for the previous step:
		Projected    :        -0.0306806328
		Actual       :         0.7186244375

	Performing BFGS update.
	Previous computed or guess Hessian on step 1.
	Steps to be used in Hessian update: 1
	Taking RFO optimization step.
	Going to follow RFO solution 1.
	Using RFO vector 1.

	Determining step-restricting scale parameter for RS-RFO.
	Maximum step size allowed    0.50000

	 Iter      |step|        alpha        rfo_root  
	------------------------------------------------
	    0     0.82289       1.00000           1
	    1     0.61970       1.93947           1
	    2     0.52723       2.79578           1
	    3     0.50202       3.11938           1
	    4     0.50001       3.14735           1
	    5     0.50000       3.14753           1
	------------------------------------------------
	Norm of target step-size    0.50000
	Projected energy change by RFO approximation:        -0.1234098039

	Back-transformation to cartesian coordinates...
	Successfully converged to displaced geometry.

	Back-transformation to cartesian coordinates to adjust frozen coordinates...
	Successfully converged to displaced geometry.

	--- Internal Coordinate Step in ANG or DEG, aJ/ANG or AJ/DEG ---
	 ---------------------------------------------------------------------------
	   Coordinate                Previous        Force       Change         New 
	   ----------                --------       ------       ------       ------
	    1 R(1,2)          =      2.228667    -0.599063    -0.082851     2.145817
	    2 R(1,3)          =      2.207201    -0.595898    -0.080260     2.126942
	    3 R(1,4)          =      1.963113    -0.583435    -0.065266     1.897847
	    4 R(1,5)          =      1.156839    -0.530484    -0.039901     1.116939
	    5 R(2,6)          =      1.513907    -0.789861    -0.077343     1.436564
	    6 R(2,7)          =      1.524264    -0.795248    -0.077898     1.446366
	    7 R(2,13)         =      1.224930    -0.509543    -0.041538     1.183392
	    8 R(3,8)          =      1.625762    -0.800310    -0.084506     1.541257
	    9 R(3,9)          =      1.422198    -0.721671    -0.067614     1.354584
	   10 R(3,14)         =      1.270309    -0.601333    -0.050208     1.220101
	   11 R(4,10)         =      1.631210    -0.802209    -0.085309     1.545901
	   12 R(4,11)         =      1.218914    -0.527859    -0.042527     1.176387
	   13 R(4,12)         =      1.579371    -0.757094    -0.078727     1.500644
	   14 B(1,2,6)        =    109.555918    -0.000971    -0.724350   108.831568
	   15 B(1,2,7)        =    107.910895    -0.000573    -0.551953   107.358942
	   16 B(1,2,13)       =    122.341892    -0.002939    -3.345788   118.996104
	   17 B(1,3,8)        =    110.075986    -0.000235    -0.238117   109.837869
	   18 B(1,3,9)        =    117.297588    -0.002241    -2.446299   114.851289
	   19 B(1,3,14)       =    108.568031    -0.001350    -1.397509   107.170521
	   20 B(1,4,10)       =    110.490052    -0.000292    -0.243197   110.246855
	   21 B(1,4,11)       =     97.938002     0.000885     1.375169    99.313171
	   22 B(1,4,12)       =    122.546971    -0.002619    -3.038626   119.508345
	   23 B(2,1,3)        =    112.399214     0.000566     0.694702   113.093916
	   24 B(2,1,4)        =    114.741409    -0.000237    -0.262979   114.478429
	   25 B(2,1,5)        =    118.680711    -0.000720    -1.012237   117.668475
	   26 B(3,1,4)        =    114.886755    -0.000458    -0.623161   114.263593
	   27 B(3,1,5)        =    103.792183    -0.000170    -0.192410   103.599773
	   28 B(4,1,5)        =     90.300537     0.000981     1.370523    91.671060
	   29 B(6,2,7)        =    117.319696     0.000631     0.398634   117.718329
	   30 B(6,2,13)       =     98.746931     0.002125     2.197252   100.944183
	   31 B(7,2,13)       =    101.283309     0.001988     2.152230   103.435538
	   32 B(8,3,9)        =    111.466898     0.001070     0.974172   112.441070
	   33 B(8,3,14)       =    121.121903     0.000246    -0.082991   121.038912
	   34 B(9,3,14)       =     87.073170     0.002784     3.457573    90.530743
	   35 B(10,4,11)      =    123.018650    -0.000616    -1.047786   121.970865
	   36 B(10,4,12)      =    104.523257     0.001303     1.327884   105.851142
	   37 B(11,4,12)      =     99.341316     0.001018     1.248142   100.589457
	   38 *D(2,1,3,8)     =    179.115315    -0.000000    -0.000000   179.115315
	   39 D(2,1,3,9)      =     50.280060     0.000155     0.932820    51.212880
	   40 D(2,1,3,14)     =    -46.193611    -0.000231    -1.440302   -47.633913
	   41 *D(2,1,4,10)    =    -17.615776     0.000000    -0.000000   -17.615776
	   42 D(2,1,4,11)     =    112.134988    -0.000077    -0.524258   111.610730
	   43 D(2,1,4,12)     =   -141.401096     0.000154     0.878077  -140.523019
	   44 *D(3,1,2,6)     =    -46.525083    -0.000000    -0.000000   -46.525083
	   45 D(3,1,2,7)      =   -175.329485     0.000066     0.379425  -174.950060
	   46 D(3,1,2,13)     =     68.053045     0.000016     0.152291    68.205336
	   47 D(3,1,4,10)     =   -150.170892    -0.000030    -0.128618  -150.299510
	   48 D(3,1,4,11)     =    -20.420128    -0.000107    -0.652877   -21.073005
	   49 D(3,1,4,12)     =     86.043788     0.000124     0.749459    86.793247
	   50 D(4,1,2,6)      =    179.757402     0.000078     0.482924   180.240325
	   51 D(4,1,2,7)      =     50.952999     0.000144     0.862349    51.815349
	   52 D(4,1,2,13)     =    -65.664470     0.000094     0.635215   -65.029255
	   53 D(4,1,3,8)      =    -47.237537    -0.000053    -0.309231   -47.546768
	   54 D(4,1,3,9)      =   -176.072792     0.000101     0.623589  -175.449202
	   55 D(4,1,3,14)     =     87.453537    -0.000284    -1.749532    85.704005
	   56 D(5,1,2,6)      =     74.765907    -0.000074    -0.480555    74.285352
	   57 D(5,1,2,7)      =    -54.038495    -0.000008    -0.101130   -54.139624
	   58 D(5,1,2,13)     =   -170.655964    -0.000058    -0.328264  -170.984228
	   59 D(5,1,3,8)      =     49.644898     0.000153     0.969399    50.614297
	   60 D(5,1,3,9)      =    -79.190357     0.000307     1.902219   -77.288138
	   61 D(5,1,3,14)     =   -175.664028    -0.000078    -0.470903  -176.134930
	   62 D(5,1,4,10)     =    104.447796    -0.000081    -0.481909   103.965887
	   63 D(5,1,4,11)     =   -125.801439    -0.000158    -1.006168  -126.807607
	   64 D(5,1,4,12)     =    -19.337523     0.000072     0.396167   -18.941356
	 ---------------------------------------------------------------------------
	Successfully symmetrized geometry.

  ==> Convergence Check <==

  Measures of convergence in internal coordinates in au.
  Criteria marked as inactive (o), active & met (*), and active & unmet ( ).
  ---------------------------------------------------------------------------------------------
   Step     Total Energy     Delta E     MAX Force     RMS Force      MAX Disp      RMS Disp   
  ---------------------------------------------------------------------------------------------
    Convergence Criteria             o    4.50e-04 *    3.00e-04 *    1.80e-03 *    1.20e-03 *
  ---------------------------------------------------------------------------------------------
      2    -173.48365459    7.19e-01 o    9.74e-02      3.88e-02      1.61e-01      6.21e-02    ~
  ---------------------------------------------------------------------------------------------

	Writing optimization data to binary file.
	Structure for next step:
	Cartesian Geometry (in Angstrom)
	    N     0.0448221399   0.1284707333  -0.3557254291
	    C    -1.3572874920   1.3921139603   0.6649718967
	    C    -0.5670754591  -1.9071986238  -0.4299676695
	    C     1.8530250625   0.3809082735   0.1624434511
	    H     0.2818565594   0.3704487609  -1.4200623474
	    H    -2.6797870969   1.0979852308   0.1872685233
	    H    -0.8834641114   2.7528028684   0.5385079320
	    H     0.4794265529  -2.7403330515  -1.1955998957
	    H    -1.8250219049  -2.1070704887  -0.8909667632
	    H     2.0169273419   1.7348438010   0.8903202085
	    H     2.0402707835  -0.6453027384   0.7062419798
	    H     2.9326884776   0.3421290946  -0.8790730720
	    H    -1.5052079284   1.2597751589   1.8316002496
	    H    -0.9180391272  -2.2191179183   0.6961663542
			--------------------------
			 OPTKING Finished Execution 
			--------------------------

    Structure for next step:
    Molecular point group: c1
    Full point group: C1

    Geometry (in Angstrom), charge = 1, multiplicity = 1:

    N            0.049636108903     0.127907739761    -0.359988981153
    C           -1.352473528552     1.391550971742     0.660708348633
    C           -0.562261492564    -1.907761625298    -0.434231221874
    C            1.857839038551     0.380345280980     0.158179901095
    H            0.286670529277     0.369885768352    -1.424325903694
    H           -2.674973138679     1.097422241151     0.183004973351
    H           -0.878650146084     2.752239885193     0.534244383422
    H            0.484240523574    -2.740896056244    -1.199863451089
    H           -1.820207943287    -2.107633490961    -0.895230317362
    H            2.021741318670     1.734280813773     0.886056661312
    H            2.045084760290    -0.645865734945     0.701978431863
    H            2.937502457909     0.341566101948    -0.883336626092
    H           -1.500393965524     1.259212169891     1.827336706126
    H           -0.913225161990    -2.219680921060     0.691902806221

gradient() will perform analytic gradient computation.
    SCF Algorithm Type (re)set to DF.

*** tstart() called on node44.bme.utexas.edu
*** at Thu Nov  4 21:26:14 2021

   => Loading Basis Set <=

    Name: 6-31G*
    Role: ORBITAL
    Keyword: BASIS
    atoms 1    entry N          line   128 file /home/bdw2292/miniconda3/envs/amoebamdpoltype/share/psi4/basis/6-31gs.gbs 
    atoms 2-4  entry C          line   111 file /home/bdw2292/miniconda3/envs/amoebamdpoltype/share/psi4/basis/6-31gs.gbs 
    atoms 5-14 entry H          line    44 file /home/bdw2292/miniconda3/envs/amoebamdpoltype/share/psi4/basis/6-31gs.gbs 


         ---------------------------------------------------------
                                   SCF
               by Justin Turney, Rob Parrish, Andy Simmonett
                          and Daniel G. A. Smith
                              RHF Reference
                        1 Threads,   7947 MiB Core
         ---------------------------------------------------------

  ==> Geometry <==

    Molecular point group: c1
    Full point group: C1

    Geometry (in Angstrom), charge = 1, multiplicity = 1:

       Center              X                  Y                   Z               Mass       
    ------------   -----------------  -----------------  -----------------  -----------------
         N            0.049636108903     0.127907739761    -0.359988981153    14.003074004430
         C           -1.352473528552     1.391550971742     0.660708348633    12.000000000000
         C           -0.562261492564    -1.907761625298    -0.434231221874    12.000000000000
         C            1.857839038551     0.380345280980     0.158179901095    12.000000000000
         H            0.286670529277     0.369885768352    -1.424325903694     1.007825032230
         H           -2.674973138679     1.097422241151     0.183004973351     1.007825032230
         H           -0.878650146084     2.752239885193     0.534244383422     1.007825032230
         H            0.484240523574    -2.740896056244    -1.199863451089     1.007825032230
         H           -1.820207943287    -2.107633490961    -0.895230317362     1.007825032230
         H            2.021741318670     1.734280813773     0.886056661312     1.007825032230
         H            2.045084760290    -0.645865734945     0.701978431863     1.007825032230
         H            2.937502457909     0.341566101948    -0.883336626092     1.007825032230
         H           -1.500393965524     1.259212169891     1.827336706126     1.007825032230
         H           -0.913225161990    -2.219680921060     0.691902806221     1.007825032230

  Running in c1 symmetry.

  Rotational constants: A =      0.15469  B =      0.14000  C =      0.08066 [cm^-1]
  Rotational constants: A =   4637.61280  B =   4197.06148  C =   2418.12703 [MHz]
  Nuclear repulsion =  110.015331706238428

  Charge       = 1
  Multiplicity = 1
  Electrons    = 34
  Nalpha       = 17
  Nbeta        = 17

  ==> Algorithm <==

  SCF Algorithm Type is DF.
  DIIS enabled.
  MOM disabled.
  Fractional occupation disabled.
  Guess Type is READ.
  Energy threshold   = 1.00e-10
  Density threshold  = 1.00e-10
  Integral threshold = 0.00e+00

  ==> Primary Basis <==

  Basis Set: 6-31G*
    Blend: 6-31G*
    Number of shells: 44
    Number of basis function: 80
    Number of Cartesian functions: 80
    Spherical Harmonics?: false
    Max angular momentum: 2

   => Loading Basis Set <=

    Name: (6-31G* AUX)
    Role: JKFIT
    Keyword: DF_BASIS_SCF
    atoms 1    entry N          line   171 file /home/bdw2292/miniconda3/envs/amoebamdpoltype/share/psi4/basis/cc-pvdz-jkfit.gbs 
    atoms 2-4  entry C          line   121 file /home/bdw2292/miniconda3/envs/amoebamdpoltype/share/psi4/basis/cc-pvdz-jkfit.gbs 
    atoms 5-14 entry H          line    51 file /home/bdw2292/miniconda3/envs/amoebamdpoltype/share/psi4/basis/cc-pvdz-jkfit.gbs 

   => Loading Basis Set <=

    Name: 6-31G*
    Role: ORBITAL
    Keyword: BASIS
    atoms 1    entry N          line   128 file /home/bdw2292/miniconda3/envs/amoebamdpoltype/share/psi4/basis/6-31gs.gbs 
    atoms 2-4  entry C          line   111 file /home/bdw2292/miniconda3/envs/amoebamdpoltype/share/psi4/basis/6-31gs.gbs 
    atoms 5-14 entry H          line    44 file /home/bdw2292/miniconda3/envs/amoebamdpoltype/share/psi4/basis/6-31gs.gbs 

  Reading orbitals from file 180, no projection.

  ==> Pre-Iterations <==

   -------------------------------------------------------
    Irrep   Nso     Nmo     Nalpha   Nbeta   Ndocc  Nsocc
   -------------------------------------------------------
     A         80      80       0       0       0       0
   -------------------------------------------------------
    Total      80      80      17      17      17       0
   -------------------------------------------------------

  ==> Integral Setup <==

  DFHelper Memory: AOs need 0.031 GiB; user supplied 5.821 GiB. Using in-core AOs.

  ==> MemDFJK: Density-Fitted J/K Matrices <==

    J tasked:                   Yes
    K tasked:                   Yes
    wK tasked:                   No
    OpenMP threads:               1
    Memory [MiB]:              5960
    Algorithm:                 Core
    Schwarz Cutoff:           1E-12
    Mask sparsity (%):       1.2500
    Fitting Condition:        1E-10

   => Auxiliary Basis Set <=

  Basis Set: (6-31G* AUX)
    Blend: CC-PVDZ-JKFIT
    Number of shells: 186
    Number of basis function: 574
    Number of Cartesian functions: 574
    Spherical Harmonics?: false
    Max angular momentum: 3

  Minimum eigenvalue in the overlap matrix is 2.0222740093E-02.
  Using Symmetric Orthogonalization.

  SCF Guess: Orbitals guess was supplied from a previous computation.

  ==> Iterations <==

                           Total Energy        Delta E     RMS |[F,P]|

   @DF-RHF iter   0:  -173.28285676293939   -1.73283e+02   1.49632e-03 
   @DF-RHF iter   1:  -172.97831015996735    3.04547e-01   7.58073e-04 DIIS
   @DF-RHF iter   2:  -172.98087054545852   -2.56039e-03   4.57642e-04 DIIS
   @DF-RHF iter   3:  -172.98160989219014   -7.39347e-04   1.05963e-04 DIIS
   @DF-RHF iter   4:  -172.98169855942299   -8.86672e-05   7.86766e-05 DIIS
   @DF-RHF iter   5:  -172.98173586075293   -3.73013e-05   1.94280e-05 DIIS
   @DF-RHF iter   6:  -172.98174273923493   -6.87848e-06   5.07559e-06 DIIS
   @DF-RHF iter   7:  -172.98174307714896   -3.37914e-07   2.28315e-06 DIIS
   @DF-RHF iter   8:  -172.98174313452424   -5.73753e-08   5.87647e-07 DIIS
   @DF-RHF iter   9:  -172.98174313965899   -5.13475e-09   1.67615e-07 DIIS
   @DF-RHF iter  10:  -172.98174314012095   -4.61966e-10   6.08930e-08 DIIS
   @DF-RHF iter  11:  -172.98174314017615   -5.51950e-11   2.90780e-08 DIIS
   @DF-RHF iter  12:  -172.98174314018490   -8.75389e-12   9.00366e-09 DIIS
   @DF-RHF iter  13:  -172.98174314018576   -8.52651e-13   3.28681e-09 DIIS
   @DF-RHF iter  14:  -172.98174314018615   -3.97904e-13   9.94989e-10 DIIS
   @DF-RHF iter  15:  -172.98174314018627   -1.13687e-13   3.99076e-10 DIIS
   @DF-RHF iter  16:  -172.98174314018630   -2.84217e-14   2.14223e-10 DIIS
   @DF-RHF iter  17:  -172.98174314018647   -1.70530e-13   8.15275e-11 DIIS
  Energy and wave function converged.


  ==> Post-Iterations <==

    Orbital Energies [Eh]
    ---------------------

    Doubly Occupied:                                                      

       1A    -15.846607     2A    -11.566397     3A    -11.557214  
       4A    -11.532924     5A     -1.244489     6A     -1.043872  
       7A     -1.032274     8A     -0.991216     9A     -0.733525  
      10A     -0.702918    11A     -0.692767    12A     -0.681375  
      13A     -0.669732    14A     -0.654605    15A     -0.613603  
      16A     -0.598391    17A     -0.570149  

    Virtual:                                                              

      18A     -0.137408    19A     -0.069557    20A     -0.032750  
      21A     -0.021418    22A      0.015362    23A      0.035087  
      24A      0.051524    25A      0.064022    26A      0.068230  
      27A      0.100948    28A      0.109213    29A      0.115752  
      30A      0.141270    31A      0.540332    32A      0.598059  
      33A      0.599075    34A      0.612695    35A      0.614861  
      36A      0.648605    37A      0.698171    38A      0.709336  
      39A      0.752402    40A      0.776750    41A      0.794899  
      42A      0.800103    43A      0.828896    44A      0.839297  
      45A      0.864437    46A      0.890464    47A      0.894038  
      48A      0.926213    49A      0.951261    50A      0.968010  
[...]
    Fitting Condition:       1E-10

   => Auxiliary Basis Set <=

  Basis Set: (6-31G* AUX)
    Blend: CC-PVDZ-JKFIT
    Number of shells: 186
    Number of basis function: 574
    Number of Cartesian functions: 574
    Spherical Harmonics?: false
    Max angular momentum: 3

	-----------------------------------------------------------
	 ==================> DF-MP2 Energies <==================== 
	-----------------------------------------------------------
	 Reference Energy          =    -173.6457837069516756 [Eh]
	 Singles Energy            =      -0.0000000000000000 [Eh]
	 Same-Spin Energy          =      -0.1322959065060575 [Eh]
	 Opposite-Spin Energy      =      -0.4407915063369351 [Eh]
	 Correlation Energy        =      -0.5730874128429927 [Eh]
	 Total Energy              =    -174.2188711197946702 [Eh]
	-----------------------------------------------------------
	 ================> DF-SCS-MP2 Energies <================== 
	-----------------------------------------------------------
	 SCS Same-Spin Scale       =       0.3333333333333333 [-]
	 SCS Opposite-Spin Scale   =       1.2000000000000000 [-]
	 SCS Same-Spin Energy      =      -0.0440986355020192 [Eh]
	 SCS Opposite-Spin Energy  =      -0.5289498076043222 [Eh]
	 SCS Correlation Energy    =      -0.5730484431063414 [Eh]
	 SCS Total Energy          =    -174.2188321500580059 [Eh]
	-----------------------------------------------------------


  -Total Gradient:
     Atom            X                  Y                   Z
    ------   -----------------  -----------------  -----------------
       1       -0.000839813836    -0.004695474665     0.005013390215
       2        0.001135612781     0.004193992779    -0.003585472058
       3       -0.000436571592     0.000190610608    -0.001005728426
       4        0.002196901926     0.003910942197    -0.004343646709
       5       -0.000009226904     0.000047814853    -0.000055040483
       6       -0.000312434363    -0.001333856125     0.001016859723
       7        0.000011039043     0.000032453133     0.000026234867
       8       -0.000131251540     0.000100214817    -0.000178574052
       9        0.000021047139    -0.000009183809     0.000016003453
      10       -0.001582983771    -0.002372889542     0.002948560181
      11       -0.000001493545    -0.000035389253     0.000028005083
      12       -0.000048201913     0.000008825125     0.000026733392
      13        0.000005275664    -0.000008325218     0.000073771576
      14       -0.000007899088    -0.000029734901     0.000018903239


*** tstop() called on node44.bme.utexas.edu at Thu Nov  4 21:27:20 2021
Module time:
	user time   =       5.11 seconds =       0.09 minutes
	system time =       0.07 seconds =       0.00 minutes
	total time  =          5 seconds =       0.08 minutes
Total time:
	user time   =      74.59 seconds =       1.24 minutes
	system time =       1.25 seconds =       0.02 minutes
	total time  =         83 seconds =       1.38 minutes

			-----------------------------------------
			 OPTKING 2.0: for geometry optimizations 
			  - R.A. King,  Bethel University        
			-----------------------------------------
	At level 1: Red. Int., RFO, no backsteps, dynamic trust

	Previous internal coordinate definitions found.
	---Fragment 1 Geometry and Gradient---
	 N           0.0877448936        0.2581455357       -0.5394566230
	 C          -1.8273689127        1.8564175550        0.8076175105
	 C          -0.8682285829       -2.3572207234       -1.0584959394
	 C           2.6064871952        0.2407885588        0.7977177808
	 H           0.3671807163        1.0954824395       -2.2694530052
	 H          -3.6500688850        1.6390348351       -0.1230999383
	 H          -1.2057814568        3.8173939458        0.7600597362
	 H           0.5925577094       -3.4059898866       -2.0607633896
	 H          -2.5693954994       -2.2264500904       -2.2096467165
	 H           2.6887292739        1.8266776270        2.1047847228
	 H           2.7482705998       -1.5076168924        1.8762012420
	 H           4.1197670521        0.3344389551       -0.5919159350
	 H          -1.9592291646        1.1933526881        2.7535061610
	 H          -1.2901675511       -3.2571387033        0.7446039151
	            -0.0008398138       -0.0046954747        0.0050133902
	             0.0011356128        0.0041939928       -0.0035854721
	            -0.0004365716        0.0001906106       -0.0010057284
	             0.0021969019        0.0039109422       -0.0043436467
	            -0.0000092269        0.0000478149       -0.0000550405
	            -0.0003124344       -0.0013338561        0.0010168597
	             0.0000110390        0.0000324531        0.0000262349
	            -0.0001312515        0.0001002148       -0.0001785741
	             0.0000210471       -0.0000091838        0.0000160035
	            -0.0015829838       -0.0023728895        0.0029485602
	            -0.0000014935       -0.0000353893        0.0000280051
	            -0.0000482019        0.0000088251        0.0000267334
	             0.0000052757       -0.0000083252        0.0000737716
	            -0.0000078991       -0.0000297349        0.0000189032

	---Fragment 1 Intrafragment Coordinates---
	 - Coordinate -           - BOHR/RAD -       - ANG/DEG -
	 R(1,2)           =         2.834915	       1.500172
	 R(1,3)           =         2.832566	       1.498929
	 R(1,4)           =         2.851736	       1.509074
	 R(1,5)           =         1.942191	       1.027763
	 R(2,6)           =         2.058088	       1.089093
	 R(2,7)           =         2.057683	       1.088879
	 R(2,13)          =         2.059982	       1.090095
	 R(3,8)           =         2.058726	       1.089431
	 R(3,9)           =         2.058207	       1.089156
	 R(3,14)          =         2.058896	       1.089521
	 R(4,10)          =         2.056753	       1.088387
	 R(4,11)          =         2.059163	       1.089662
	 R(4,12)          =         2.056664	       1.088340
	 B(1,2,6)         =         1.900591	     108.895830
	 B(1,2,7)         =         1.898883	     108.798009
	 B(1,2,13)        =         1.886650	     108.097055
	 B(1,3,8)         =         1.896632	     108.669004
	 B(1,3,9)         =         1.899451	     108.830508
	 B(1,3,14)        =         1.888369	     108.195589
	 B(1,4,10)        =         1.905627	     109.184381
	 B(1,4,11)        =         1.887639	     108.153723
	 B(1,4,12)        =         1.910042	     109.437367
	 B(2,1,3)         =         1.960192	     112.310711
	 B(2,1,4)         =         1.957661	     112.165704
	 B(2,1,5)         =         1.851872	     106.104475
	 B(3,1,4)         =         1.958849	     112.233760
	 B(3,1,5)         =         1.858143	     106.463753
	 B(4,1,5)         =         1.868386	     107.050624
	 B(6,2,7)         =         1.936642	     110.961413
	 B(6,2,13)        =         1.913984	     109.663186
	 B(7,2,13)        =         1.926148	     110.360138
	 B(8,3,9)         =         1.924686	     110.276403
	 B(8,3,14)        =         1.927410	     110.432469
	 B(9,3,14)        =         1.926444	     110.377104
	 B(10,4,11)       =         1.895580	     108.608760
	 B(10,4,12)       =         1.944277	     111.398877
	 B(11,4,12)       =         1.919717	     109.991655
	*D(2,1,3,8)       =         3.126152	     179.115315
	 D(2,1,3,9)       =         1.029786	      59.002402
	 D(2,1,3,14)      =        -1.063853	     -60.954279
	*D(2,1,4,10)      =        -0.307453	     -17.615776
	 D(2,1,4,11)      =         1.752236	     100.395715
	 D(2,1,4,12)      =        -2.439732	    -139.786327
	*D(3,1,2,6)       =        -0.812016	     -46.525083
	 D(3,1,2,7)       =        -2.924911	    -167.585034
	 D(3,1,2,13)      =         1.266317	      72.554648
	 D(3,1,4,10)      =        -2.533535	    -145.160858
	 D(3,1,4,11)      =        -0.473846	     -27.149367
	 D(3,1,4,12)      =         1.617372	      92.668592
	 D(4,1,2,6)       =        -3.037381	    -174.029128
	 D(4,1,2,7)       =         1.132909	      64.910921
	 D(4,1,2,13)      =        -0.959048	     -54.949398
	 D(4,1,3,8)       =        -0.932300	     -53.416853
	 D(4,1,3,9)       =        -3.028666	    -173.529766
	 D(4,1,3,14)      =         1.160881	      66.513553
	 D(5,1,2,6)       =         1.211408	      69.408576
	 D(5,1,2,7)       =        -0.901487	     -51.651375
	 D(5,1,2,13)      =        -2.993444	    -171.511694
	 D(5,1,3,8)       =         1.106513	      63.398516
	 D(5,1,3,9)       =        -0.989853	     -56.714396
	 D(5,1,3,14)      =        -3.083492	    -176.671077
	 D(5,1,4,10)      =         1.716986	      98.376050
	 D(5,1,4,11)      =        -2.506510	    -143.612458
	 D(5,1,4,12)      =        -0.415292	     -23.794500

	Current energy   :      -174.2188711198

	Energy change for the previous step:
		Projected    :        -0.0000035848
		Actual       :        -0.0000019941

	Performing BFGS update.
	Previous computed or guess Hessian on step 1.
	Steps to be used in Hessian update: 10 9
	Taking RFO optimization step.
	Going to follow RFO solution 1.
	Using RFO vector 1.
	Norm of target step-size    0.00154
	Projected energy change by RFO approximation:        -0.0000005827

	Back-transformation to cartesian coordinates...
	Could not converge backtransformation.
	Using first guess instead.

	Back-transformation to cartesian coordinates to adjust frozen coordinates...
	Successfully converged to displaced geometry.

	--- Internal Coordinate Step in ANG or DEG, aJ/ANG or AJ/DEG ---
	 ---------------------------------------------------------------------------
	   Coordinate                Previous        Force       Change         New 
	   ----------                --------       ------       ------       ------
	    1 R(1,2)          =      1.500172     0.000940     0.000226     1.500398
	    2 R(1,3)          =      1.498929    -0.001361    -0.000242     1.498688
	    3 R(1,4)          =      1.509074     0.001148     0.000260     1.509333
	    4 R(1,5)          =      1.027763    -0.000563    -0.000090     1.027673
	    5 R(2,6)          =      1.089093     0.000348     0.000028     1.089121
	    6 R(2,7)          =      1.088879    -0.000277    -0.000055     1.088824
	    7 R(2,13)         =      1.090095    -0.000593    -0.000131     1.089965
	    8 R(3,8)          =      1.089431     0.000472     0.000077     1.089508
	    9 R(3,9)          =      1.089156     0.000222     0.000023     1.089179
	   10 R(3,14)         =      1.089521    -0.000257    -0.000053     1.089468
	   11 R(4,10)         =      1.088387     0.000158    -0.000000     1.088386
	   12 R(4,11)         =      1.089662    -0.000368    -0.000070     1.089592
	   13 R(4,12)         =      1.088340     0.000438     0.000070     1.088410
	   14 B(1,2,6)        =    108.895830     0.000005     0.019362   108.915193
	   15 B(1,2,7)        =    108.798009    -0.000002    -0.010353   108.787656
	   16 B(1,2,13)       =    108.097055    -0.000001    -0.002447   108.094608
	   17 B(1,3,8)        =    108.669004     0.000000     0.003296   108.672300
	   18 B(1,3,9)        =    108.830508    -0.000000     0.000026   108.830534
	   19 B(1,3,14)       =    108.195589    -0.000002    -0.002026   108.193564
	   20 B(1,4,10)       =    109.184381    -0.000001    -0.006478   109.177903
	   21 B(1,4,11)       =    108.153723    -0.000000    -0.003094   108.150629
	   22 B(1,4,12)       =    109.437367     0.000002     0.006607   109.443975
	   23 B(2,1,3)        =    112.310711     0.000001     0.006704   112.317415
	   24 B(2,1,4)        =    112.165704     0.000003     0.015598   112.181302
	   25 B(2,1,5)        =    106.104475    -0.000000     0.009380   106.113855
	   26 B(3,1,4)        =    112.233760    -0.000003    -0.020120   112.213641
	   27 B(3,1,5)        =    106.463753     0.000000     0.001404   106.465157
	   28 B(4,1,5)        =    107.050624    -0.000000    -0.013081   107.037543
	   29 B(6,2,7)        =    110.961413    -0.000001    -0.010177   110.951235
	   30 B(6,2,13)       =    109.663186    -0.000002    -0.006315   109.656871
	   31 B(7,2,13)       =    110.360138     0.000002     0.010280   110.370418
	   32 B(8,3,9)        =    110.276403     0.000001    -0.001974   110.274429
	   33 B(8,3,14)       =    110.432469     0.000001     0.005068   110.437536
	   34 B(9,3,14)       =    110.377104     0.000001    -0.004333   110.372770
	   35 B(10,4,11)      =    108.608760     0.000000    -0.002280   108.606480
	   36 B(10,4,12)      =    111.398877     0.000000     0.010873   111.409750
	   37 B(11,4,12)      =    109.991655    -0.000001    -0.006118   109.985537
	   38 *D(2,1,3,8)     =    179.115315    -0.000000    -0.000000   179.115315
	   39 D(2,1,3,9)      =     59.002402    -0.000000     0.000426    59.002828
	   40 D(2,1,3,14)     =    -60.954279    -0.000000     0.006807   -60.947472
	   41 *D(2,1,4,10)    =    -17.615776    -0.000000    -0.000000   -17.615776
	   42 D(2,1,4,11)     =    100.395715    -0.000000    -0.008090   100.387625
	   43 D(2,1,4,12)     =   -139.786327    -0.000000    -0.013492  -139.799819
	   44 *D(3,1,2,6)     =    -46.525083    -0.000000    -0.000000   -46.525083
	   45 D(3,1,2,7)      =   -167.585034    -0.000000     0.006963  -167.578070
	   46 D(3,1,2,13)     =     72.554648    -0.000000     0.001957    72.556604
	   47 D(3,1,4,10)     =   -145.160858    -0.000000    -0.005388  -145.166246
	   48 D(3,1,4,11)     =    -27.149367    -0.000000    -0.013478   -27.162845
	   49 D(3,1,4,12)     =     92.668592    -0.000000    -0.018881    92.649711
	   50 D(4,1,2,6)      =   -174.029128     0.000000     0.008901  -174.020227
	   51 D(4,1,2,7)      =     64.910921     0.000000     0.015864    64.926785
	   52 D(4,1,2,13)     =    -54.949398     0.000000     0.010858   -54.938540
	   53 D(4,1,3,8)      =    -53.416853     0.000000     0.010107   -53.406746
	   54 D(4,1,3,9)      =   -173.529766     0.000000     0.010533  -173.519233
	   55 D(4,1,3,14)     =     66.513553     0.000000     0.016913    66.530467
	   56 D(5,1,2,6)      =     69.408576     0.000000     0.010774    69.419350
	   57 D(5,1,2,7)      =    -51.651375     0.000000     0.017737   -51.633638
	   58 D(5,1,2,13)     =   -171.511694    -0.000000     0.012731  -171.498963
	   59 D(5,1,3,8)      =     63.398516    -0.000000    -0.015639    63.382878
	   60 D(5,1,3,9)      =    -56.714396    -0.000000    -0.015212   -56.729609
	   61 D(5,1,3,14)     =   -176.671077    -0.000000    -0.008832  -176.679909
	   62 D(5,1,4,10)     =     98.376050     0.000000     0.011857    98.387908
	   63 D(5,1,4,11)     =   -143.612458     0.000000     0.003768  -143.608691
	   64 D(5,1,4,12)     =    -23.794500     0.000000    -0.001635   -23.796135
	 ---------------------------------------------------------------------------
	Successfully symmetrized geometry.

  ==> Convergence Check <==

  Measures of convergence in internal coordinates in au.
  Criteria marked as inactive (o), active & met (*), and active & unmet ( ).
  ---------------------------------------------------------------------------------------------
   Step     Total Energy     Delta E     MAX Force     RMS Force      MAX Disp      RMS Disp   
  ---------------------------------------------------------------------------------------------
    Convergence Criteria             o    4.50e-04 *    3.00e-04 *    1.80e-03 *    1.20e-03 *
  ---------------------------------------------------------------------------------------------
     11    -174.21887112   -1.99e-06 o    1.65e-04 *    3.94e-05 *    4.90e-04 *    1.93e-04 *  ~
  ---------------------------------------------------------------------------------------------


  **** Optimization is complete! (in 11 steps) ****

  ==> Optimization Summary <==

  Measures of convergence in internal coordinates in au.
  --------------------------------------------------------------------------------------------------------------- ~
   Step         Total Energy             Delta E       MAX Force       RMS Force        MAX Disp        RMS Disp  ~
  --------------------------------------------------------------------------------------------------------------- ~
      1    -174.202279022738   -174.202279022738      0.04334254      0.01095273      1.46857341      0.41717378  ~
      2    -173.483654585288      0.718624437451      0.09737057      0.03875651      0.16120997      0.06212049  ~
      3    -173.635475457481     -0.151820872193      0.10104499      0.03803078      0.33239911      0.11931887  ~
      4    -173.909936514446     -0.274461056965      0.09675618      0.03311941      0.33477117      0.11274823  ~
      5    -174.109274757989     -0.199338243543      0.08069247      0.02162157      0.35541326      0.09490144  ~
      6    -174.190891119957     -0.081616361968      0.05276173      0.01211751      0.19735210      0.05458062  ~
      7    -174.215482817771     -0.024591697814      0.02193747      0.00410677      0.09039379      0.03110575  ~
      8    -174.218513540845     -0.003030723074      0.00509929      0.00168338      0.03362546      0.01242194  ~
      9    -174.218782267032     -0.000268726187      0.00396401      0.00087887      0.01383078      0.00422038  ~
     10    -174.218869125646     -0.000086858614      0.00038581      0.00011746      0.00241354      0.00085888  ~
     11    -174.218871119795     -0.000001994149      0.00016522      0.00003944      0.00049044      0.00019283  ~
  --------------------------------------------------------------------------------------------------------------- ~

	Writing optimization data to binary file.
	Final energy is   -174.2188711197947
	Final (previous) structure:
	Cartesian Geometry (in Angstrom)
	    N     0.0464325979   0.1366047340  -0.2854681499
	    C    -0.9670019803   0.9823738597   0.4273727798
	    C    -0.4594467779  -1.2473874824  -0.5601319265
	    C     1.3792936182   0.1274198174   0.4221340685
	    H     0.1943036665   0.5797043394  -1.2009428063
	    H    -1.9315332637   0.8673398788  -0.0651416817
	    H    -0.6380720655   2.0200778723   0.4022062896
	    H     0.3135680346  -1.8023722207  -1.0905090181
	    H    -1.3596655382  -1.1781866439  -1.1692946814
	    H     1.4228142518   0.9666361676   1.1138041043
	    H     1.4543221644  -0.7977964987   0.9928429360
	    H     2.1800868287   0.1769774727  -0.3132284222
	    H    -1.0367794203   0.6314950444   1.4570927041
	    H    -0.6827272633  -1.7236035670   0.3940274213
	Saving final (previous) structure.
			--------------------------
			 OPTKING Finished Execution 
			--------------------------

    Final optimized geometry and variables:
    Molecular point group: c1
    Full point group: C1

    Geometry (in Angstrom), charge = 1, multiplicity = 1:

    N            0.046432598034     0.136604734547    -0.285468151044
    C           -0.967001984074     0.982373863589     0.427372781520
    C           -0.459446779707    -1.247387487337    -0.560131928711
    C            1.379293623597     0.127419817918     0.422134070166
    H            0.194303667274     0.579704341679    -1.200942811016
    H           -1.931533271312     0.867339882238    -0.065141681961
    H           -0.638072067998     2.020077880281     0.402206291166
    H            0.313568035832    -1.802372227766    -1.090509022346
    H           -1.359665543496    -1.178186648538    -1.169294685991
    H            1.422814257421     0.966636171424     1.113804108647
    H            1.454322170162    -0.797796501877     0.992842939887
    H            2.180086837261     0.176977473421    -0.313228423428
    H           -1.036779424363     0.631495046853     1.457092709859
    H           -0.682727265968    -1.723603573770     0.394027422843

	Removing binary optimization data file.
	Cleaning optimization helper files.

    Psi4 stopped on: Thursday, 04 November 2021 09:27PM
    Psi4 wall time for execution: 0:01:23.29

*** Psi4 exiting successfully. Buy a developer a beer!
