MonoMethylPhosphate1H Gaussian SP Calculation on node37.bme.utexas.edu  
SP        RMP2-FC                                                     6-311G(d,p)         
Number of atoms                            I               10
Info1-9                                    I   N=           9
          23          21           0           0           0         110
           1           2           1
Charge                                     I               -1
Multiplicity                               I                1
Number of electrons                        I               58
Number of alpha electrons                  I               29
Number of beta electrons                   I               29
Number of basis functions                  I              140
Number of independent functions            I              140
Number of point charges in /Mol/           I                0
Number of translation vectors              I                0
Atomic numbers                             I   N=          10
           1           8          15           8           8           8
           6           1           1           1
Nuclear charges                            R   N=          10
  1.00000000E+00  8.00000000E+00  1.50000000E+01  8.00000000E+00  8.00000000E+00
  8.00000000E+00  6.00000000E+00  1.00000000E+00  1.00000000E+00  1.00000000E+00
Current cartesian coordinates              R   N=          30
 -1.24953038E+00  3.63141301E+00 -1.04861848E+00 -1.03430191E+00  2.10499051E+00
 -2.01851286E+00 -9.37109520E-01 -1.44380746E-01  1.94127786E-01  1.78678519E+00
 -1.47822693E+00 -5.86138244E-01 -2.90980408E+00 -2.09056812E+00 -2.96513148E-01
 -6.38196420E-01  1.25857839E+00  2.65255944E+00  3.98275845E+00 -1.00329340E-01
 -2.98236578E-02  3.92736113E+00  1.80359431E+00 -8.63565158E-01  5.59066973E+00
 -1.12756179E+00 -8.47476030E-01  4.25571616E+00  1.02077337E-01  2.01553276E+00
Force Field                                I                0
Int Atom Types                             I   N=          10
           0           0           0           0           0           0
           0           0           0           0
MM charges                                 R   N=          10
  0.00000000E+00  0.00000000E+00  0.00000000E+00  0.00000000E+00  0.00000000E+00
  0.00000000E+00  0.00000000E+00  0.00000000E+00  0.00000000E+00  0.00000000E+00
Integer atomic weights                     I   N=          10
           1          16          31          16          16          16
          12           1           1           1
Real atomic weights                        R   N=          10
  1.00782504E+00  1.59949146E+01  3.09737634E+01  1.59949146E+01  1.59949146E+01
  1.59949146E+01  1.20000000E+01  1.00782504E+00  1.00782504E+00  1.00782504E+00
Atom fragment info                         I   N=          10
           0           0           0           0           0           0
           0           0           0           0
Atom residue num                           I   N=          10
           0           0           0           0           0           0
           0           0           0           0
Nuclear spins                              I   N=          10
           1           0           1           0           0           0
           0           1           1           1
Nuclear ZEff                               R   N=          10
 -1.00000000E+00 -5.60000000E+00 -1.29400000E+01 -5.60000000E+00 -5.60000000E+00
 -5.60000000E+00 -3.60000000E+00 -1.00000000E+00 -1.00000000E+00 -1.00000000E+00
Nuclear QMom                               R   N=          10
  0.00000000E+00  0.00000000E+00  0.00000000E+00  0.00000000E+00  0.00000000E+00
  0.00000000E+00  0.00000000E+00  0.00000000E+00  0.00000000E+00  0.00000000E+00
Nuclear GFac                               R   N=          10
  2.79284600E+00  0.00000000E+00  1.13160000E+00  0.00000000E+00  0.00000000E+00
  0.00000000E+00  0.00000000E+00  2.79284600E+00  2.79284600E+00  2.79284600E+00
MicOpt                                     I   N=          10
          -1          -1          -1          -1          -1          -1
          -1          -1          -1          -1
Number of contracted shells                I               53
Number of primitive shells                 I              107
Pure/Cartesian d shells                    I                0
Pure/Cartesian f shells                    I                0
Highest angular momentum                   I                2
Largest degree of contraction              I                6
Shell types                                I   N=          53
           0           0           0           1           0          -1
          -1          -1          -2           0           0           0
           0           0           0           1           1           1
           1           1          -2           0          -1          -1
          -1          -2           0          -1          -1          -1
          -2           0          -1          -1          -1          -2
           0          -1          -1          -1          -2           0
           0           0           1           0           0           0
           1           0           0           0           1
Number of primitives per shell             I   N=          53
           3           1           1           1           6           3
           1           1           1           6           3           1
           1           1           1           4           2           1
           1           1           1           6           3           1
           1           1           6           3           1           1
           1           6           3           1           1           1
           6           3           1           1           1           3
           1           1           1           3           1           1
           1           3           1           1           1
Shell to atom map                          I   N=          53
           1           1           1           1           2           2
           2           2           2           3           3           3
           3           3           3           3           3           3
           3           3           3           4           4           4
           4           4           5           5           5           5
           5           6           6           6           6           6
           7           7           7           7           7           8
           8           8           8           9           9           9
           9          10          10          10          10
Primitive exponents                        R   N=         107
  3.38650000E+01  5.09479000E+00  1.15879000E+00  3.25840000E-01  1.02741000E-01
  7.50000000E-01  8.58850000E+03  1.29723000E+03  2.99296000E+02  8.73771000E+01
  2.56789000E+01  3.74004000E+00  4.21175000E+01  9.62837000E+00  2.85332000E+00
  9.05661000E-01  2.55611000E-01  1.29200000E+00  7.74924000E+04  1.16058000E+04
  2.64596000E+03  7.54976000E+02  2.48755000E+02  9.11565000E+01  9.11565000E+01
  3.62257000E+01  1.52113000E+01  4.79417000E+00  1.80793000E+00  3.56816000E-01
  1.14783000E-01  3.84843000E+02  9.05521000E+01  2.91339000E+01  1.08862000E+01
  4.35259000E+00  1.77706000E+00  6.97005000E-01  2.53532000E-01  6.84930000E-02
  5.50000000E-01  8.58850000E+03  1.29723000E+03  2.99296000E+02  8.73771000E+01
  2.56789000E+01  3.74004000E+00  4.21175000E+01  9.62837000E+00  2.85332000E+00
  9.05661000E-01  2.55611000E-01  1.29200000E+00  8.58850000E+03  1.29723000E+03
  2.99296000E+02  8.73771000E+01  2.56789000E+01  3.74004000E+00  4.21175000E+01
  9.62837000E+00  2.85332000E+00  9.05661000E-01  2.55611000E-01  1.29200000E+00
  8.58850000E+03  1.29723000E+03  2.99296000E+02  8.73771000E+01  2.56789000E+01
  3.74004000E+00  4.21175000E+01  9.62837000E+00  2.85332000E+00  9.05661000E-01
  2.55611000E-01  1.29200000E+00  4.56324000E+03  6.82024000E+02  1.54973000E+02
  4.44553000E+01  1.30290000E+01  1.82773000E+00  2.09642000E+01  4.80331000E+00
  1.45933000E+00  4.83456000E-01  1.45585000E-01  6.26000000E-01  3.38650000E+01
  5.09479000E+00  1.15879000E+00  3.25840000E-01  1.02741000E-01  7.50000000E-01
  3.38650000E+01  5.09479000E+00  1.15879000E+00  3.25840000E-01  1.02741000E-01
  7.50000000E-01  3.38650000E+01  5.09479000E+00  1.15879000E+00  3.25840000E-01
  1.02741000E-01  7.50000000E-01
Contraction coefficients                   R   N=         107
  2.54938145E-02  1.90373109E-01  8.52161486E-01  1.00000000E+00  1.00000000E+00
  1.00000000E+00  1.89515008E-03  1.43859006E-02  7.07320031E-02  2.40001011E-01
  5.94797026E-01  2.80802012E-01  1.13889012E-01  9.20811101E-01 -3.27447036E-03
  1.00000000E+00  1.00000000E+00  1.00000000E+00  7.81000147E-04  6.06800114E-03
  3.11600059E-02  1.23431023E-01  3.78209071E-01  5.63262106E-01  1.60255011E-01
  6.27647045E-01  2.63849019E-01  1.00000000E+00  1.00000000E+00  1.00000000E+00
  1.00000000E+00  9.20599888E-03  6.98739915E-02  2.92469964E-01  7.28102911E-01
  6.28348873E-01  4.28043913E-01  1.00000000E+00  1.00000000E+00  1.00000000E+00
  1.00000000E+00  1.89515008E-03  1.43859006E-02  7.07320031E-02  2.40001011E-01
  5.94797026E-01  2.80802012E-01  1.13889012E-01  9.20811101E-01 -3.27447036E-03
  1.00000000E+00  1.00000000E+00  1.00000000E+00  1.89515008E-03  1.43859006E-02
  7.07320031E-02  2.40001011E-01  5.94797026E-01  2.80802012E-01  1.13889012E-01
  9.20811101E-01 -3.27447036E-03  1.00000000E+00  1.00000000E+00  1.00000000E+00
  1.89515008E-03  1.43859006E-02  7.07320031E-02  2.40001011E-01  5.94797026E-01
  2.80802012E-01  1.13889012E-01  9.20811101E-01 -3.27447036E-03  1.00000000E+00
  1.00000000E+00  1.00000000E+00  1.96665025E-03  1.52306019E-02  7.61269097E-02
  2.60801033E-01  6.16462078E-01  2.21006028E-01  1.14660081E-01  9.19999648E-01
 -3.03068213E-03  1.00000000E+00  1.00000000E+00  1.00000000E+00  2.54938145E-02
  1.90373109E-01  8.52161486E-01  1.00000000E+00  1.00000000E+00  1.00000000E+00
  2.54938145E-02  1.90373109E-01  8.52161486E-01  1.00000000E+00  1.00000000E+00
  1.00000000E+00  2.54938145E-02  1.90373109E-01  8.52161486E-01  1.00000000E+00
  1.00000000E+00  1.00000000E+00
P(S=P) Contraction coefficients            R   N=         107
  0.00000000E+00  0.00000000E+00  0.00000000E+00  0.00000000E+00  0.00000000E+00
  0.00000000E+00  0.00000000E+00  0.00000000E+00  0.00000000E+00  0.00000000E+00
  0.00000000E+00  0.00000000E+00  3.65113974E-02  2.37152983E-01  8.19701941E-01
  1.00000000E+00  1.00000000E+00  0.00000000E+00  0.00000000E+00  0.00000000E+00
  0.00000000E+00  0.00000000E+00  0.00000000E+00  0.00000000E+00  0.00000000E+00
  0.00000000E+00  0.00000000E+00  0.00000000E+00  0.00000000E+00  0.00000000E+00
  0.00000000E+00  0.00000000E+00  0.00000000E+00  0.00000000E+00  0.00000000E+00
  0.00000000E+00  0.00000000E+00  0.00000000E+00  0.00000000E+00  0.00000000E+00
  0.00000000E+00  0.00000000E+00  0.00000000E+00  0.00000000E+00  0.00000000E+00
  0.00000000E+00  0.00000000E+00  3.65113974E-02  2.37152983E-01  8.19701941E-01
  1.00000000E+00  1.00000000E+00  0.00000000E+00  0.00000000E+00  0.00000000E+00
  0.00000000E+00  0.00000000E+00  0.00000000E+00  0.00000000E+00  3.65113974E-02
  2.37152983E-01  8.19701941E-01  1.00000000E+00  1.00000000E+00  0.00000000E+00
  0.00000000E+00  0.00000000E+00  0.00000000E+00  0.00000000E+00  0.00000000E+00
  0.00000000E+00  3.65113974E-02  2.37152983E-01  8.19701941E-01  1.00000000E+00
  1.00000000E+00  0.00000000E+00  0.00000000E+00  0.00000000E+00  0.00000000E+00
  0.00000000E+00  0.00000000E+00  0.00000000E+00  4.02486927E-02  2.37593957E-01
  8.15853851E-01  1.00000000E+00  1.00000000E+00  0.00000000E+00  0.00000000E+00
  0.00000000E+00  0.00000000E+00  0.00000000E+00  0.00000000E+00  0.00000000E+00
  0.00000000E+00  0.00000000E+00  0.00000000E+00  0.00000000E+00  0.00000000E+00
  0.00000000E+00  0.00000000E+00  0.00000000E+00  0.00000000E+00  0.00000000E+00
  0.00000000E+00  0.00000000E+00
Coordinates of each shell                  R   N=         159
 -1.24953004E+00  3.63141258E+00 -1.04861865E+00 -1.24953004E+00  3.63141258E+00
 -1.04861865E+00 -1.24953004E+00  3.63141258E+00 -1.04861865E+00 -1.24953004E+00
  3.63141258E+00 -1.04861865E+00 -1.03430162E+00  2.10499007E+00 -2.01851302E+00
 -1.03430162E+00  2.10499007E+00 -2.01851302E+00 -1.03430162E+00  2.10499007E+00
 -2.01851302E+00 -1.03430162E+00  2.10499007E+00 -2.01851302E+00 -1.03430162E+00
  2.10499007E+00 -2.01851302E+00 -9.37109293E-01 -1.44381181E-01  1.94127620E-01
 -9.37109293E-01 -1.44381181E-01  1.94127620E-01 -9.37109293E-01 -1.44381181E-01
  1.94127620E-01 -9.37109293E-01 -1.44381181E-01  1.94127620E-01 -9.37109293E-01
 -1.44381181E-01  1.94127620E-01 -9.37109293E-01 -1.44381181E-01  1.94127620E-01
 -9.37109293E-01 -1.44381181E-01  1.94127620E-01 -9.37109293E-01 -1.44381181E-01
  1.94127620E-01 -9.37109293E-01 -1.44381181E-01  1.94127620E-01 -9.37109293E-01
 -1.44381181E-01  1.94127620E-01 -9.37109293E-01 -1.44381181E-01  1.94127620E-01
 -9.37109293E-01 -1.44381181E-01  1.94127620E-01  1.78678538E+00 -1.47822745E+00
 -5.86138410E-01  1.78678538E+00 -1.47822745E+00 -5.86138410E-01  1.78678538E+00
 -1.47822745E+00 -5.86138410E-01  1.78678538E+00 -1.47822745E+00 -5.86138410E-01
  1.78678538E+00 -1.47822745E+00 -5.86138410E-01 -2.90980391E+00 -2.09056849E+00
 -2.96513314E-01 -2.90980391E+00 -2.09056849E+00 -2.96513314E-01 -2.90980391E+00
 -2.09056849E+00 -2.96513314E-01 -2.90980391E+00 -2.09056849E+00 -2.96513314E-01
 -2.90980391E+00 -2.09056849E+00 -2.96513314E-01 -6.38196149E-01  1.25857795E+00
  2.65255927E+00 -6.38196149E-01  1.25857795E+00  2.65255927E+00 -6.38196149E-01
  1.25857795E+00  2.65255927E+00 -6.38196149E-01  1.25857795E+00  2.65255927E+00
 -6.38196149E-01  1.25857795E+00  2.65255927E+00  3.98275868E+00 -1.00329927E-01
 -2.98238236E-02  3.98275868E+00 -1.00329927E-01 -2.98238236E-02  3.98275868E+00
 -1.00329927E-01 -2.98238236E-02  3.98275868E+00 -1.00329927E-01 -2.98238236E-02
  3.98275868E+00 -1.00329927E-01 -2.98238236E-02  3.92736142E+00  1.80359372E+00
 -8.63565324E-01  3.92736142E+00  1.80359372E+00 -8.63565324E-01  3.92736142E+00
  1.80359372E+00 -8.63565324E-01  3.92736142E+00  1.80359372E+00 -8.63565324E-01
  5.59066992E+00 -1.12756243E+00 -8.47476196E-01  5.59066992E+00 -1.12756243E+00
 -8.47476196E-01  5.59066992E+00 -1.12756243E+00 -8.47476196E-01  5.59066992E+00
 -1.12756243E+00 -8.47476196E-01  4.25571640E+00  1.02076741E-01  2.01553259E+00
  4.25571640E+00  1.02076741E-01  2.01553259E+00  4.25571640E+00  1.02076741E-01
  2.01553259E+00  4.25571640E+00  1.02076741E-01  2.01553259E+00
Constraint Structure                       R   N=          30
 -1.24953004E+00  3.63141258E+00 -1.04861865E+00 -1.03430162E+00  2.10499007E+00
 -2.01851302E+00 -9.37109293E-01 -1.44381181E-01  1.94127620E-01  1.78678538E+00
 -1.47822745E+00 -5.86138410E-01 -2.90980391E+00 -2.09056849E+00 -2.96513314E-01
 -6.38196149E-01  1.25857795E+00  2.65255927E+00  3.98275868E+00 -1.00329927E-01
 -2.98238236E-02  3.92736142E+00  1.80359372E+00 -8.63565324E-01  5.59066992E+00
 -1.12756243E+00 -8.47476196E-01  4.25571640E+00  1.02076741E-01  2.01553259E+00
Num ILSW                                   I              100
ILSW                                       I   N=         100
           0           0           0           0           2           0
           0           0           0           0           0 20132659200
           0           0           0           0           0           0
           0           0           0           0           0           0
           1           0           0           0           0           0
           0           0      100000           0          -1           0
           0           0           0           0           0           0
           0           0           0           1           0           0
           0           0           1           0           0           0
           0           0           4          40           0           0
           0           0           0           0           0           0
           0           0           0           0           0           0
           0           0           0           0           0           0
           0           0           0           0           0           0
           0           0           0           0           0           0
           0           0           0           0           0           0
           0           0           0           0
Num RLSW                                   I               40
RLSW                                       R   N=          40
  1.00000000E+00  1.00000000E+00  1.00000000E+00  1.00000000E+00  1.00000000E+00
  0.00000000E+00  0.00000000E+00  1.00000000E+00  0.00000000E+00  0.00000000E+00
  0.00000000E+00  0.00000000E+00  1.00000000E+00  0.00000000E+00  0.00000000E+00
  0.00000000E+00  0.00000000E+00  1.00000000E+00  0.00000000E+00  0.00000000E+00
  0.00000000E+00  0.00000000E+00  1.00000000E+00  0.00000000E+00  0.00000000E+00
  0.00000000E+00  0.00000000E+00  1.00000000E+00  0.00000000E+00  0.00000000E+00
  0.00000000E+00  0.00000000E+00  0.00000000E+00  0.00000000E+00  0.00000000E+00
  0.00000000E+00  0.00000000E+00  0.00000000E+00  1.00000000E+00  1.00000000E+00
MxBond                                     I                4
NBond                                      I   N=          10
           1           2           4           2           1           1
           4           1           1           1
IBond                                      I   N=          40
           2           0           0           0           1           3
           0           0           2           4           5           6
           3           7           0           0           3           0
           0           0           3           0           0           0
           4           8           9          10           7           0
           0           0           7           0           0           0
           7           0           0           0
RBond                                      R   N=          40
  1.00000000E+00  0.00000000E+00  0.00000000E+00  0.00000000E+00  1.00000000E+00
  1.00000000E+00  0.00000000E+00  0.00000000E+00  1.00000000E+00  1.00000000E+00
  2.00000000E+00  2.00000000E+00  1.00000000E+00  1.00000000E+00  0.00000000E+00
  0.00000000E+00  2.00000000E+00  0.00000000E+00  0.00000000E+00  0.00000000E+00
  2.00000000E+00  0.00000000E+00  0.00000000E+00  0.00000000E+00  1.00000000E+00
  1.00000000E+00  1.00000000E+00  1.00000000E+00  1.00000000E+00  0.00000000E+00
  0.00000000E+00  0.00000000E+00  1.00000000E+00  0.00000000E+00  0.00000000E+00
  0.00000000E+00  1.00000000E+00  0.00000000E+00  0.00000000E+00  0.00000000E+00
Virial Ratio                               R      2.000377036509404E+00
SCF Energy                                 R     -6.806126588037344E+02
MP2 Energy                                 R     -6.816812736012599E+02
Total Energy                               R     -6.816812736012599E+02
Post-SCF wavefunction norm                 R      1.136223212521202E+00
RMS Density                                R      4.188245160659664E-09
External E-field                           R   N=          35
  0.00000000E+00  0.00000000E+00  0.00000000E+00  0.00000000E+00  0.00000000E+00
  0.00000000E+00  0.00000000E+00  0.00000000E+00  0.00000000E+00  0.00000000E+00
  0.00000000E+00  0.00000000E+00  0.00000000E+00  0.00000000E+00  0.00000000E+00
  0.00000000E+00  0.00000000E+00  0.00000000E+00  0.00000000E+00  0.00000000E+00
  0.00000000E+00  0.00000000E+00  0.00000000E+00  0.00000000E+00  0.00000000E+00
  0.00000000E+00  0.00000000E+00  0.00000000E+00  0.00000000E+00  0.00000000E+00
  0.00000000E+00  0.00000000E+00  0.00000000E+00  0.00000000E+00  0.00000000E+00
IOpCl                                      I                0
IROHF                                      I                0
Alpha Orbital Energies                     R   N=         140
 -7.98763265E+01 -2.03923674E+01 -2.03915035E+01 -2.02973493E+01 -2.02908261E+01
 -1.11329473E+01 -7.39916281E+00 -5.29764977E+00 -5.29703767E+00 -5.29666444E+00
 -1.23332408E+00 -1.17974813E+00 -1.09904724E+00 -1.06323592E+00 -7.83097415E-01
 -5.98430009E-01 -5.19858875E-01 -4.80540514E-01 -4.71011248E-01 -4.66393352E-01
 -4.02251922E-01 -3.83387049E-01 -3.37207536E-01 -3.33021385E-01 -3.01452216E-01
 -2.82301743E-01 -2.61964525E-01 -2.46658332E-01 -2.31220954E-01  2.93376589E-01
  3.22308224E-01  3.58136856E-01  3.72891849E-01  4.21609624E-01  4.33721343E-01
  4.49274071E-01  4.74343676E-01  5.73254683E-01  5.93490961E-01  6.06035164E-01
  6.26645852E-01  6.41409224E-01  6.74889985E-01  7.55047683E-01  8.32918876E-01
  8.82093718E-01  9.10754556E-01  9.20292958E-01  9.32769601E-01  1.04418759E+00
  1.06920204E+00  1.10235039E+00  1.14467947E+00  1.16534415E+00  1.21129534E+00
  1.24472827E+00  1.27875047E+00  1.32097504E+00  1.33205640E+00  1.36687870E+00
  1.37328406E+00  1.40029637E+00  1.43275680E+00  1.46736743E+00  1.48892621E+00
  1.53697520E+00  1.61392357E+00  1.64775312E+00  1.67321902E+00  1.70503273E+00
  1.78240279E+00  1.80273281E+00  1.83250903E+00  1.85164030E+00  1.87299384E+00
  1.89637820E+00  1.94605875E+00  2.00112393E+00  2.05407521E+00  2.07214040E+00
  2.10872000E+00  2.16065187E+00  2.22596055E+00  2.35087970E+00  2.44404454E+00
  2.46403180E+00  2.53502191E+00  2.56328907E+00  2.78564603E+00  2.84872826E+00
  2.90827068E+00  2.95303790E+00  2.95777878E+00  2.98733078E+00  3.24430531E+00
  3.36038137E+00  3.42314856E+00  3.43740624E+00  3.43940769E+00  3.44744898E+00
  3.46489850E+00  3.48040416E+00  3.51374599E+00  3.57248574E+00  3.62628106E+00
  3.65718834E+00  3.67472538E+00  3.70164587E+00  3.73252112E+00  3.76574247E+00
  3.79822620E+00  3.91350611E+00  4.11197721E+00  4.14825380E+00  4.30157440E+00
  4.32800622E+00  4.34751640E+00  4.58684314E+00  5.53604576E+00  5.56879197E+00
  5.61149636E+00  5.62430575E+00  5.63623872E+00  5.65450727E+00  5.67277802E+00
  5.75011437E+00  5.88784707E+00  5.96860934E+00  6.18120117E+00  6.21482017E+00
  7.86140386E+00  1.49861591E+01  1.50775182E+01  1.52803803E+01  2.51514728E+01
  5.16944127E+01  5.17138214E+01  5.17357727E+01  5.18337232E+01  1.66375499E+02
Alpha MO coefficients                      R   N=       19600
 -3.26404051E-06  4.96683265E-05  1.30526412E-05  2.38363172E-06 -1.79261015E-05
  2.88712447E-06  3.44131366E-07  1.05254753E-07  4.39763914E-07 -2.66013138E-06
  3.25758266E-06  1.13266385E-05 -1.17408623E-06  4.87221949E-06 -9.36613061E-06
 -5.20581454E-05  7.15419863E-06 -4.97561731E-06 -3.94120735E-05 -6.26889164E-06
  4.68196340E-07  8.01575048E-06  1.01171374E-05  1.19685807E-06  4.19272210E-01
  6.46642821E-01  1.07495074E-02 -1.06146059E-03  4.43998017E-04 -1.03022015E-04
  4.73694555E-05  1.98370022E-05 -4.87838982E-05 -1.64476937E-05 -7.13745251E-06
  1.63003000E-05  1.30310541E-05  6.88975153E-06 -1.17976326E-05 -1.27946251E-05
 -7.20772335E-06  1.78591091E-05 -3.29705511E-05 -2.63972782E-05  2.13206697E-06
 -2.40625230E-06  4.28650680E-06  1.10157301E-05 -2.80195736E-06  1.12509773E-05
  6.80333619E-07 -1.39849867E-06 -3.16375847E-06  1.21390183E-06  3.01215785E-07
  2.15113134E-05  8.07063740E-06 -2.18269241E-06  1.76802332E-07 -7.44050263E-05
  1.32609599E-05 -3.61690266E-05 -2.41300474E-05  8.17559301E-06  5.25609469E-06
 -5.41560028E-06 -7.55651876E-06  7.91949706E-06  2.13765080E-07  1.14819539E-06
  4.71807419E-06  4.24980097E-06  2.02479218E-07  1.25423365E-05 -2.10336881E-05
 -1.95963069E-05 -2.36670447E-06 -7.31481331E-05 -2.77884524E-05 -2.94315196E-05
 -1.31891794E-05  1.02165686E-05 -4.59062095E-06 -4.54087301E-06 -6.36142922E-07
 -1.88846795E-05  1.10963992E-07  1.70873063E-06 -7.52990777E-07 -2.15004505E-06
 -4.07252388E-06  7.57307085E-06  3.43656313E-06  1.01440550E-05  1.88213858E-05
 -4.59639014E-05  3.60256814E-06  2.79702678E-05  4.17812694E-05 -1.41487268E-05
 -2.66444420E-06 -1.69741524E-05  3.65904888E-06 -1.83167644E-06 -1.34666843E-07
  2.76931933E-07  2.27651779E-06  2.90697962E-07 -4.10688348E-07 -9.08147424E-06
 -8.59984342E-06 -8.52915541E-07  2.23248420E-06  6.40344369E-05 -5.96424453E-05
  1.90704977E-05  1.60299274E-05 -1.25999635E-06  2.00753983E-06 -3.25778750E-06
  5.67900544E-06  4.33998635E-06  2.20668980E-06 -2.30025541E-05  1.06050188E-05
  2.26647964E-06 -2.48133975E-07 -3.34302108E-06 -8.63227224E-07  1.63317463E-05
  8.92149671E-06 -7.08233571E-07  2.41858729E-06  2.02930920E-06  2.40385541E-06
 -2.40307717E-05  6.58766545E-06  4.15215304E-06 -2.56000593E-06  1.77682809E-06
  1.98207377E-04  9.27763906E-05  2.23250484E-05  1.16722772E-05 -9.37250819E-05
 -2.56589771E-05  5.51441649E-01  4.71650673E-01 -9.88194244E-05  3.82116060E-04
  1.45804428E-03  5.57322705E-03  4.54707905E-05 -2.16335259E-04 -4.78222916E-04
 -6.43448402E-04 -2.74213539E-05  1.87303784E-04  1.05929988E-05  9.07096445E-06
  1.17086108E-05 -1.13178787E-05  1.10733818E-04  2.56010301E-05  2.36593409E-06
  5.23843851E-06 -1.45968259E-06 -6.04188889E-05  2.66481438E-05  5.44450113E-04
 -5.09710084E-07 -6.24172582E-06  6.42899367E-06  4.72710811E-06 -2.59877015E-05
  2.41813713E-05 -1.60638211E-05  3.14103581E-05 -2.60494986E-05  1.39044449E-05
  1.59455932E-04 -1.54136310E-04  6.51760926E-05  6.83850902E-05 -1.54354431E-04
  2.04109111E-05  5.62925679E-06 -8.83511000E-05 -5.34816751E-05 -2.16450879E-06
 -4.44157109E-03 -3.79976929E-03  2.99542839E-06 -9.08991493E-06 -2.42551096E-06
 -3.29859557E-05 -5.18571865E-06 -1.73947497E-05 -4.52100653E-06 -8.40462172E-05
  8.15874246E-05  7.36707203E-06  4.24138739E-05 -8.88881908E-07 -2.75502469E-06
  2.97903187E-06  3.39148190E-06  6.39028265E-06 -4.03959740E-05 -3.76329195E-05
 -2.89179933E-06 -4.70210024E-06  4.80460510E-06  2.99220249E-05  9.14875736E-06
  1.27170515E-06 -9.34259673E-06 -1.15537397E-04 -3.61766078E-05 -4.96348459E-05
  5.28288300E-05  9.06832821E-07  3.64228344E-06  4.63010117E-06  2.55083649E-06
  4.15644075E-08 -5.93248255E-05 -5.48100136E-05  3.58839416E-07 -3.01125323E-06
  1.08918221E-05  3.73065687E-05  1.69754476E-06  2.23814308E-06 -1.93562251E-05
 -1.33613273E-04 -5.00384150E-06 -2.75738305E-05  1.10857379E-04 -9.05392441E-06
 -1.05849358E-07  6.78595883E-06 -2.41773975E-06  1.81580953E-06  1.19591531E-07
  8.52221115E-07 -5.29046839E-06 -1.46610191E-07 -8.95904672E-07  1.02860992E-05
  1.79675332E-05  1.88248898E-06  4.72889568E-06 -1.46434390E-04  4.73920592E-05
 -1.13770348E-05 -2.94896478E-05  2.15509123E-06  1.69675438E-06  1.62547141E-06
 -3.49518742E-06  2.29547126E-06  1.42381495E-06  5.24802245E-06  1.00662803E-05
  2.42664061E-06 -4.35746958E-06  4.90749741E-06 -9.19617071E-07  8.13391845E-06
 -1.90414955E-05  7.53507084E-07 -2.51618931E-08  2.56309495E-06 -3.73066150E-06
  3.33397402E-05  2.27289713E-05 -2.61279930E-06  1.19383145E-07 -3.13307977E-06
  3.79713098E-06  1.91699952E-05  9.83778318E-06  1.09910780E-06 -1.00999062E-05
 -3.86730044E-06  4.44341340E-03  3.79847063E-03 -3.29102784E-06  5.74668237E-06
  1.21936410E-05  7.06332418E-05 -7.52941764E-07 -6.04427875E-07 -1.31690794E-05
 -1.45071855E-04 -3.48264935E-05  3.77126314E-05 -2.48551135E-05  1.95357454E-06
 -4.73676662E-06 -1.23832124E-06  4.09536509E-06  5.35957669E-06  2.47517827E-06
  5.30832426E-06 -3.42432820E-07 -6.61869684E-05  6.52002294E-05  3.90232452E-04
 -8.05854706E-06  2.89514250E-06  2.57500052E-06 -3.20700108E-05  1.58367139E-05
  8.16030260E-06  4.12270636E-05 -3.71178795E-05 -1.02114509E-05  1.80700037E-04
 -9.83238033E-06 -3.36038880E-05  9.83874055E-05 -7.66739463E-05 -6.32542834E-05
 -2.98679024E-05 -3.02004495E-05  4.07156787E-06  5.94158203E-05 -5.55993827E-05
  5.51436427E-01  4.71640125E-01  2.23487352E-04  1.36039619E-03  6.40306801E-04
  5.65794284E-03 -1.53910537E-04 -4.79446130E-04 -2.24057433E-04 -8.09707099E-04
  2.09199194E-05  1.76840113E-05  1.29076242E-05  9.37561592E-05 -1.99413429E-05
 -4.72642051E-05 -7.72833168E-05 -6.86718427E-05 -4.13721202E-05 -3.84991114E-05
 -6.21288716E-06 -4.19180046E-07  1.17105364E-06  2.71867187E-05  5.87826648E-06
  2.45500983E-06 -3.13534649E-06 -8.74720097E-05 -4.15607662E-05  9.73065147E-06
  1.74161337E-05 -1.76850411E-06  1.23397886E-06  2.38140662E-06 -1.81819671E-06
  3.01769488E-06 -4.78419291E-05 -4.44092489E-05 -6.11099834E-06  4.75976345E-06
  5.85847294E-06  3.23984530E-05  9.96232300E-06 -6.54697816E-06 -1.08668720E-05
 -1.14243044E-04 -6.06054670E-05  5.06323154E-05  6.73552087E-05 -2.16886415E-07
  8.03191470E-06 -3.67706031E-06  6.57138389E-07  4.96770964E-06 -2.93666505E-06
 -3.10740279E-05 -1.90739478E-05 -2.63549822E-05 -1.13744754E-05  9.29578556E-05
 -2.18670057E-04 -7.64115818E-05 -2.97811363E-05  3.24550216E-04 -7.41209130E-05
 -1.11652736E-04 -5.65121891E-05 -4.93603676E-05  3.76875552E-05 -1.13044639E-06
  6.74630959E-05  8.88431875E-05  1.30445877E-05 -6.42644132E-05 -1.01950559E-05
  2.21214602E-05  1.15992201E-05  1.37959537E-05  2.07738217E-05 -5.80315615E-05
 -3.28857944E-05 -1.30229375E-05  1.29807332E-05  9.82850828E-06  9.40199646E-06
 -5.21808700E-05  6.64544268E-07  1.41112875E-05  1.82256560E-05 -5.15116166E-06
  2.65855879E-06  5.71715440E-05 -5.89396154E-05  5.28704777E-06 -1.48561822E-05
 -1.63347599E-05  6.16772451E-05  5.04343154E-05 -1.91879681E-06  4.45483740E-06
 -7.13736760E-06  3.27125387E-05  6.03980989E-06 -1.11400102E-05  2.23007017E-06
 -1.79891915E-04 -2.18840840E-05 -3.04319772E-08 -1.14070218E-04 -7.15437777E-06
 -1.32807850E-06 -5.98925401E-06  4.51428770E-06  2.85323340E-06  4.54921947E-06
  1.01117903E-05 -4.47088947E-06 -1.08378421E-04  9.64044623E-05  5.33818183E-04
 -2.02464827E-06 -6.00680198E-06 -9.14696730E-06 -4.04239843E-06 -2.98438251E-05
 -5.77123463E-05 -6.37860981E-06  3.24140369E-05  8.91802087E-05  6.16145238E-05
  1.49540375E-04  1.66301653E-04  8.66610605E-05  1.55199276E-04  1.31641564E-04