 Entering Gaussian System, Link 0=/opt/g09gh/gaussian/g09/g09
 Input=MonoMethylPhosphate1H-opt.com
 Output=MonoMethylPhosphate1H-opt.log
 Initial command:
 /opt/g09gh/gaussian/g09/l1.exe /scratch/bdw2292/Gau-MonoMethylPhosphate1H/Gau-30306.inp -scrdir=/scratch/bdw2292/Gau-MonoMethylPhosphate1H/
 Entering Link 1 = /opt/g09gh/gaussian/g09/l1.exe PID=     30307.
  
 Copyright (c) 1988,1990,1992,1993,1995,1998,2003,2009, Gaussian, Inc.
                  All Rights Reserved.
  
 This is part of the Gaussian(R) 09 program.  It is based on
 the Gaussian(R) 03 system (copyright 2003, Gaussian, Inc.),
 the Gaussian(R) 98 system (copyright 1998, Gaussian, Inc.),
 the Gaussian(R) 94 system (copyright 1995, Gaussian, Inc.),
 the Gaussian 92(TM) system (copyright 1992, Gaussian, Inc.),
 the Gaussian 90(TM) system (copyright 1990, Gaussian, Inc.),
 the Gaussian 88(TM) system (copyright 1988, Gaussian, Inc.),
 the Gaussian 86(TM) system (copyright 1986, Carnegie Mellon
 University), and the Gaussian 82(TM) system (copyright 1983,
 Carnegie Mellon University). Gaussian is a federally registered
 trademark of Gaussian, Inc.
  
 This software contains proprietary and confidential information,
 including trade secrets, belonging to Gaussian, Inc.
  
 This software is provided under written license and may be
 used, copied, transmitted, or stored only in accord with that
 written license.
  
 The following legend is applicable only to US Government
 contracts under FAR:
  
                    RESTRICTED RIGHTS LEGEND
  
 Use, reproduction and disclosure by the US Government is
 subject to restrictions as set forth in subparagraphs (a)
 and (c) of the Commercial Computer Software - Restricted
 Rights clause in FAR 52.227-19.
  
 Gaussian, Inc.
 340 Quinnipiac St., Bldg. 40, Wallingford CT 06492
  
  
 ---------------------------------------------------------------
 Warning -- This program may not be used in any manner that
 competes with the business of Gaussian, Inc. or will provide
 assistance to any competitor of Gaussian, Inc.  The licensee
 of this program is prohibited from giving any competitor of
 Gaussian, Inc. access to this program.  By using this program,
 the user acknowledges that Gaussian, Inc. is engaged in the
 business of creating and licensing software in the field of
 computational chemistry and represents and warrants to the
 licensee that it is not a competitor of Gaussian, Inc. and that
 it will not use this program in any manner prohibited above.
 ---------------------------------------------------------------
  

 Cite this work as:
 Gaussian 09, Revision A.02,
 M. J. Frisch, G. W. Trucks, H. B. Schlegel, G. E. Scuseria, 
 M. A. Robb, J. R. Cheeseman, G. Scalmani, V. Barone, B. Mennucci, 
 G. A. Petersson, H. Nakatsuji, M. Caricato, X. Li, H. P. Hratchian, 
 A. F. Izmaylov, J. Bloino, G. Zheng, J. L. Sonnenberg, M. Hada, 
 M. Ehara, K. Toyota, R. Fukuda, J. Hasegawa, M. Ishida, T. Nakajima, 
 Y. Honda, O. Kitao, H. Nakai, T. Vreven, J. A. Montgomery, Jr., 
 J. E. Peralta, F. Ogliaro, M. Bearpark, J. J. Heyd, E. Brothers, 
 K. N. Kudin, V. N. Staroverov, R. Kobayashi, J. Normand, 
 K. Raghavachari, A. Rendell, J. C. Burant, S. S. Iyengar, J. Tomasi, 
 M. Cossi, N. Rega, J. M. Millam, M. Klene, J. E. Knox, J. B. Cross, 
 V. Bakken, C. Adamo, J. Jaramillo, R. Gomperts, R. E. Stratmann, 
 O. Yazyev, A. J. Austin, R. Cammi, C. Pomelli, J. W. Ochterski, 
 R. L. Martin, K. Morokuma, V. G. Zakrzewski, G. A. Voth, 
 P. Salvador, J. J. Dannenberg, S. Dapprich, A. D. Daniels, 
 O. Farkas, J. B. Foresman, J. V. Ortiz, J. Cioslowski, 
 and D. J. Fox, Gaussian, Inc., Wallingford CT, 2009.
 
 ******************************************
 Gaussian 09:  EM64L-G09RevA.02 11-Jun-2009
                21-Sep-2020 
 ******************************************
 %RWF=/scratch/bdw2292/Gau-MonoMethylPhosphate1H/,150GB
 %Nosave
 %Chk=MonoMethylPhosphate1H-opt.chk
 %Mem=100GB
 %Nproc=4
 Will use up to    4 processors via shared memory.
 ----------------------------------------------------------------
 #P opt=(maxcycle=3,Loose) wB97XD/6-31G* Guess=INDO MaxDisk=150GB
 ----------------------------------------------------------------
 1/6=3,7=-1,14=-1,18=20,19=15,26=3,38=1/1,3;
 2/9=110,12=2,17=6,18=5,40=1/2;
 3/5=1,6=6,7=1,11=2,16=1,25=1,30=1,71=1,74=-58/1,2,3;
 4/5=4,11=3/1;
 5/5=2,38=5/2;
 6/7=2,8=2,9=2,10=2,28=1/1;
 7//1,2,3,16;
 1/6=3,7=-1,14=-1,18=20,19=15/3(2);
 2/9=110/2;
 99//99;
 2/9=110/2;
 3/5=1,6=6,7=1,11=2,16=1,25=1,30=1,71=1,74=-58/1,2,3;
 4/5=5,11=3,16=3/1;
 5/5=2,38=5/2;
 7//1,2,3,16;
 1/6=3,7=-1,14=-1,18=20,19=15/3(-5);
 2/9=110/2;
 6/7=2,8=2,9=2,10=2,19=2,28=1/1;
 99/9=1/99;
 Leave Link    1 at Mon Sep 21 15:32:38 2020, MaxMem=13421772800 cpu:       0.1
 (Enter /opt/g09gh/gaussian/g09/l101.exe)
 ----------------------------------------------------------------------
 MonoMethylPhosphate1H Gaussian OPT Calculation on node37.bme.utexas.ed
 u
 ----------------------------------------------------------------------
 Symbolic Z-matrix:
 Charge = -1 Multiplicity = 1
 H                     0.447     1.202    -1.651 
 O                     0.378     1.432    -0.708 
 P                     0.435    -0.024    -0.018 
 O                    -0.943     0.027     0.827 
 O                     1.637    -0.069     0.876 
 O                     0.269    -0.939    -1.202 
 C                    -2.145    -0.092     0.103 
 H                    -2.177     0.624    -0.723 
 H                    -2.981     0.116     0.776 
 H                    -2.254    -1.11     -0.282 
 
 NAtoms=     10 NQM=     10 NQMF=      0 NMic=      0 NMicF=      0 NTot=     10.
                    Isotopes and Nuclear Properties:
 (Nuclear quadrupole moments (NQMom) in fm**2, nuclear magnetic moments (NMagM)
  in nuclear magnetons)

  Atom         1           2           3           4           5           6           7           8           9          10
 IAtWgt=           1          16          31          16          16          16          12           1           1           1
 AtmWgt=   1.0078250  15.9949146  30.9737634  15.9949146  15.9949146  15.9949146  12.0000000   1.0078250   1.0078250   1.0078250
 NucSpn=           1           0           1           0           0           0           0           1           1           1
 AtZEff=   0.0000000   0.0000000   0.0000000   0.0000000   0.0000000   0.0000000   0.0000000   0.0000000   0.0000000   0.0000000
 NQMom=    0.0000000   0.0000000   0.0000000   0.0000000   0.0000000   0.0000000   0.0000000   0.0000000   0.0000000   0.0000000
 NMagM=    2.7928460   0.0000000   1.1316000   0.0000000   0.0000000   0.0000000   0.0000000   2.7928460   2.7928460   2.7928460
 Leave Link  101 at Mon Sep 21 15:32:38 2020, MaxMem=13421772800 cpu:       0.3
 (Enter /opt/g09gh/gaussian/g09/l103.exe)

 GradGradGradGradGradGradGradGradGradGradGradGradGradGradGradGradGradGrad
 Berny optimization.
 Initialization pass.
                           ----------------------------
                           !    Initial Parameters    !
                           ! (Angstroms and Degrees)  !
 --------------------------                            --------------------------
 ! Name  Definition              Value          Derivative Info.                !
 --------------------------------------------------------------------------------
 ! R1    R(1,2)                  0.9731         estimate D2E/DX2                !
 ! R2    R(2,3)                  1.6122         estimate D2E/DX2                !
 ! R3    R(3,4)                  1.6173         estimate D2E/DX2                !
 ! R4    R(3,5)                  1.4987         estimate D2E/DX2                !
 ! R5    R(3,6)                  1.5055         estimate D2E/DX2                !
 ! R6    R(4,7)                  1.4082         estimate D2E/DX2                !
 ! R7    R(7,8)                  1.0936         estimate D2E/DX2                !
 ! R8    R(7,9)                  1.0932         estimate D2E/DX2                !
 ! R9    R(7,10)                 1.0938         estimate D2E/DX2                !
 ! A1    A(1,2,3)              101.4657         estimate D2E/DX2                !
 ! A2    A(2,3,4)               99.4979         estimate D2E/DX2                !
 ! A3    A(2,3,5)              108.1057         estimate D2E/DX2                !
 ! A4    A(2,3,6)              102.028          estimate D2E/DX2                !
 ! A5    A(4,3,5)              111.8793         estimate D2E/DX2                !
 ! A6    A(4,3,6)              109.6407         estimate D2E/DX2                !
 ! A7    A(5,3,6)              122.6365         estimate D2E/DX2                !
 ! A8    A(3,4,7)              117.1286         estimate D2E/DX2                !
 ! A9    A(4,7,8)              110.9753         estimate D2E/DX2                !
 ! A10   A(4,7,9)              108.672          estimate D2E/DX2                !
 ! A11   A(4,7,10)             110.1611         estimate D2E/DX2                !
 ! A12   A(8,7,9)              108.5441         estimate D2E/DX2                !
 ! A13   A(8,7,10)             109.9117         estimate D2E/DX2                !
 ! A14   A(9,7,10)             108.5154         estimate D2E/DX2                !
 ! D1    D(1,2,3,4)           -124.0631         estimate D2E/DX2                !
 ! D2    D(1,2,3,5)            119.0509         estimate D2E/DX2                !
 ! D3    D(1,2,3,6)            -11.4759         estimate D2E/DX2                !
 ! D4    D(2,3,4,7)             73.5114         estimate D2E/DX2                !
 ! D5    D(5,3,4,7)           -172.4888         estimate D2E/DX2                !
 ! D6    D(6,3,4,7)            -32.9905         estimate D2E/DX2                !
 ! D7    D(3,4,7,8)            -51.9415         estimate D2E/DX2                !
 ! D8    D(3,4,7,9)           -171.2218         estimate D2E/DX2                !
 ! D9    D(3,4,7,10)            70.0171         estimate D2E/DX2                !
 --------------------------------------------------------------------------------
 Trust Radius=3.00D-01 FncErr=1.00D-07 GrdErr=1.00D-06
 Number of steps in this run=   3 maximum allowed number of steps= 100.
 GradGradGradGradGradGradGradGradGradGradGradGradGradGradGradGradGradGrad

 Leave Link  103 at Mon Sep 21 15:32:38 2020, MaxMem=13421772800 cpu:       0.0
 (Enter /opt/g09gh/gaussian/g09/l202.exe)
                          Input orientation:                          
 ---------------------------------------------------------------------
 Center     Atomic      Atomic             Coordinates (Angstroms)
 Number     Number       Type             X           Y           Z
 ---------------------------------------------------------------------
      1          1           0        0.447000    1.202000   -1.651000
      2          8           0        0.378000    1.432000   -0.708000
      3         15           0        0.435000   -0.024000   -0.018000
      4          8           0       -0.943000    0.027000    0.827000
      5          8           0        1.637000   -0.069000    0.876000
      6          8           0        0.269000   -0.939000   -1.202000
      7          6           0       -2.145000   -0.092000    0.103000
      8          1           0       -2.177000    0.624000   -0.723000
      9          1           0       -2.981000    0.116000    0.776000
     10          1           0       -2.254000   -1.110000   -0.282000
 ---------------------------------------------------------------------
                    Distance matrix (angstroms):
                    1          2          3          4          5
     1  H    0.000000
     2  O    0.973093   0.000000
     3  P    2.042036   1.612230   0.000000
     4  O    3.074607   2.464811   1.617254   0.000000
     5  O    3.068757   2.519353   1.498688   2.582250   0.000000
     6  O    2.194804   2.424368   1.505535   2.553222   2.635604
     7  C    3.386653   3.057094   2.583731   1.408240   3.860257
     8  H    2.842647   2.679760   2.781991   2.069218   4.193286
     9  H    4.338307   3.900896   3.509856   2.040580   4.622786
    10  H    3.809843   3.683838   2.912012   2.059459   4.191005
                    6          7          8          9         10
     6  O    0.000000
     7  C    2.871904   0.000000
     8  H    2.941994   1.093598   0.000000
     9  H    3.948165   1.093201   1.775241   0.000000
    10  H    2.690942   1.093814   1.790856   1.775097   0.000000
 Stoichiometry    CH4O4P(1-)
 Framework group  C1[X(CH4O4P)]
 Deg. of freedom    24
 Full point group                 C1      NOp   1
 Largest Abelian subgroup         C1      NOp   1
 Largest concise Abelian subgroup C1      NOp   1
                         Standard orientation:                         
 ---------------------------------------------------------------------
 Center     Atomic      Atomic             Coordinates (Angstroms)
 Number     Number       Type             X           Y           Z
 ---------------------------------------------------------------------
      1          1           0       -0.636516    1.774925   -0.728652
      2          8           0       -0.545212    0.909810   -1.164713
      3         15           0       -0.471088   -0.082311    0.103943
      4          8           0        0.933441   -0.818145   -0.214424
      5          8           0       -1.629186   -1.030052    0.022332
      6          8           0       -0.289810    0.881783    1.246001
      7          6           0        2.110079   -0.071725   -0.010656
      8          1           0        2.057590    0.890655   -0.527401
      9          1           0        2.956285   -0.635912   -0.411550
     10          1           0        2.274627    0.088186    1.058822
 ---------------------------------------------------------------------
 Rotational constants (GHZ):      4.6932925      2.6523734      2.5363959
 Leave Link  202 at Mon Sep 21 15:32:38 2020, MaxMem=13421772800 cpu:       0.0
 (Enter /opt/g09gh/gaussian/g09/l301.exe)
 Standard basis: 6-31G(d) (6D, 7F)
 Ernie: Thresh=  0.10000D-02 Tol=  0.10000D-05 Strict=F.
 There are   102 symmetry adapted basis functions of A   symmetry.
 Integral buffers will be    131072 words long.
 Raffenetti 2 integral format.
 Two-electron integral symmetry is turned on.
   102 basis functions,   208 primitive gaussians,   102 cartesian basis functions
    29 alpha electrons       29 beta electrons
       nuclear repulsion energy       352.5481695691 Hartrees.
 IExCor= 4639 DFT=T Ex+Corr=wB97XD ExCW=0 ScaHFX=  1.000000
 ScaDFX=  1.000000  1.000000  1.000000  1.000000 ScalE2=  1.000000  1.000000
 IRadAn=      0 IRanWt=     -1 IRanGd=            0 ICorTp=0
  HFx wShort=  0.000000 wLong=  0.200000 cFull=  0.222036 cShort=  0.000000 cLong=  0.777964
  DFx wShort=  0.000000 wLong=  0.200000 cFull=  0.000000 cShort=  0.000000 cLong=  1.000000
 NAtoms=   10 NActive=   10 NUniq=   10 SFac= 7.50D-01 NAtFMM=   80 NAOKFM=F Big=F
 R6Disp: Dispersion energy =        -0.0030125665 Hartrees.
 Nuclear repulsion after empirical dispersion term =      352.5451570026 Hartrees.
 Leave Link  301 at Mon Sep 21 15:32:38 2020, MaxMem=13421772800 cpu:       0.2
 (Enter /opt/g09gh/gaussian/g09/l302.exe)
 NPDir=0 NMtPBC=     1 NCelOv=     1 NCel=       1 NClECP=     1 NCelD=      1
         NCelK=      1 NCelE2=     1 NClLst=     1 CellRange=     0.0.
 One-electron integrals computed using PRISM.
 NBasis=   102 RedAO= T  NBF=   102
 NBsUse=   102 1.00D-06 NBFU=   102
 Precomputing XC quadrature grid using
 IXCGrd= 2 IRadAn=           0 IRanWt=          -1 IRanGd=           0 AccXCQ= 1.00D-10.
 NRdTot=     624 NPtTot=       79098 NUsed=       83609 NTot=       83641
 NSgBfM=   102   102   102   102   102 NAtAll=    10    10.
 Leave Link  302 at Mon Sep 21 15:32:38 2020, MaxMem=13421772800 cpu:       0.5
 (Enter /opt/g09gh/gaussian/g09/l303.exe)
 DipDrv:  MaxL=1.
 Leave Link  303 at Mon Sep 21 15:32:38 2020, MaxMem=13421772800 cpu:       0.1
 (Enter /opt/g09gh/gaussian/g09/l401.exe)
 Projected New-EHT guess.
 Enter ItEHT:  IZDO=4 IZDPar=0 Conv= 1.00D-06 N=   28
 It=   1                  EEH= -52.3608010022     EQH= 0.000000000000E+00 EH= -52.3608010022    
 Initial guess orbital symmetries:
       Occupied  (A) (A) (A) (A) (A) (A) (A) (A) (A) (A) (A) (A)
                 (A) (A) (A) (A) (A) (A) (A) (A) (A) (A) (A) (A)
                 (A) (A) (A) (A) (A)
       Virtual   (A) (A) (A) (A) (A) (A) (A) (A) (A) (A) (A) (A)
                 (A) (A) (A) (A) (A) (A) (A) (A) (A) (A) (A) (A)
                 (A) (A) (A) (A) (A) (A) (A) (A) (A) (A) (A) (A)
                 (A) (A) (A) (A) (A) (A) (A) (A) (A) (A) (A) (A)
                 (A) (A) (A) (A) (A) (A) (A) (A) (A) (A) (A) (A)
                 (A) (A) (A) (A) (A) (A) (A) (A) (A) (A) (A) (A)
                 (A)
 The electronic state of the initial guess is 1-A.
 Leave Link  401 at Mon Sep 21 15:32:38 2020, MaxMem=13421772800 cpu:       0.3
 (Enter /opt/g09gh/gaussian/g09/l502.exe)
 Closed shell SCF:
 Requested convergence on RMS density matrix=1.00D-08 within 128 cycles.
 Requested convergence on MAX density matrix=1.00D-06.
 Requested convergence on             energy=1.00D-06.
 No special actions if energy rises.
 Using DIIS extrapolation, IDIIS=  1040.
 Integral symmetry usage will be decided dynamically.
        83506 words used for storage of precomputed grid.
 IEnd=      134243 IEndB=      134243 NGot= 13421772800 MDV= 13421665704
 LenX= 13421665704 LenY= 13421654859
 Fock matrices will be formed incrementally for  20 cycles.
 Integral accuracy reduced to 1.0D-05 until final iterations.

 Cycle   1  Pass 0  IDiag  1:
 FoFJK:  IHMeth= 1 ICntrl=     0 DoSepK=T KAlg= 1 I1Cent= 0 FoldK=F
 FoFCou: FMM=F IPFlag=           0 FMFlag=      100000 FMFlg1=           0
         NFxFlg=           0 DoJE=T BraDBF=F KetDBF=F FulRan=T
         Omega=  0.000000  0.000000  1.000000  0.000000  0.000000 ICntrl=     500 IOpCl=  0
         NMat0=    1 NMatS0=    1 NMatT0=    0 NMatD0=    1 NMtDS0=    0 NMtDT0=    0
         I1Cent=           0 NGrid=           0.
 Symmetry not used in FoFCou.
 E= -678.924781012020    
 DIIS: error= 2.29D-01 at cycle   1 NSaved=   1.
 NSaved= 1 IEnMin= 1 EnMin= -678.924781012020     IErMin= 1 ErrMin= 2.29D-01
 ErrMax= 2.29D-01 EMaxC= 1.00D-01 BMatC= 1.17D+01 BMatP= 1.17D+01
 IDIUse=3 WtCom= 0.00D+00 WtEn= 1.00D+00
 Coeff-Com:  0.100D+01
 Coeff-En:   0.100D+01
 Coeff:      0.100D+01
 Gap=     0.643 Goal=   None    Shift=    0.000
 GapD=    0.643 DampG=2.000 DampE=0.250 DampFc=0.5000 IDamp=-1.
 Damping current iteration by 5.00D-01
 RMSDP=2.53D-02 MaxDP=4.90D-01              OVMax= 4.64D-01

 Cycle   2  Pass 0  IDiag  1:
 RMSU=  8.57D-03    CP:  9.17D-01
 FoFJK:  IHMeth= 1 ICntrl=     0 DoSepK=T KAlg= 1 I1Cent= 0 FoldK=F
 E= -680.731024577739     Delta-E=       -1.806243565719 Rises=F Damp=T
 DIIS: error= 1.15D-01 at cycle   2 NSaved=   2.
 NSaved= 2 IEnMin= 2 EnMin= -680.731024577739     IErMin= 2 ErrMin= 1.15D-01
 ErrMax= 1.15D-01 EMaxC= 1.00D-01 BMatC= 2.60D+00 BMatP= 1.17D+01
 IDIUse=3 WtCom= 0.00D+00 WtEn= 1.00D+00
 Coeff-Com: -0.557D+00 0.156D+01
 Coeff-En:   0.000D+00 0.100D+01
 Coeff:      0.000D+00 0.100D+01
 Gap=     0.475 Goal=   None    Shift=    0.000
 RMSDP=9.38D-03 MaxDP=2.16D-01 DE=-1.81D+00 OVMax= 2.36D-01

 Cycle   3  Pass 0  IDiag  1:
 RMSU=  6.31D-03    CP:  8.67D-01  1.16D+00
 FoFJK:  IHMeth= 1 ICntrl=     0 DoSepK=T KAlg= 1 I1Cent= 0 FoldK=F
 E= -682.709585577502     Delta-E=       -1.978560999763 Rises=F Damp=F
 DIIS: error= 1.75D-02 at cycle   3 NSaved=   3.
 NSaved= 3 IEnMin= 3 EnMin= -682.709585577502     IErMin= 3 ErrMin= 1.75D-02
 ErrMax= 1.75D-02 EMaxC= 1.00D-01 BMatC= 7.21D-02 BMatP= 2.60D+00
 IDIUse=3 WtCom= 8.25D-01 WtEn= 1.75D-01
 Coeff-Com: -0.106D+00 0.236D+00 0.871D+00
 Coeff-En:   0.000D+00 0.000D+00 0.100D+01
 Coeff:     -0.878D-01 0.195D+00 0.893D+00
 Gap=     0.517 Goal=   None    Shift=    0.000
 RMSDP=3.76D-03 MaxDP=1.29D-01 DE=-1.98D+00 OVMax= 7.04D-02

 Cycle   4  Pass 0  IDiag  1:
 RMSU=  1.98D-03    CP:  8.74D-01  1.30D+00  8.02D-01
 FoFJK:  IHMeth= 1 ICntrl=     0 DoSepK=T KAlg= 1 I1Cent= 0 FoldK=F
 E= -682.737425427971     Delta-E=       -0.027839850469 Rises=F Damp=F
 DIIS: error= 1.27D-02 at cycle   4 NSaved=   4.
 NSaved= 4 IEnMin= 4 EnMin= -682.737425427971     IErMin= 4 ErrMin= 1.27D-02
 ErrMax= 1.27D-02 EMaxC= 1.00D-01 BMatC= 3.68D-02 BMatP= 7.21D-02
 IDIUse=3 WtCom= 8.73D-01 WtEn= 1.27D-01
 Coeff-Com: -0.318D-01 0.634D-01 0.442D+00 0.527D+00
 Coeff-En:   0.000D+00 0.000D+00 0.308D+00 0.692D+00
 Coeff:     -0.278D-01 0.553D-01 0.425D+00 0.548D+00
 Gap=     0.461 Goal=   None    Shift=    0.000
 RMSDP=1.48D-03 MaxDP=2.78D-02 DE=-2.78D-02 OVMax= 3.63D-02

 Cycle   5  Pass 0  IDiag  1:
 RMSU=  6.50D-04    CP:  8.71D-01  1.28D+00  8.77D-01  6.74D-01
 FoFJK:  IHMeth= 1 ICntrl=     0 DoSepK=T KAlg= 1 I1Cent= 0 FoldK=F
 E= -682.762293336313     Delta-E=       -0.024867908342 Rises=F Damp=F
 DIIS: error= 2.48D-03 at cycle   5 NSaved=   5.
 NSaved= 5 IEnMin= 5 EnMin= -682.762293336313     IErMin= 5 ErrMin= 2.48D-03
 ErrMax= 2.48D-03 EMaxC= 1.00D-01 BMatC= 1.49D-03 BMatP= 3.68D-02
 IDIUse=3 WtCom= 9.75D-01 WtEn= 2.48D-02
 Coeff-Com:  0.580D-02-0.139D-01 0.279D-01 0.184D+00 0.796D+00
 Coeff-En:   0.000D+00 0.000D+00 0.000D+00 0.000D+00 0.100D+01
 Coeff:      0.565D-02-0.136D-01 0.272D-01 0.179D+00 0.801D+00
 Gap=     0.450 Goal=   None    Shift=    0.000
 RMSDP=3.10D-04 MaxDP=5.35D-03 DE=-2.49D-02 OVMax= 5.62D-03

 Cycle   6  Pass 0  IDiag  1:
 RMSU=  1.46D-04    CP:  8.71D-01  1.28D+00  8.77D-01  7.36D-01  8.39D-01
 FoFJK:  IHMeth= 1 ICntrl=     0 DoSepK=T KAlg= 1 I1Cent= 0 FoldK=F
 E= -682.763349412559     Delta-E=       -0.001056076246 Rises=F Damp=F
 DIIS: error= 4.77D-04 at cycle   6 NSaved=   6.
 NSaved= 6 IEnMin= 6 EnMin= -682.763349412559     IErMin= 6 ErrMin= 4.77D-04
 ErrMax= 4.77D-04 EMaxC= 1.00D-01 BMatC= 5.45D-05 BMatP= 1.49D-03
 IDIUse=3 WtCom= 9.95D-01 WtEn= 4.77D-03
 Coeff-Com:  0.398D-02-0.866D-02-0.277D-02 0.421D-01 0.270D+00 0.695D+00
 Coeff-En:   0.000D+00 0.000D+00 0.000D+00 0.000D+00 0.000D+00 0.100D+01
 Coeff:      0.396D-02-0.862D-02-0.276D-02 0.419D-01 0.269D+00 0.697D+00
 Gap=     0.450 Goal=   None    Shift=    0.000
 RMSDP=7.87D-05 MaxDP=1.44D-03 DE=-1.06D-03 OVMax= 1.98D-03

 Cycle   7  Pass 0  IDiag  1:
 RMSU=  4.70D-05    CP:  8.71D-01  1.28D+00  8.78D-01  7.42D-01  8.79D-01
                    CP:  9.80D-01
 FoFJK:  IHMeth= 1 ICntrl=     0 DoSepK=T KAlg= 1 I1Cent= 0 FoldK=F
 E= -682.763386664245     Delta-E=       -0.000037251687 Rises=F Damp=F
 DIIS: error= 2.60D-04 at cycle   7 NSaved=   7.
 NSaved= 7 IEnMin= 7 EnMin= -682.763386664245     IErMin= 7 ErrMin= 2.60D-04
 ErrMax= 2.60D-04 EMaxC= 1.00D-01 BMatC= 1.41D-05 BMatP= 5.45D-05
 IDIUse=3 WtCom= 9.97D-01 WtEn= 2.60D-03
 Coeff-Com:  0.131D-02-0.251D-02-0.574D-02-0.160D-01-0.255D-01 0.349D+00
 Coeff-Com:  0.700D+00
 Coeff-En:   0.000D+00 0.000D+00 0.000D+00 0.000D+00 0.000D+00 0.000D+00
 Coeff-En:   0.100D+01
 Coeff:      0.131D-02-0.250D-02-0.573D-02-0.160D-01-0.254D-01 0.348D+00
 Coeff:      0.700D+00
 Gap=     0.451 Goal=   None    Shift=    0.000
 RMSDP=3.94D-05 MaxDP=7.38D-04 DE=-3.73D-05 OVMax= 8.20D-04

 Cycle   8  Pass 0  IDiag  1:
 RMSU=  1.40D-05    CP:  8.71D-01  1.28D+00  8.79D-01  7.47D-01  8.93D-01
                    CP:  1.10D+00  8.14D-01
 FoFJK:  IHMeth= 1 ICntrl=     0 DoSepK=T KAlg= 1 I1Cent= 0 FoldK=F
 E= -682.763398146552     Delta-E=       -0.000011482307 Rises=F Damp=F
 DIIS: error= 5.23D-05 at cycle   8 NSaved=   8.
 NSaved= 8 IEnMin= 8 EnMin= -682.763398146552     IErMin= 8 ErrMin= 5.23D-05
 ErrMax= 5.23D-05 EMaxC= 1.00D-01 BMatC= 6.37D-07 BMatP= 1.41D-05
 IDIUse=1 WtCom= 1.00D+00 WtEn= 0.00D+00
 Coeff-Com:  0.215D-03-0.362D-03-0.126D-02-0.883D-02-0.310D-01 0.708D-01
 Coeff-Com:  0.251D+00 0.720D+00
 Coeff:      0.215D-03-0.362D-03-0.126D-02-0.883D-02-0.310D-01 0.708D-01
 Coeff:      0.251D+00 0.720D+00
 Gap=     0.451 Goal=   None    Shift=    0.000
 RMSDP=9.69D-06 MaxDP=1.44D-04 DE=-1.15D-05 OVMax= 1.81D-04

 Initial convergence to 1.0D-05 achieved.  Increase integral accuracy.
 Cycle   9  Pass 1  IDiag  1:
 FoFJK:  IHMeth= 1 ICntrl=     0 DoSepK=T KAlg= 1 I1Cent= 0 FoldK=F
 E= -682.763185035825     Delta-E=        0.000213110727 Rises=F Damp=F
 DIIS: error= 1.33D-04 at cycle   1 NSaved=   1.
 NSaved= 1 IEnMin= 1 EnMin= -682.763185035825     IErMin= 1 ErrMin= 1.33D-04
 ErrMax= 1.33D-04 EMaxC= 1.00D-01 BMatC= 1.30D-06 BMatP= 1.30D-06
 IDIUse=3 WtCom= 9.99D-01 WtEn= 1.33D-03
 Coeff-Com:  0.100D+01
 Coeff-En:   0.100D+01
 Coeff:      0.100D+01
 Gap=     0.451 Goal=   None    Shift=    0.000
 RMSDP=9.69D-06 MaxDP=1.44D-04 DE= 2.13D-04 OVMax= 1.61D-04

 Cycle  10  Pass 1  IDiag  1:
 RMSU=  1.41D-05    CP:  1.00D+00
 FoFJK:  IHMeth= 1 ICntrl=     0 DoSepK=T KAlg= 1 I1Cent= 0 FoldK=F
 E= -682.763185924674     Delta-E=       -0.000000888850 Rises=F Damp=F
 DIIS: error= 1.44D-05 at cycle   2 NSaved=   2.
 NSaved= 2 IEnMin= 2 EnMin= -682.763185924674     IErMin= 2 ErrMin= 1.44D-05
 ErrMax= 1.44D-05 EMaxC= 1.00D-01 BMatC= 5.91D-08 BMatP= 1.30D-06
 IDIUse=1 WtCom= 1.00D+00 WtEn= 0.00D+00
 Coeff-Com:  0.368D-01 0.963D+00
 Coeff:      0.368D-01 0.963D+00
 Gap=     0.450 Goal=   None    Shift=    0.000
 RMSDP=3.76D-06 MaxDP=7.69D-05 DE=-8.89D-07 OVMax= 7.45D-05

 Cycle  11  Pass 1  IDiag  1:
 RMSU=  2.55D-06    CP:  1.00D+00  1.05D+00
 FoFJK:  IHMeth= 1 ICntrl=     0 DoSepK=T KAlg= 1 I1Cent= 0 FoldK=F
 E= -682.763185936788     Delta-E=       -0.000000012114 Rises=F Damp=F
 DIIS: error= 1.80D-05 at cycle   3 NSaved=   3.
 NSaved= 3 IEnMin= 3 EnMin= -682.763185936788     IErMin= 2 ErrMin= 1.44D-05
 ErrMax= 1.80D-05 EMaxC= 1.00D-01 BMatC= 5.89D-08 BMatP= 5.91D-08
 IDIUse=1 WtCom= 1.00D+00 WtEn= 0.00D+00
 Coeff-Com: -0.267D-01 0.506D+00 0.521D+00
 Coeff:     -0.267D-01 0.506D+00 0.521D+00
 Gap=     0.450 Goal=   None    Shift=    0.000
 RMSDP=1.79D-06 MaxDP=4.53D-05 DE=-1.21D-08 OVMax= 4.49D-05

 Cycle  12  Pass 1  IDiag  1:
 RMSU=  7.39D-07    CP:  1.00D+00  1.07D+00  6.14D-01
 FoFJK:  IHMeth= 1 ICntrl=     0 DoSepK=T KAlg= 1 I1Cent= 0 FoldK=F
 E= -682.763185978663     Delta-E=       -0.000000041875 Rises=F Damp=F
 DIIS: error= 2.48D-06 at cycle   4 NSaved=   4.
 NSaved= 4 IEnMin= 4 EnMin= -682.763185978663     IErMin= 4 ErrMin= 2.48D-06
 ErrMax= 2.48D-06 EMaxC= 1.00D-01 BMatC= 1.29D-09 BMatP= 5.89D-08
 IDIUse=1 WtCom= 1.00D+00 WtEn= 0.00D+00
 Coeff-Com: -0.109D-01 0.105D+00 0.167D+00 0.739D+00
 Coeff:     -0.109D-01 0.105D+00 0.167D+00 0.739D+00
 Gap=     0.450 Goal=   None    Shift=    0.000
 RMSDP=4.25D-07 MaxDP=1.06D-05 DE=-4.19D-08 OVMax= 9.65D-06

 Cycle  13  Pass 1  IDiag  1:
 RMSU=  2.52D-07    CP:  1.00D+00  1.08D+00  6.62D-01  9.70D-01
 FoFJK:  IHMeth= 1 ICntrl=     0 DoSepK=T KAlg= 1 I1Cent= 0 FoldK=F
 E= -682.763185979694     Delta-E=       -0.000000001030 Rises=F Damp=F
 DIIS: error= 7.58D-07 at cycle   5 NSaved=   5.
 NSaved= 5 IEnMin= 5 EnMin= -682.763185979694     IErMin= 5 ErrMin= 7.58D-07
 ErrMax= 7.58D-07 EMaxC= 1.00D-01 BMatC= 2.24D-10 BMatP= 1.29D-09
 IDIUse=1 WtCom= 1.00D+00 WtEn= 0.00D+00
 Coeff-Com: -0.445D-03-0.253D-01-0.325D-02 0.297D+00 0.732D+00
 Coeff:     -0.445D-03-0.253D-01-0.325D-02 0.297D+00 0.732D+00
 Gap=     0.450 Goal=   None    Shift=    0.000
 RMSDP=1.81D-07 MaxDP=2.88D-06 DE=-1.03D-09 OVMax= 3.49D-06

 Cycle  14  Pass 1  IDiag  1:
 RMSU=  7.61D-08    CP:  1.00D+00  1.08D+00  6.73D-01  1.10D+00  9.49D-01
 FoFJK:  IHMeth= 1 ICntrl=     0 DoSepK=T KAlg= 1 I1Cent= 0 FoldK=F
 E= -682.763185979902     Delta-E=       -0.000000000208 Rises=F Damp=F
 DIIS: error= 2.56D-07 at cycle   6 NSaved=   6.
 NSaved= 6 IEnMin= 6 EnMin= -682.763185979902     IErMin= 6 ErrMin= 2.56D-07
 ErrMax= 2.56D-07 EMaxC= 1.00D-01 BMatC= 1.91D-11 BMatP= 2.24D-10
 IDIUse=1 WtCom= 1.00D+00 WtEn= 0.00D+00
 Coeff-Com:  0.693D-03-0.183D-01-0.159D-01 0.391D-01 0.267D+00 0.728D+00
 Coeff:      0.693D-03-0.183D-01-0.159D-01 0.391D-01 0.267D+00 0.728D+00
 Gap=     0.450 Goal=   None    Shift=    0.000
 RMSDP=6.34D-08 MaxDP=9.51D-07 DE=-2.08D-10 OVMax= 1.29D-06

 Cycle  15  Pass 1  IDiag  1:
 RMSU=  2.66D-08    CP:  1.00D+00  1.08D+00  6.78D-01  1.13D+00  1.04D+00
                    CP:  9.71D-01
 FoFJK:  IHMeth= 1 ICntrl=     0 DoSepK=T KAlg= 1 I1Cent= 0 FoldK=F
 E= -682.763185979921     Delta-E=       -0.000000000019 Rises=F Damp=F
 DIIS: error= 1.03D-07 at cycle   7 NSaved=   7.
 NSaved= 7 IEnMin= 7 EnMin= -682.763185979921     IErMin= 7 ErrMin= 1.03D-07
 ErrMax= 1.03D-07 EMaxC= 1.00D-01 BMatC= 2.43D-12 BMatP= 1.91D-11
 IDIUse=1 WtCom= 1.00D+00 WtEn= 0.00D+00
 Coeff-Com:  0.313D-03-0.344D-02-0.542D-02-0.259D-01 0.330D-02 0.271D+00
 Coeff-Com:  0.760D+00
 Coeff:      0.313D-03-0.344D-02-0.542D-02-0.259D-01 0.330D-02 0.271D+00
 Coeff:      0.760D+00
 Gap=     0.450 Goal=   None    Shift=    0.000
 RMSDP=2.65D-08 MaxDP=4.00D-07 DE=-1.93D-11 OVMax= 5.06D-07

 Cycle  16  Pass 1  IDiag  1:
 RMSU=  7.98D-09    CP:  1.00D+00  1.08D+00  6.79D-01  1.14D+00  1.08D+00
                    CP:  1.10D+00  9.80D-01
 FoFJK:  IHMeth= 1 ICntrl=     0 DoSepK=T KAlg= 1 I1Cent= 0 FoldK=F
 E= -682.763185979919     Delta-E=        0.000000000003 Rises=F Damp=F
 DIIS: error= 3.09D-08 at cycle   8 NSaved=   8.
 NSaved= 8 IEnMin= 7 EnMin= -682.763185979921     IErMin= 8 ErrMin= 3.09D-08
 ErrMax= 3.09D-08 EMaxC= 1.00D-01 BMatC= 2.07D-13 BMatP= 2.43D-12
 IDIUse=1 WtCom= 1.00D+00 WtEn= 0.00D+00
 Coeff-Com:  0.668D-04 0.354D-03-0.541D-03-0.127D-01-0.227D-01 0.240D-01
 Coeff-Com:  0.249D+00 0.763D+00
 Coeff:      0.668D-04 0.354D-03-0.541D-03-0.127D-01-0.227D-01 0.240D-01
 Coeff:      0.249D+00 0.763D+00
 Gap=     0.450 Goal=   None    Shift=    0.000
 RMSDP=8.76D-09 MaxDP=1.53D-07 DE= 2.50D-12 OVMax= 2.25D-07

 SCF Done:  E(RwB97XD) =  -682.763185980     A.U. after   16 cycles
             Convg  =    0.8757D-08             -V/T =  2.0058
 KE= 6.788580365055D+02 PE=-2.333551462250D+03 EE= 6.193850827623D+02
 Leave Link  502 at Mon Sep 21 15:32:48 2020, MaxMem=13421772800 cpu:      38.8
 (Enter /opt/g09gh/gaussian/g09/l601.exe)
 Copying SCF densities to generalized density rwf, IOpCl= 0 IROHF=0.

 **********************************************************************

            Population analysis using the SCF density.

 **********************************************************************

 Orbital symmetries:
       Occupied  (A) (A) (A) (A) (A) (A) (A) (A) (A) (A) (A) (A)
                 (A) (A) (A) (A) (A) (A) (A) (A) (A) (A) (A) (A)
                 (A) (A) (A) (A) (A)
       Virtual   (A) (A) (A) (A) (A) (A) (A) (A) (A) (A) (A) (A)
                 (A) (A) (A) (A) (A) (A) (A) (A) (A) (A) (A) (A)
                 (A) (A) (A) (A) (A) (A) (A) (A) (A) (A) (A) (A)
                 (A) (A) (A) (A) (A) (A) (A) (A) (A) (A) (A) (A)
                 (A) (A) (A) (A) (A) (A) (A) (A) (A) (A) (A) (A)
                 (A) (A) (A) (A) (A) (A) (A) (A) (A) (A) (A) (A)
                 (A)
 The electronic state is 1-A.
 Alpha  occ. eigenvalues --  -77.14322 -19.10449 -19.08647 -19.00225 -18.99806
 Alpha  occ. eigenvalues --  -10.19314  -6.55258  -4.70319  -4.70161  -4.69885
 Alpha  occ. eigenvalues --   -0.98586  -0.93294  -0.84012  -0.80570  -0.63639
 Alpha  occ. eigenvalues --   -0.47938  -0.41534  -0.38712  -0.38037  -0.34305
 Alpha  occ. eigenvalues --   -0.28815  -0.27960  -0.23097  -0.22669  -0.20695
 Alpha  occ. eigenvalues --   -0.17708  -0.15831  -0.14035  -0.12605
 Alpha virt. eigenvalues --    0.32443   0.34949   0.37356   0.38815   0.40400
 Alpha virt. eigenvalues --    0.44383   0.47544   0.48790   0.53078   0.61499
 Alpha virt. eigenvalues --    0.63335   0.65902   0.72748   0.78194   0.80966
 Alpha virt. eigenvalues --    0.89426   0.93861   0.97675   1.03332   1.08237
 Alpha virt. eigenvalues --    1.08661   1.13114   1.13456   1.17352   1.19196
 Alpha virt. eigenvalues --    1.23442   1.25243   1.31073   1.33020   1.33866
 Alpha virt. eigenvalues --    1.34887   1.36895   1.39329   1.45025   1.49509
 Alpha virt. eigenvalues --    1.50872   1.52291   1.54488   1.62401   1.71994
 Alpha virt. eigenvalues --    1.76094   1.79584   1.90934   1.96237   2.01817
 Alpha virt. eigenvalues --    2.07776   2.09739   2.13053   2.13821   2.15098
 Alpha virt. eigenvalues --    2.17911   2.25506   2.29175   2.31808   2.39050
 Alpha virt. eigenvalues --    2.41928   2.46477   2.52966   2.59538   2.64610
 Alpha virt. eigenvalues --    2.65564   2.70918   2.81363   2.95648   3.03220
 Alpha virt. eigenvalues --    3.14289   3.16894   3.80552   3.98734   4.07800
 Alpha virt. eigenvalues --    4.19345   4.31883   4.50347
          Condensed to atoms (all electrons):
              1          2          3          4          5          6
     1  H    0.354265   0.240775  -0.015443   0.001465  -0.000252   0.020477
     2  O    0.240775   8.345758   0.264225  -0.040839  -0.045313  -0.060373
     3  P   -0.015443   0.264225  12.373797   0.233150   0.593299   0.530285
     4  O    0.001465  -0.040839   0.233150   8.277196  -0.032015  -0.037863
     5  O   -0.000252  -0.045313   0.593299  -0.032015   8.161281  -0.032429
     6  O    0.020477  -0.060373   0.530285  -0.037863  -0.032429   8.313738
     7  C   -0.000006  -0.007648  -0.013286   0.249907   0.000935   0.004559
     8  H   -0.000546   0.012722  -0.004973  -0.037795  -0.000045  -0.001502
     9  H   -0.000007  -0.000182   0.003227  -0.038276  -0.000022   0.000506
    10  H   -0.000057  -0.000180  -0.003399  -0.038061  -0.000049   0.006946
              7          8          9         10
     1  H   -0.000006  -0.000546  -0.000007  -0.000057
     2  O   -0.007648   0.012722  -0.000182  -0.000180
     3  P   -0.013286  -0.004973   0.003227  -0.003399
     4  O    0.249907  -0.037795  -0.038276  -0.038061
     5  O    0.000935  -0.000045  -0.000022  -0.000049
     6  O    0.004559  -0.001502   0.000506   0.006946
     7  C    4.866378   0.364240   0.366732   0.376733
     8  H    0.364240   0.612979  -0.041578  -0.039912
     9  H    0.366732  -0.041578   0.635865  -0.042271
    10  H    0.376733  -0.039912  -0.042271   0.587014
 Mulliken atomic charges:
              1
     1  H    0.399327
     2  O   -0.708945
     3  P    1.039118
     4  O   -0.536870
     5  O   -0.645390
     6  O   -0.744344
     7  C   -0.208545
     8  H    0.136409
     9  H    0.116005
    10  H    0.153235
 Sum of Mulliken atomic charges =  -1.00000
 Mulliken charges with hydrogens summed into heavy atoms:
              1
     2  O   -0.309618
     3  P    1.039118
     4  O   -0.536870
     5  O   -0.645390
     6  O   -0.744344
     7  C    0.197104
 Sum of Mulliken charges with hydrogens summed into heavy atoms =  -1.00000
 Electronic spatial extent (au):  <R**2>=            597.6847
 Charge=             -1.0000 electrons
 Dipole moment (field-independent basis, Debye):
    X=              4.5975    Y=              2.0191    Z=             -1.3600  Tot=              5.2022
 Quadrupole moment (field-independent basis, Debye-Ang):
   XX=            -48.8937   YY=            -46.4556   ZZ=            -50.8515
   XY=             -3.6536   XZ=              0.7008   YZ=             -3.2936
 Traceless Quadrupole moment (field-independent basis, Debye-Ang):
   XX=             -0.1601   YY=              2.2780   ZZ=             -2.1179
   XY=             -3.6536   XZ=              0.7008   YZ=             -3.2936
 Octapole moment (field-independent basis, Debye-Ang**2):
  XXX=             12.6426  YYY=             12.6856  ZZZ=             -3.1584  XYY=              0.7777
  XXY=              9.8381  XXZ=              0.0098  XZZ=              2.3219  YZZ=             -7.2207
  YYZ=             -5.0739  XYZ=              0.2341
 Hexadecapole moment (field-independent basis, Debye-Ang**3):
 XXXX=           -428.2664 YYYY=           -161.3824 ZZZZ=           -169.0880 XXXY=            -17.5411
 XXXZ=              0.3917 YYYX=            -11.1957 YYYZ=            -10.4933 ZZZX=              1.6129
 ZZZY=             -3.2516 XXYY=           -105.5004 XXZZ=            -96.2697 YYZZ=            -59.0715
 XXYZ=             -0.2637 YYXZ=              2.4181 ZZXY=              2.1760
 N-N= 3.525451570026D+02 E-N=-2.333551462525D+03  KE= 6.788580365055D+02
 No NMR shielding tensors so no spin-rotation constants.
 Leave Link  601 at Mon Sep 21 15:32:48 2020, MaxMem=13421772800 cpu:       0.4
 (Enter /opt/g09gh/gaussian/g09/l701.exe)
 Compute integral first derivatives.
 ... and contract with generalized density number  0.
 R6Disp: Adding dispersion energy 1st derivatives to the gradient.
 Leave Link  701 at Mon Sep 21 15:32:48 2020, MaxMem=13421772800 cpu:       0.4
 (Enter /opt/g09gh/gaussian/g09/l702.exe)
 L702 exits ... SP integral derivatives will be done elsewhere.
 Leave Link  702 at Mon Sep 21 15:32:48 2020, MaxMem=13421772800 cpu:       0.1
 (Enter /opt/g09gh/gaussian/g09/l703.exe)
 Compute integral first derivatives, UseDBF=F ICtDFT=           0.
 Integral derivatives from FoFDir, PRISM(SPDF).
 Calling FoFJK, ICntrl=      2127 FMM=F ISym2X=0 I1Cent= 0 IOpClX= 0 NMat=1 NMatS=1 NMatT=0.
 FoFJK:  IHMeth= 1 ICntrl=  2127 DoSepK=T KAlg= 1 I1Cent= 0 FoldK=F
 FoFCou: FMM=F IPFlag=           0 FMFlag=      100000 FMFlg1=         800
         NFxFlg=           0 DoJE=F BraDBF=F KetDBF=F FulRan=T
         Omega=  0.000000  0.000000  1.000000  0.000000  0.000000 ICntrl=    2527 IOpCl=  0
         NMat0=    1 NMatS0=    1 NMatT0=    0 NMatD0=    1 NMtDS0=    0 NMtDT0=    0
         I1Cent=           0 NGrid=           0.
 Symmetry not used in FoFCou.
 Leave Link  703 at Mon Sep 21 15:32:50 2020, MaxMem=13421772800 cpu:       7.2
 (Enter /opt/g09gh/gaussian/g09/l716.exe)
 Dipole        = 1.80877985D+00 7.94373301D-01-5.35082989D-01
 ***** Axes restored to original set *****
 -------------------------------------------------------------------
 Center     Atomic                   Forces (Hartrees/Bohr)
 Number     Number              X              Y              Z
 -------------------------------------------------------------------
      1        1          -0.001121026    0.003390393    0.008293362
      2        8          -0.003384413    0.037106877   -0.023395735
      3       15           0.039735017   -0.023200560   -0.013630429
      4        8          -0.018752075   -0.001215996    0.021145813
      5        8          -0.016839841   -0.004328680    0.006315613
      6        8          -0.004073537   -0.010919797    0.002069547
      7        6           0.005681595   -0.003114158    0.002758256
      8        1          -0.000517127    0.000496257   -0.003175067
      9        1          -0.000252351    0.001816750    0.003726184
     10        1          -0.000476243   -0.000031085   -0.004107544
 -------------------------------------------------------------------
 Cartesian Forces:  Max     0.039735017 RMS     0.013780796
 Leave Link  716 at Mon Sep 21 15:32:50 2020, MaxMem=13421772800 cpu:       0.1
 (Enter /opt/g09gh/gaussian/g09/l103.exe)

 GradGradGradGradGradGradGradGradGradGradGradGradGradGradGradGradGradGrad
 Berny optimization.
 Internal  Forces:  Max     0.043199400 RMS     0.011345848
 Search for a local minimum.
 Step number   1 out of a maximum of    3
 All quantities printed in internal units (Hartrees-Bohrs-Radians)
 RMS Force = .11346D-01 SwitMx=.10000D-02 MixMth= 1
 Mixed Optimization -- RFO/linear search
 Second derivative matrix not updated -- first step.
     Eigenvalues ---    0.01583   0.03185   0.03251   0.10224   0.10509
     Eigenvalues ---    0.14999   0.16000   0.16000   0.16000   0.16000
     Eigenvalues ---    0.16333   0.17552   0.21305   0.25000   0.25000
     Eigenvalues ---    0.34376   0.34400   0.34445   0.44282   0.48021
     Eigenvalues ---    0.48924   0.52750   0.74872   0.771131000.00000
     Eigenvalues --- 1000.000001000.000001000.000001000.000001000.00000
     Eigenvalues --- 1000.000001000.00000
 RFO step:  Lambda=-1.34786865D-02 EMin= 1.58277573D-02
 Linear search not attempted -- first point.
 Iteration  1 RMS(Cart)=  0.07123489 RMS(Int)=  0.00428042
 Iteration  2 RMS(Cart)=  0.00361759 RMS(Int)=  0.00238717
 Iteration  3 RMS(Cart)=  0.00000722 RMS(Int)=  0.00238716
 Iteration  4 RMS(Cart)=  0.00000003 RMS(Int)=  0.00238716
 Variable       Old X    -DE/DX   Delta X   Delta X   Delta X     New X
                                 (Linear)    (Quad)   (Total)
    R1        1.83888  -0.00891   0.00000  -0.01646  -0.01646   1.82242
    R2        3.04667   0.04320   0.00000   0.08593   0.08593   3.13260
    R3        3.05617   0.02276   0.00000   0.04610   0.04610   3.10227
    R4        2.83211  -0.00961   0.00000  -0.01224  -0.01224   2.81987
    R5        2.84505   0.00545   0.00000   0.00715   0.00715   2.85220
    R6        2.66119  -0.00330   0.00000  -0.00724  -0.00724   2.65395
    R7        2.06660   0.00273   0.00000   0.00765   0.00765   2.07425
    R8        2.06585   0.00283   0.00000   0.00791   0.00791   2.07376
    R9        2.06701   0.00153   0.00000   0.00428   0.00428   2.07129
    A1        1.77091   0.00247   0.00000   0.01427   0.01427   1.78518
    A2        1.73657   0.00160   0.00000   0.01123   0.01143   1.74800
    A3        1.88680   0.01234   0.00000   0.06418   0.06162   1.94842
    A4        1.78072   0.01469   0.00000   0.08856   0.08578   1.86651
    A5        1.95266  -0.02232   0.00000  -0.11758  -0.11987   1.83279
    A6        1.91359  -0.00500   0.00000  -0.03068  -0.03380   1.87979
    A7        2.14041   0.00388   0.00000   0.01490   0.00526   2.14567
    A8        2.04428  -0.00229   0.00000  -0.00871  -0.00871   2.03557
    A9        1.93688   0.00099   0.00000   0.00379   0.00378   1.94066
   A10        1.89668  -0.00445   0.00000  -0.02472  -0.02469   1.87200
   A11        1.92267   0.00367   0.00000   0.02208   0.02212   1.94479
   A12        1.89445   0.00084   0.00000   0.00285   0.00282   1.89728
   A13        1.91832  -0.00332   0.00000  -0.02096  -0.02096   1.89736
   A14        1.89395   0.00226   0.00000   0.01700   0.01709   1.91104
    D1       -2.16531  -0.00603   0.00000  -0.02695  -0.02782  -2.19313
    D2        2.07783   0.01366   0.00000   0.07580   0.07948   2.15731
    D3       -0.20029  -0.00687   0.00000  -0.03212  -0.03493  -0.23522
    D4        1.28302   0.00216   0.00000   0.00325   0.00308   1.28609
    D5       -3.01050   0.00894   0.00000   0.03943   0.03516  -2.97533
    D6       -0.57579  -0.01325   0.00000  -0.09014  -0.08570  -0.66150
    D7       -0.90655  -0.00067   0.00000  -0.02178  -0.02177  -0.92832
    D8       -2.98838   0.00050   0.00000  -0.01201  -0.01210  -3.00049
    D9        1.22203  -0.00171   0.00000  -0.03070  -0.03063   1.19140
         Item               Value     Threshold  Converged?
 Maximum Force            0.043199     0.002500     NO 
 RMS     Force            0.011346     0.001667     NO 
 Maximum Displacement     0.163017     0.010000     NO 
 RMS     Displacement     0.071222     0.006667     NO 
 Predicted change in Energy=-7.101446D-03
 GradGradGradGradGradGradGradGradGradGradGradGradGradGradGradGradGradGrad

 Leave Link  103 at Mon Sep 21 15:32:50 2020, MaxMem=13421772800 cpu:       0.0
 (Enter /opt/g09gh/gaussian/g09/l202.exe)
                          Input orientation:                          
 ---------------------------------------------------------------------
 Center     Atomic      Atomic             Coordinates (Angstroms)
 Number     Number       Type             X           Y           Z
 ---------------------------------------------------------------------
      1          1           0        0.468774    1.276584   -1.701835
      2          8           0        0.389015    1.486404   -0.763942
      3         15           0        0.452314   -0.013281   -0.060438
      4          8           0       -0.930542    0.023148    0.823527
      5          8           0        1.551374   -0.103474    0.944859
      6          8           0        0.264841   -1.025265   -1.164423
      7          6           0       -2.135476   -0.100153    0.112685
      8          1           0       -2.194903    0.637039   -0.698390
      9          1           0       -2.952097    0.089163    0.820883
     10          1           0       -2.247301   -1.103165   -0.314925
 ---------------------------------------------------------------------
                    Distance matrix (angstroms):
                    1          2          3          4          5
     1  H    0.000000
     2  O    0.964381   0.000000
     3  P    2.087633   1.657703   0.000000
     4  O    3.147481   2.530297   1.641649   0.000000
     5  O    3.175149   2.607449   1.492209   2.488104   0.000000
     6  O    2.372532   2.546425   1.509318   2.545595   2.637032
     7  C    3.459769   3.107843   2.595029   1.404409   3.779601
     8  H    2.917378   2.720726   2.799582   2.071643   4.157309
     9  H    4.413211   3.953097   3.518130   2.022635   4.509294
    10  H    3.868305   3.722585   2.922419   2.073285   4.125090
                    6          7          8          9         10
     6  O    0.000000
     7  C    2.871995   0.000000
     8  H    3.005125   1.097646   0.000000
     9  H    3.941076   1.097386   1.783732   0.000000
    10  H    2.653031   1.096078   1.782722   1.791213   0.000000
 Stoichiometry    CH4O4P(1-)
 Framework group  C1[X(CH4O4P)]
 Deg. of freedom    24
 Full point group                 C1      NOp   1
 Largest Abelian subgroup         C1      NOp   1
 Largest concise Abelian subgroup C1      NOp   1
                         Standard orientation:                         
 ---------------------------------------------------------------------
 Center     Atomic      Atomic             Coordinates (Angstroms)
 Number     Number       Type             X           Y           Z
 ---------------------------------------------------------------------
      1          1           0       -0.700181    1.964736   -0.324480
      2          8           0       -0.587607    1.229117   -0.937849
      3         15           0       -0.492892   -0.071775    0.085229
      4          8           0        0.927751   -0.727646   -0.411379
      5          8           0       -1.526018   -1.099824   -0.234853
      6          8           0       -0.284030    0.476566    1.475819
      7          6           0        2.099073   -0.048344   -0.038660
      8          1           0        2.055888    1.008129   -0.333325
      9          1           0        2.934484   -0.526769   -0.565397
     10          1           0        2.267980   -0.105108    1.042837
 ---------------------------------------------------------------------
 Rotational constants (GHZ):      4.3825837      2.6501537      2.5595162
 Leave Link  202 at Mon Sep 21 15:32:50 2020, MaxMem=13421772800 cpu:       0.0
 (Enter /opt/g09gh/gaussian/g09/l301.exe)
 Standard basis: 6-31G(d) (6D, 7F)
 Ernie: Thresh=  0.10000D-02 Tol=  0.10000D-05 Strict=F.
 There are   102 symmetry adapted basis functions of A   symmetry.
 Integral buffers will be    131072 words long.
 Raffenetti 2 integral format.
 Two-electron integral symmetry is turned on.
   102 basis functions,   208 primitive gaussians,   102 cartesian basis functions
    29 alpha electrons       29 beta electrons
       nuclear repulsion energy       349.6194507109 Hartrees.
 IExCor= 4639 DFT=T Ex+Corr=wB97XD ExCW=0 ScaHFX=  1.000000
 ScaDFX=  1.000000  1.000000  1.000000  1.000000 ScalE2=  1.000000  1.000000
 IRadAn=      0 IRanWt=     -1 IRanGd=            0 ICorTp=0
  HFx wShort=  0.000000 wLong=  0.200000 cFull=  0.222036 cShort=  0.000000 cLong=  0.777964
  DFx wShort=  0.000000 wLong=  0.200000 cFull=  0.000000 cShort=  0.000000 cLong=  1.000000
 NAtoms=   10 NActive=   10 NUniq=   10 SFac= 7.50D-01 NAtFMM=   80 NAOKFM=F Big=F
 R6Disp: Dispersion energy =        -0.0030447348 Hartrees.
 Nuclear repulsion after empirical dispersion term =      349.6164059761 Hartrees.
 Leave Link  301 at Mon Sep 21 15:32:50 2020, MaxMem=13421772800 cpu:       0.2
 (Enter /opt/g09gh/gaussian/g09/l302.exe)
 NPDir=0 NMtPBC=     1 NCelOv=     1 NCel=       1 NClECP=     1 NCelD=      1
         NCelK=      1 NCelE2=     1 NClLst=     1 CellRange=     0.0.
 One-electron integrals computed using PRISM.
 NBasis=   102 RedAO= T  NBF=   102
 NBsUse=   102 1.00D-06 NBFU=   102
 Precomputing XC quadrature grid using
 IXCGrd= 2 IRadAn=           0 IRanWt=          -1 IRanGd=           0 AccXCQ= 1.00D-10.
 NRdTot=     624 NPtTot=       79098 NUsed=       83609 NTot=       83641
 NSgBfM=   102   102   102   102   102 NAtAll=    10    10.
 Leave Link  302 at Mon Sep 21 15:32:50 2020, MaxMem=13421772800 cpu:       0.5
 (Enter /opt/g09gh/gaussian/g09/l303.exe)
 DipDrv:  MaxL=1.
 Leave Link  303 at Mon Sep 21 15:32:50 2020, MaxMem=13421772800 cpu:       0.1
 (Enter /opt/g09gh/gaussian/g09/l401.exe)
 Initial guess read from the read-write file.
 B after Tr=     0.000000    0.000000    0.000000
         Rot=    1.000000    0.000000    0.000000    0.000000 Ang=   0.00 deg.
 Guess basis will be translated and rotated to current coordinates.
 Initial guess orbital symmetries:
       Occupied  (A) (A) (A) (A) (A) (A) (A) (A) (A) (A) (A) (A)
                 (A) (A) (A) (A) (A) (A) (A) (A) (A) (A) (A) (A)
                 (A) (A) (A) (A) (A)
       Virtual   (A) (A) (A) (A) (A) (A) (A) (A) (A) (A) (A) (A)
                 (A) (A) (A) (A) (A) (A) (A) (A) (A) (A) (A) (A)
                 (A) (A) (A) (A) (A) (A) (A) (A) (A) (A) (A) (A)
                 (A) (A) (A) (A) (A) (A) (A) (A) (A) (A) (A) (A)
                 (A) (A) (A) (A) (A) (A) (A) (A) (A) (A) (A) (A)
                 (A) (A) (A) (A) (A) (A) (A) (A) (A) (A) (A) (A)
                 (A)
 The electronic state of the initial guess is 1-A.
 Leave Link  401 at Mon Sep 21 15:32:50 2020, MaxMem=13421772800 cpu:       0.3
 (Enter /opt/g09gh/gaussian/g09/l502.exe)
 Closed shell SCF:
 Requested convergence on RMS density matrix=1.00D-08 within 128 cycles.
 Requested convergence on MAX density matrix=1.00D-06.
 Requested convergence on             energy=1.00D-06.
 No special actions if energy rises.
 Using DIIS extrapolation, IDIIS=  1040.
 Integral symmetry usage will be decided dynamically.
        83506 words used for storage of precomputed grid.
 IEnd=      134243 IEndB=      134243 NGot= 13421772800 MDV= 13421665704
 LenX= 13421665704 LenY= 13421654859
 Fock matrices will be formed incrementally for  20 cycles.
 Integral accuracy reduced to 1.0D-05 until final iterations.

 Cycle   1  Pass 0  IDiag  1:
 FoFJK:  IHMeth= 1 ICntrl=     0 DoSepK=T KAlg= 1 I1Cent= 0 FoldK=F
 FoFCou: FMM=F IPFlag=           0 FMFlag=      100000 FMFlg1=           0
         NFxFlg=           0 DoJE=T BraDBF=F KetDBF=F FulRan=T
         Omega=  0.000000  0.000000  1.000000  0.000000  0.000000 ICntrl=     500 IOpCl=  0
         NMat0=    1 NMatS0=    1 NMatT0=    0 NMatD0=    1 NMtDS0=    0 NMtDT0=    0
         I1Cent=           0 NGrid=           0.
 Symmetry not used in FoFCou.
 E= -682.649408651935    
 DIIS: error= 2.01D-02 at cycle   1 NSaved=   1.
 NSaved= 1 IEnMin= 1 EnMin= -682.649408651935     IErMin= 1 ErrMin= 2.01D-02
 ErrMax= 2.01D-02 EMaxC= 1.00D-01 BMatC= 6.62D-02 BMatP= 6.62D-02
 IDIUse=3 WtCom= 7.99D-01 WtEn= 2.01D-01
 Coeff-Com:  0.100D+01
 Coeff-En:   0.100D+01
 Coeff:      0.100D+01
 Gap=     0.461 Goal=   None    Shift=    0.000
 GapD=    0.461 DampG=2.000 DampE=0.500 DampFc=1.0000 IDamp=-1.
 RMSDP=3.96D-03 MaxDP=6.15D-02              OVMax= 6.85D-02

 Cycle   2  Pass 0  IDiag  1:
 RMSU=  2.79D-03    CP:  9.92D-01
 FoFJK:  IHMeth= 1 ICntrl=     0 DoSepK=T KAlg= 1 I1Cent= 0 FoldK=F
 E= -682.760975494692     Delta-E=       -0.111566842757 Rises=F Damp=F
 DIIS: error= 4.95D-03 at cycle   2 NSaved=   2.
 NSaved= 2 IEnMin= 2 EnMin= -682.760975494692     IErMin= 2 ErrMin= 4.95D-03
 ErrMax= 4.95D-03 EMaxC= 1.00D-01 BMatC= 5.11D-03 BMatP= 6.62D-02
 IDIUse=3 WtCom= 9.51D-01 WtEn= 4.95D-02
 Coeff-Com: -0.745D-01 0.107D+01
 Coeff-En:   0.000D+00 0.100D+01
 Coeff:     -0.708D-01 0.107D+01
 Gap=     0.462 Goal=   None    Shift=    0.000
 RMSDP=1.30D-03 MaxDP=3.16D-02 DE=-1.12D-01 OVMax= 2.73D-02

 Cycle   3  Pass 0  IDiag  1:
 RMSU=  7.61D-04    CP:  9.88D-01  1.18D+00
 FoFJK:  IHMeth= 1 ICntrl=     0 DoSepK=T KAlg= 1 I1Cent= 0 FoldK=F
 E= -682.765102715898     Delta-E=       -0.004127221206 Rises=F Damp=F
 DIIS: error= 7.04D-03 at cycle   3 NSaved=   3.
 NSaved= 3 IEnMin= 3 EnMin= -682.765102715898     IErMin= 2 ErrMin= 4.95D-03
 ErrMax= 7.04D-03 EMaxC= 1.00D-01 BMatC= 5.02D-03 BMatP= 5.11D-03
 IDIUse=3 WtCom= 9.30D-01 WtEn= 7.04D-02
 Coeff-Com: -0.118D+00 0.584D+00 0.534D+00
 Coeff-En:   0.000D+00 0.298D-01 0.970D+00
 Coeff:     -0.110D+00 0.545D+00 0.565D+00
 Gap=     0.451 Goal=   None    Shift=    0.000
 RMSDP=5.80D-04 MaxDP=1.60D-02 DE=-4.13D-03 OVMax= 1.41D-02

 Cycle   4  Pass 0  IDiag  1:
 RMSU=  2.23D-04    CP:  9.89D-01  1.24D+00  6.05D-01
 FoFJK:  IHMeth= 1 ICntrl=     0 DoSepK=T KAlg= 1 I1Cent= 0 FoldK=F
 E= -682.768696496773     Delta-E=       -0.003593780875 Rises=F Damp=F
 DIIS: error= 1.17D-03 at cycle   4 NSaved=   4.
 NSaved= 4 IEnMin= 4 EnMin= -682.768696496773     IErMin= 4 ErrMin= 1.17D-03
 ErrMax= 1.17D-03 EMaxC= 1.00D-01 BMatC= 1.58D-04 BMatP= 5.02D-03
 IDIUse=3 WtCom= 9.88D-01 WtEn= 1.17D-02
 Coeff-Com: -0.258D-01 0.864D-01 0.189D+00 0.751D+00
 Coeff-En:   0.000D+00 0.000D+00 0.000D+00 0.100D+01
 Coeff:     -0.255D-01 0.854D-01 0.186D+00 0.754D+00
 Gap=     0.451 Goal=   None    Shift=    0.000
 RMSDP=1.38D-04 MaxDP=3.07D-03 DE=-3.59D-03 OVMax= 3.73D-03

 Cycle   5  Pass 0  IDiag  1:
 RMSU=  6.94D-05    CP:  9.89D-01  1.25D+00  6.87D-01  1.02D+00
 FoFJK:  IHMeth= 1 ICntrl=     0 DoSepK=T KAlg= 1 I1Cent= 0 FoldK=F
 E= -682.768817690800     Delta-E=       -0.000121194026 Rises=F Damp=F
 DIIS: error= 3.53D-04 at cycle   5 NSaved=   5.
 NSaved= 5 IEnMin= 5 EnMin= -682.768817690800     IErMin= 5 ErrMin= 3.53D-04
 ErrMax= 3.53D-04 EMaxC= 1.00D-01 BMatC= 2.70D-05 BMatP= 1.58D-04
 IDIUse=3 WtCom= 9.96D-01 WtEn= 3.53D-03
 Coeff-Com:  0.795D-02-0.590D-01 0.583D-03 0.377D+00 0.674D+00
 Coeff-En:   0.000D+00 0.000D+00 0.000D+00 0.000D+00 0.100D+01
 Coeff:      0.793D-02-0.588D-01 0.581D-03 0.375D+00 0.675D+00
 Gap=     0.450 Goal=   None    Shift=    0.000
 RMSDP=5.54D-05 MaxDP=8.08D-04 DE=-1.21D-04 OVMax= 1.13D-03

 Cycle   6  Pass 0  IDiag  1:
 RMSU=  1.97D-05    CP:  9.89D-01  1.26D+00  7.02D-01  1.14D+00  8.16D-01
 FoFJK:  IHMeth= 1 ICntrl=     0 DoSepK=T KAlg= 1 I1Cent= 0 FoldK=F
 E= -682.768840784269     Delta-E=       -0.000023093469 Rises=F Damp=F
 DIIS: error= 5.28D-05 at cycle   6 NSaved=   6.
 NSaved= 6 IEnMin= 6 EnMin= -682.768840784269     IErMin= 6 ErrMin= 5.28D-05
 ErrMax= 5.28D-05 EMaxC= 1.00D-01 BMatC= 8.52D-07 BMatP= 2.70D-05
 IDIUse=1 WtCom= 1.00D+00 WtEn= 0.00D+00
 Coeff-Com:  0.439D-02-0.249D-01-0.149D-01 0.550D-01 0.205D+00 0.776D+00
 Coeff:      0.439D-02-0.249D-01-0.149D-01 0.550D-01 0.205D+00 0.776D+00
 Gap=     0.450 Goal=   None    Shift=    0.000
 RMSDP=1.56D-05 MaxDP=2.68D-04 DE=-2.31D-05 OVMax= 3.89D-04

 Cycle   7  Pass 0  IDiag  1:
 RMSU=  6.43D-06    CP:  9.89D-01  1.26D+00  7.08D-01  1.17D+00  8.75D-01
                    CP:  1.04D+00
 FoFJK:  IHMeth= 1 ICntrl=     0 DoSepK=T KAlg= 1 I1Cent= 0 FoldK=F
 E= -682.768841733314     Delta-E=       -0.000000949045 Rises=F Damp=F
 DIIS: error= 2.15D-05 at cycle   7 NSaved=   7.
 NSaved= 7 IEnMin= 7 EnMin= -682.768841733314     IErMin= 7 ErrMin= 2.15D-05
 ErrMax= 2.15D-05 EMaxC= 1.00D-01 BMatC= 7.74D-08 BMatP= 8.52D-07
 IDIUse=1 WtCom= 1.00D+00 WtEn= 0.00D+00
 Coeff-Com:  0.801D-03-0.365D-02-0.515D-02-0.106D-01 0.171D-01 0.240D+00
 Coeff-Com:  0.762D+00
 Coeff:      0.801D-03-0.365D-02-0.515D-02-0.106D-01 0.171D-01 0.240D+00
 Coeff:      0.762D+00
 Gap=     0.450 Goal=   None    Shift=    0.000
 RMSDP=5.05D-06 MaxDP=8.93D-05 DE=-9.49D-07 OVMax= 1.07D-04

 Initial convergence to 1.0D-05 achieved.  Increase integral accuracy.
 Cycle   8  Pass 1  IDiag  1:
 FoFJK:  IHMeth= 1 ICntrl=     0 DoSepK=T KAlg= 1 I1Cent= 0 FoldK=F
 E= -682.768599740576     Delta-E=        0.000241992738 Rises=F Damp=F
 DIIS: error= 8.18D-05 at cycle   1 NSaved=   1.
 NSaved= 1 IEnMin= 1 EnMin= -682.768599740576     IErMin= 1 ErrMin= 8.18D-05
 ErrMax= 8.18D-05 EMaxC= 1.00D-01 BMatC= 9.80D-07 BMatP= 9.80D-07
 IDIUse=1 WtCom= 1.00D+00 WtEn= 0.00D+00
 Coeff-Com:  0.100D+01
 Coeff:      0.100D+01
 Gap=     0.450 Goal=   None    Shift=    0.000
 RMSDP=5.05D-06 MaxDP=8.93D-05 DE= 2.42D-04 OVMax= 1.73D-04

 Cycle   9  Pass 1  IDiag  1:
 RMSU=  9.27D-06    CP:  1.00D+00
 FoFJK:  IHMeth= 1 ICntrl=     0 DoSepK=T KAlg= 1 I1Cent= 0 FoldK=F
 E= -682.768600555448     Delta-E=       -0.000000814872 Rises=F Damp=F
 DIIS: error= 9.93D-06 at cycle   2 NSaved=   2.
 NSaved= 2 IEnMin= 2 EnMin= -682.768600555448     IErMin= 2 ErrMin= 9.93D-06
 ErrMax= 9.93D-06 EMaxC= 1.00D-01 BMatC= 2.24D-08 BMatP= 9.80D-07
 IDIUse=1 WtCom= 1.00D+00 WtEn= 0.00D+00
 Coeff-Com: -0.410D-01 0.104D+01
 Coeff:     -0.410D-01 0.104D+01
 Gap=     0.450 Goal=   None    Shift=    0.000
 RMSDP=2.88D-06 MaxDP=4.96D-05 DE=-8.15D-07 OVMax= 4.90D-05

 Cycle  10  Pass 1  IDiag  1:
 RMSU=  1.77D-06    CP:  1.00D+00  1.11D+00
 FoFJK:  IHMeth= 1 ICntrl=     0 DoSepK=T KAlg= 1 I1Cent= 0 FoldK=F
 E= -682.768600582240     Delta-E=       -0.000000026792 Rises=F Damp=F
 DIIS: error= 5.08D-06 at cycle   3 NSaved=   3.
 NSaved= 3 IEnMin= 3 EnMin= -682.768600582240     IErMin= 3 ErrMin= 5.08D-06
 ErrMax= 5.08D-06 EMaxC= 1.00D-01 BMatC= 5.79D-09 BMatP= 2.24D-08
 IDIUse=1 WtCom= 1.00D+00 WtEn= 0.00D+00
 Coeff-Com: -0.333D-01 0.319D+00 0.714D+00
 Coeff:     -0.333D-01 0.319D+00 0.714D+00
 Gap=     0.450 Goal=   None    Shift=    0.000
 RMSDP=8.91D-07 MaxDP=2.82D-05 DE=-2.68D-08 OVMax= 1.62D-05

 Cycle  11  Pass 1  IDiag  1:
 RMSU=  5.15D-07    CP:  1.00D+00  1.14D+00  8.77D-01
 FoFJK:  IHMeth= 1 ICntrl=     0 DoSepK=T KAlg= 1 I1Cent= 0 FoldK=F
 E= -682.768600587071     Delta-E=       -0.000000004831 Rises=F Damp=F
 DIIS: error= 1.68D-06 at cycle   4 NSaved=   4.
 NSaved= 4 IEnMin= 4 EnMin= -682.768600587071     IErMin= 4 ErrMin= 1.68D-06
 ErrMax= 1.68D-06 EMaxC= 1.00D-01 BMatC= 7.61D-10 BMatP= 5.79D-09
 IDIUse=1 WtCom= 1.00D+00 WtEn= 0.00D+00
 Coeff-Com: -0.718D-02 0.196D-01 0.252D+00 0.735D+00
 Coeff:     -0.718D-02 0.196D-01 0.252D+00 0.735D+00
 Gap=     0.450 Goal=   None    Shift=    0.000
 RMSDP=3.23D-07 MaxDP=5.74D-06 DE=-4.83D-09 OVMax= 6.04D-06

 Cycle  12  Pass 1  IDiag  1:
 RMSU=  1.69D-07    CP:  1.00D+00  1.15D+00  9.51D-01  9.87D-01
 FoFJK:  IHMeth= 1 ICntrl=     0 DoSepK=T KAlg= 1 I1Cent= 0 FoldK=F
 E= -682.768600587692     Delta-E=       -0.000000000622 Rises=F Damp=F
 DIIS: error= 9.28D-07 at cycle   5 NSaved=   5.
 NSaved= 5 IEnMin= 5 EnMin= -682.768600587692     IErMin= 5 ErrMin= 9.28D-07
 ErrMax= 9.28D-07 EMaxC= 1.00D-01 BMatC= 1.53D-10 BMatP= 7.61D-10
 IDIUse=1 WtCom= 1.00D+00 WtEn= 0.00D+00
 Coeff-Com:  0.101D-02-0.330D-01 0.195D-01 0.341D+00 0.672D+00
 Coeff:      0.101D-02-0.330D-01 0.195D-01 0.341D+00 0.672D+00
 Gap=     0.450 Goal=   None    Shift=    0.000
 RMSDP=1.50D-07 MaxDP=2.91D-06 DE=-6.22D-10 OVMax= 3.65D-06

 Cycle  13  Pass 1  IDiag  1:
 RMSU=  5.52D-08    CP:  1.00D+00  1.15D+00  9.81D-01  1.10D+00  8.24D-01
 FoFJK:  IHMeth= 1 ICntrl=     0 DoSepK=T KAlg= 1 I1Cent= 0 FoldK=F
 E= -682.768600587831     Delta-E=       -0.000000000138 Rises=F Damp=F
 DIIS: error= 2.13D-07 at cycle   6 NSaved=   6.
 NSaved= 6 IEnMin= 6 EnMin= -682.768600587831     IErMin= 6 ErrMin= 2.13D-07
 ErrMax= 2.13D-07 EMaxC= 1.00D-01 BMatC= 9.66D-12 BMatP= 1.53D-10
 IDIUse=1 WtCom= 1.00D+00 WtEn= 0.00D+00
 Coeff-Com:  0.882D-03-0.128D-01-0.210D-01 0.363D-01 0.230D+00 0.766D+00
 Coeff:      0.882D-03-0.128D-01-0.210D-01 0.363D-01 0.230D+00 0.766D+00
 Gap=     0.450 Goal=   None    Shift=    0.000
 RMSDP=4.97D-08 MaxDP=6.40D-07 DE=-1.38D-10 OVMax= 9.30D-07

 Cycle  14  Pass 1  IDiag  1:
 RMSU=  1.73D-08    CP:  1.00D+00  1.15D+00  9.90D-01  1.14D+00  9.29D-01
                    CP:  9.69D-01
 FoFJK:  IHMeth= 1 ICntrl=     0 DoSepK=T KAlg= 1 I1Cent= 0 FoldK=F
 E= -682.768600587832     Delta-E=       -0.000000000002 Rises=F Damp=F
 DIIS: error= 4.83D-08 at cycle   7 NSaved=   7.
 NSaved= 7 IEnMin= 7 EnMin= -682.768600587832     IErMin= 7 ErrMin= 4.83D-08
 ErrMax= 4.83D-08 EMaxC= 1.00D-01 BMatC= 8.42D-13 BMatP= 9.66D-12
 IDIUse=1 WtCom= 1.00D+00 WtEn= 0.00D+00
 Coeff-Com:  0.249D-03-0.172D-02-0.951D-02-0.166D-01 0.233D-01 0.258D+00
 Coeff-Com:  0.746D+00
 Coeff:      0.249D-03-0.172D-02-0.951D-02-0.166D-01 0.233D-01 0.258D+00
 Coeff:      0.746D+00
 Gap=     0.450 Goal=   None    Shift=    0.000
 RMSDP=1.66D-08 MaxDP=2.20D-07 DE=-1.82D-12 OVMax= 3.33D-07

 Cycle  15  Pass 1  IDiag  1:
 RMSU=  5.61D-09    CP:  1.00D+00  1.15D+00  9.92D-01  1.15D+00  9.51D-01
                    CP:  1.07D+00  1.01D+00
 FoFJK:  IHMeth= 1 ICntrl=     0 DoSepK=T KAlg= 1 I1Cent= 0 FoldK=F
 E= -682.768600587835     Delta-E=       -0.000000000003 Rises=F Damp=F
 DIIS: error= 2.08D-08 at cycle   8 NSaved=   8.
 NSaved= 8 IEnMin= 8 EnMin= -682.768600587835     IErMin= 8 ErrMin= 2.08D-08
 ErrMax= 2.08D-08 EMaxC= 1.00D-01 BMatC= 1.38D-13 BMatP= 8.42D-13
 IDIUse=1 WtCom= 1.00D+00 WtEn= 0.00D+00
 Coeff-Com: -0.299D-05 0.932D-03-0.138D-02-0.118D-01-0.194D-01 0.726D-02
 Coeff-Com:  0.302D+00 0.723D+00
 Coeff:     -0.299D-05 0.932D-03-0.138D-02-0.118D-01-0.194D-01 0.726D-02
 Coeff:      0.302D+00 0.723D+00
 Gap=     0.450 Goal=   None    Shift=    0.000
 RMSDP=6.35D-09 MaxDP=7.91D-08 DE=-2.73D-12 OVMax= 1.16D-07

 SCF Done:  E(RwB97XD) =  -682.768600588     A.U. after   15 cycles
             Convg  =    0.6352D-08             -V/T =  2.0059
 KE= 6.787331709199D+02 PE=-2.327546474317D+03 EE= 6.164282968328D+02
 Leave Link  502 at Mon Sep 21 15:33:00 2020, MaxMem=13421772800 cpu:      36.8
 (Enter /opt/g09gh/gaussian/g09/l701.exe)
 Compute integral first derivatives.
 ... and contract with generalized density number  0.
 R6Disp: Adding dispersion energy 1st derivatives to the gradient.
 Leave Link  701 at Mon Sep 21 15:33:00 2020, MaxMem=13421772800 cpu:       0.4
 (Enter /opt/g09gh/gaussian/g09/l702.exe)
 L702 exits ... SP integral derivatives will be done elsewhere.
 Leave Link  702 at Mon Sep 21 15:33:00 2020, MaxMem=13421772800 cpu:       0.1
 (Enter /opt/g09gh/gaussian/g09/l703.exe)
 Compute integral first derivatives, UseDBF=F ICtDFT=           0.
 Integral derivatives from FoFDir, PRISM(SPDF).
 Calling FoFJK, ICntrl=      2127 FMM=F ISym2X=0 I1Cent= 0 IOpClX= 0 NMat=1 NMatS=1 NMatT=0.
 FoFJK:  IHMeth= 1 ICntrl=  2127 DoSepK=T KAlg= 1 I1Cent= 0 FoldK=F
 FoFCou: FMM=F IPFlag=           0 FMFlag=      100000 FMFlg1=         800
         NFxFlg=           0 DoJE=F BraDBF=F KetDBF=F FulRan=T
         Omega=  0.000000  0.000000  1.000000  0.000000  0.000000 ICntrl=    2527 IOpCl=  0
         NMat0=    1 NMatS0=    1 NMatT0=    0 NMatD0=    1 NMtDS0=    0 NMtDT0=    0
         I1Cent=           0 NGrid=           0.
 Symmetry not used in FoFCou.
 Leave Link  703 at Mon Sep 21 15:33:02 2020, MaxMem=13421772800 cpu:       7.0
 (Enter /opt/g09gh/gaussian/g09/l716.exe)
 Dipole        = 1.55498567D+00 1.14609451D+00-3.31638480D-01
 ***** Axes restored to original set *****
 -------------------------------------------------------------------
 Center     Atomic                   Forces (Hartrees/Bohr)
 Number     Number              X              Y              Z
 -------------------------------------------------------------------
      1        1          -0.000671394    0.001116600   -0.001131302
      2        8           0.000397209    0.003650802   -0.004206249
      3       15           0.009980932   -0.026294331    0.005340761
      4        8          -0.011994010    0.004079656    0.005065360
      5        8          -0.000256895    0.006089077   -0.004345659
      6        8           0.002126913    0.010127931   -0.001225386
      7        6           0.002786063    0.000891997    0.003720594
      8        1          -0.001401791    0.000593823   -0.001478023
      9        1          -0.001044085   -0.000073487   -0.000606313
     10        1           0.000077058   -0.000182067   -0.001133782
 -------------------------------------------------------------------
 Cartesian Forces:  Max     0.026294331 RMS     0.006413961
 Leave Link  716 at Mon Sep 21 15:33:02 2020, MaxMem=13421772800 cpu:       0.1
 (Enter /opt/g09gh/gaussian/g09/l103.exe)

 GradGradGradGradGradGradGradGradGradGradGradGradGradGradGradGradGradGrad
 Berny optimization.
 Using GEDIIS/GDIIS optimizer.
 Internal  Forces:  Max     0.012871934 RMS     0.004733991
 Search for a local minimum.
 Step number   2 out of a maximum of    3
 All quantities printed in internal units (Hartrees-Bohrs-Radians)
 RMS Force = .47340D-02 SwitMx=.10000D-02 MixMth= 1
 Mixed Optimization -- RFO/linear search
 Update second derivatives using D2CorX and points    1    2
 DE= -5.41D-03 DEPred=-7.10D-03 R= 7.62D-01
 SS=  1.41D+00  RLast= 2.40D-01 DXNew= 5.0454D-01 7.1994D-01
 Trust test= 7.62D-01 RLast= 2.40D-01 DXMaxT set to 5.05D-01
 Use linear search instead of GDIIS.
     Eigenvalues ---    0.01577   0.03173   0.03249   0.10125   0.10566
     Eigenvalues ---    0.15159   0.15915   0.16000   0.16000   0.16024
     Eigenvalues ---    0.16227   0.21011   0.24598   0.24990   0.27620
     Eigenvalues ---    0.34170   0.34381   0.34449   0.39198   0.44314
     Eigenvalues ---    0.49525   0.52923   0.75698   0.767751000.00000
     Eigenvalues --- 1000.000001000.000001000.000001000.000001000.00000
     Eigenvalues --- 1000.000001000.00000
 RFO step:  Lambda=-2.03223165D-03 EMin= 1.57740021D-02
 Quartic linear search produced a step of -0.15547.
 Iteration  1 RMS(Cart)=  0.03054080 RMS(Int)=  0.00055360
 Iteration  2 RMS(Cart)=  0.00067002 RMS(Int)=  0.00016801
 Iteration  3 RMS(Cart)=  0.00000013 RMS(Int)=  0.00016801
 Variable       Old X    -DE/DX   Delta X   Delta X   Delta X     New X
                                 (Linear)    (Quad)   (Total)
    R1        1.82242   0.00081   0.00256  -0.00372  -0.00116   1.82126
    R2        3.13260   0.00659  -0.01336   0.03748   0.02412   3.15672
    R3        3.10227   0.01287  -0.00717   0.03660   0.02944   3.13170
    R4        2.81987  -0.00349   0.00190  -0.00754  -0.00563   2.81423
    R5        2.85220  -0.00616  -0.00111  -0.00477  -0.00588   2.84632
    R6        2.65395  -0.00073   0.00113  -0.00359  -0.00246   2.65149
    R7        2.07425   0.00156  -0.00119   0.00615   0.00496   2.07921
    R8        2.07376   0.00037  -0.00123   0.00332   0.00209   2.07585
    R9        2.07129   0.00060  -0.00067   0.00277   0.00210   2.07339
    A1        1.78518   0.00251  -0.00222   0.01743   0.01521   1.80039
    A2        1.74800  -0.00507  -0.00178  -0.01907  -0.02093   1.72707
    A3        1.94842  -0.00556  -0.00958  -0.01176  -0.02113   1.92729
    A4        1.86651  -0.00963  -0.01334  -0.02238  -0.03536   1.83114
    A5        1.83279   0.00654   0.01864  -0.00523   0.01318   1.84597
    A6        1.87979   0.00815   0.00525   0.02619   0.03132   1.91112
    A7        2.14567   0.00493  -0.00082   0.02605   0.02563   2.17131
    A8        2.03557  -0.00011   0.00135  -0.00301  -0.00165   2.03392
    A9        1.94066   0.00165  -0.00059   0.00937   0.00878   1.94944
   A10        1.87200   0.00157   0.00384   0.00147   0.00529   1.87728
   A11        1.94479  -0.00026  -0.00344   0.00496   0.00151   1.94630
   A12        1.89728  -0.00122  -0.00044  -0.00469  -0.00516   1.89212
   A13        1.89736  -0.00138   0.00326  -0.01496  -0.01170   1.88566
   A14        1.91104  -0.00038  -0.00266   0.00394   0.00126   1.91229
    D1       -2.19313   0.00012   0.00432   0.00033   0.00473  -2.18840
    D2        2.15731  -0.00286  -0.01236   0.01964   0.00677   2.16408
    D3       -0.23522   0.00393   0.00543   0.01418   0.02006  -0.21516
    D4        1.28609  -0.00206  -0.00048  -0.02195  -0.02253   1.26357
    D5       -2.97533  -0.00791  -0.00547  -0.04379  -0.04929  -3.02462
    D6       -0.66150   0.00800   0.01332   0.00214   0.01559  -0.64590
    D7       -0.92832  -0.00022   0.00338  -0.03264  -0.02924  -0.95756
    D8       -3.00049  -0.00063   0.00188  -0.03316  -0.03128  -3.03176
    D9        1.19140  -0.00101   0.00476  -0.04180  -0.03706   1.15434
         Item               Value     Threshold  Converged?
 Maximum Force            0.012872     0.002500     NO 
 RMS     Force            0.004734     0.001667     NO 
 Maximum Displacement     0.071093     0.010000     NO 
 RMS     Displacement     0.030588     0.006667     NO 
 Predicted change in Energy=-1.216495D-03
 GradGradGradGradGradGradGradGradGradGradGradGradGradGradGradGradGradGrad

 Leave Link  103 at Mon Sep 21 15:33:02 2020, MaxMem=13421772800 cpu:       0.0
 (Enter /opt/g09gh/gaussian/g09/l202.exe)
                          Input orientation:                          
 ---------------------------------------------------------------------
 Center     Atomic      Atomic             Coordinates (Angstroms)
 Number     Number       Type             X           Y           Z
 ---------------------------------------------------------------------
      1          1           0        0.450171    1.258242   -1.709092
      2          8           0        0.375678    1.461661   -0.769985
      3         15           0        0.461598   -0.041950   -0.047331
      4          8           0       -0.939038    0.016267    0.836540
      5          8           0        1.567738   -0.077215    0.949168
      6          8           0        0.302462   -1.024925   -1.177417
      7          6           0       -2.139045   -0.089794    0.117206
      8          1           0       -2.203193    0.665326   -0.680465
      9          1           0       -2.964192    0.079444    0.822312
     10          1           0       -2.246178   -1.080057   -0.342936
 ---------------------------------------------------------------------
                    Distance matrix (angstroms):
                    1          2          3          4          5
     1  H    0.000000
     2  O    0.963769   0.000000
     3  P    2.109995   1.670465   0.000000
     4  O    3.154781   2.529538   1.657226   0.000000
     5  O    3.177852   2.597042   1.489228   2.511045   0.000000
     6  O    2.348903   2.520807   1.506207   2.584845   2.649800
     7  C    3.443342   3.085118   2.606282   1.403107   3.799021
     8  H    2.906882   2.700508   2.828817   2.078622   4.174564
     9  H    4.410832   3.949768   3.536530   2.026189   4.536410
    10  H    3.821560   3.676525   2.914979   2.074056   4.149841
                    6          7          8          9         10
     6  O    0.000000
     7  C    2.917444   0.000000
     8  H    3.063040   1.100272   0.000000
     9  H    3.986172   1.098491   1.783456   0.000000
    10  H    2.682343   1.097192   1.778239   1.793820   0.000000
 Stoichiometry    CH4O4P(1-)
 Framework group  C1[X(CH4O4P)]
 Deg. of freedom    24
 Full point group                 C1      NOp   1
 Largest Abelian subgroup         C1      NOp   1
 Largest concise Abelian subgroup C1      NOp   1
                         Standard orientation:                         
 ---------------------------------------------------------------------
 Center     Atomic      Atomic             Coordinates (Angstroms)
 Number     Number       Type             X           Y           Z
 ---------------------------------------------------------------------
      1          1           0       -0.661223    1.921661   -0.554905
      2          8           0       -0.547329    1.113913   -1.068151
      3         15           0       -0.495897   -0.076403    0.102728
      4          8           0        0.945526   -0.782244   -0.310171
      5          8           0       -1.539802   -1.106281   -0.156908
      6          8           0       -0.337719    0.666011    1.403674
      7          6           0        2.107585   -0.053092   -0.015782
      8          1           0        2.078270    0.954421   -0.456979
      9          1           0        2.958455   -0.596680   -0.448465
     10          1           0        2.252028    0.054017    1.066574
 ---------------------------------------------------------------------
 Rotational constants (GHZ):      4.3811924      2.6354520      2.5308497
 Leave Link  202 at Mon Sep 21 15:33:02 2020, MaxMem=13421772800 cpu:       0.0
 (Enter /opt/g09gh/gaussian/g09/l301.exe)
 Standard basis: 6-31G(d) (6D, 7F)
 Ernie: Thresh=  0.10000D-02 Tol=  0.10000D-05 Strict=F.
 There are   102 symmetry adapted basis functions of A   symmetry.
 Integral buffers will be    131072 words long.
 Raffenetti 2 integral format.
 Two-electron integral symmetry is turned on.
   102 basis functions,   208 primitive gaussians,   102 cartesian basis functions
    29 alpha electrons       29 beta electrons
       nuclear repulsion energy       348.6436992316 Hartrees.
 IExCor= 4639 DFT=T Ex+Corr=wB97XD ExCW=0 ScaHFX=  1.000000
 ScaDFX=  1.000000  1.000000  1.000000  1.000000 ScalE2=  1.000000  1.000000
 IRadAn=      0 IRanWt=     -1 IRanGd=            0 ICorTp=0
  HFx wShort=  0.000000 wLong=  0.200000 cFull=  0.222036 cShort=  0.000000 cLong=  0.777964
  DFx wShort=  0.000000 wLong=  0.200000 cFull=  0.000000 cShort=  0.000000 cLong=  1.000000
 NAtoms=   10 NActive=   10 NUniq=   10 SFac= 7.50D-01 NAtFMM=   80 NAOKFM=F Big=F
 R6Disp: Dispersion energy =        -0.0030534429 Hartrees.
 Nuclear repulsion after empirical dispersion term =      348.6406457887 Hartrees.
 Leave Link  301 at Mon Sep 21 15:33:02 2020, MaxMem=13421772800 cpu:       0.2
 (Enter /opt/g09gh/gaussian/g09/l302.exe)
 NPDir=0 NMtPBC=     1 NCelOv=     1 NCel=       1 NClECP=     1 NCelD=      1
         NCelK=      1 NCelE2=     1 NClLst=     1 CellRange=     0.0.
 One-electron integrals computed using PRISM.
 NBasis=   102 RedAO= T  NBF=   102
 NBsUse=   102 1.00D-06 NBFU=   102
 Precomputing XC quadrature grid using
 IXCGrd= 2 IRadAn=           0 IRanWt=          -1 IRanGd=           0 AccXCQ= 1.00D-10.
 NRdTot=     624 NPtTot=       79244 NUsed=       83755 NTot=       83787
 NSgBfM=   102   102   102   102   102 NAtAll=    10    10.
 Leave Link  302 at Mon Sep 21 15:33:02 2020, MaxMem=13421772800 cpu:       0.5
 (Enter /opt/g09gh/gaussian/g09/l303.exe)
 DipDrv:  MaxL=1.
 Leave Link  303 at Mon Sep 21 15:33:02 2020, MaxMem=13421772800 cpu:       0.1
 (Enter /opt/g09gh/gaussian/g09/l401.exe)
 Initial guess read from the read-write file.
 B after Tr=     0.000000    0.000000    0.000000
         Rot=    1.000000    0.000000    0.000000    0.000000 Ang=   0.00 deg.
 Guess basis will be translated and rotated to current coordinates.
 Initial guess orbital symmetries:
       Occupied  (A) (A) (A) (A) (A) (A) (A) (A) (A) (A) (A) (A)
                 (A) (A) (A) (A) (A) (A) (A) (A) (A) (A) (A) (A)
                 (A) (A) (A) (A) (A)
       Virtual   (A) (A) (A) (A) (A) (A) (A) (A) (A) (A) (A) (A)
                 (A) (A) (A) (A) (A) (A) (A) (A) (A) (A) (A) (A)
                 (A) (A) (A) (A) (A) (A) (A) (A) (A) (A) (A) (A)
                 (A) (A) (A) (A) (A) (A) (A) (A) (A) (A) (A) (A)
                 (A) (A) (A) (A) (A) (A) (A) (A) (A) (A) (A) (A)
                 (A) (A) (A) (A) (A) (A) (A) (A) (A) (A) (A) (A)
                 (A)
 The electronic state of the initial guess is 1-A.
 Leave Link  401 at Mon Sep 21 15:33:02 2020, MaxMem=13421772800 cpu:       0.4
 (Enter /opt/g09gh/gaussian/g09/l502.exe)
 Closed shell SCF:
 Requested convergence on RMS density matrix=1.00D-08 within 128 cycles.
 Requested convergence on MAX density matrix=1.00D-06.
 Requested convergence on             energy=1.00D-06.
 No special actions if energy rises.
 Using DIIS extrapolation, IDIIS=  1040.
 Integral symmetry usage will be decided dynamically.
        83652 words used for storage of precomputed grid.
 IEnd=      134389 IEndB=      134389 NGot= 13421772800 MDV= 13421665558
 LenX= 13421665558 LenY= 13421654713
 Fock matrices will be formed incrementally for  20 cycles.
 Integral accuracy reduced to 1.0D-05 until final iterations.

 Cycle   1  Pass 0  IDiag  1:
 FoFJK:  IHMeth= 1 ICntrl=     0 DoSepK=T KAlg= 1 I1Cent= 0 FoldK=F
 FoFCou: FMM=F IPFlag=           0 FMFlag=      100000 FMFlg1=           0
         NFxFlg=           0 DoJE=T BraDBF=F KetDBF=F FulRan=T
         Omega=  0.000000  0.000000  1.000000  0.000000  0.000000 ICntrl=     500 IOpCl=  0
         NMat0=    1 NMatS0=    1 NMatT0=    0 NMatD0=    1 NMtDS0=    0 NMtDT0=    0
         I1Cent=           0 NGrid=           0.
 Symmetry not used in FoFCou.
 E= -682.745393186534    
 DIIS: error= 7.25D-03 at cycle   1 NSaved=   1.
 NSaved= 1 IEnMin= 1 EnMin= -682.745393186534     IErMin= 1 ErrMin= 7.25D-03
 ErrMax= 7.25D-03 EMaxC= 1.00D-01 BMatC= 1.37D-02 BMatP= 1.37D-02
 IDIUse=3 WtCom= 9.28D-01 WtEn= 7.25D-02
 Coeff-Com:  0.100D+01
 Coeff-En:   0.100D+01
 Coeff:      0.100D+01
 Gap=     0.461 Goal=   None    Shift=    0.000
 GapD=    0.461 DampG=2.000 DampE=1.000 DampFc=2.0000 IDamp=-1.
 RMSDP=1.71D-03 MaxDP=2.66D-02              OVMax= 2.91D-02

 Cycle   2  Pass 0  IDiag  1:
 RMSU=  1.21D-03    CP:  9.98D-01
 FoFJK:  IHMeth= 1 ICntrl=     0 DoSepK=T KAlg= 1 I1Cent= 0 FoldK=F
 E= -682.769003105787     Delta-E=       -0.023609919253 Rises=F Damp=F
 DIIS: error= 1.39D-03 at cycle   2 NSaved=   2.
 NSaved= 2 IEnMin= 2 EnMin= -682.769003105787     IErMin= 2 ErrMin= 1.39D-03
 ErrMax= 1.39D-03 EMaxC= 1.00D-01 BMatC= 6.54D-04 BMatP= 1.37D-02
 IDIUse=3 WtCom= 9.86D-01 WtEn= 1.39D-02
 Coeff-Com: -0.177D+00 0.118D+01
 Coeff-En:   0.000D+00 0.100D+01
 Coeff:     -0.175D+00 0.117D+01
 Gap=     0.456 Goal=   None    Shift=    0.000
 RMSDP=5.08D-04 MaxDP=7.34D-03 DE=-2.36D-02 OVMax= 1.05D-02

 Cycle   3  Pass 0  IDiag  1:
 RMSU=  2.05D-04    CP:  9.98D-01  1.24D+00
 FoFJK:  IHMeth= 1 ICntrl=     0 DoSepK=T KAlg= 1 I1Cent= 0 FoldK=F
 E= -682.770169106100     Delta-E=       -0.001166000312 Rises=F Damp=F
 DIIS: error= 1.16D-03 at cycle   3 NSaved=   3.
 NSaved= 3 IEnMin= 3 EnMin= -682.770169106100     IErMin= 3 ErrMin= 1.16D-03
 ErrMax= 1.16D-03 EMaxC= 1.00D-01 BMatC= 2.89D-04 BMatP= 6.54D-04
 IDIUse=3 WtCom= 9.88D-01 WtEn= 1.16D-02
 Coeff-Com: -0.110D+00 0.567D+00 0.543D+00
 Coeff-En:   0.000D+00 0.000D+00 0.100D+01
 Coeff:     -0.108D+00 0.560D+00 0.548D+00
 Gap=     0.458 Goal=   None    Shift=    0.000
 RMSDP=1.37D-04 MaxDP=2.97D-03 DE=-1.17D-03 OVMax= 2.84D-03

 Cycle   4  Pass 0  IDiag  1:
 RMSU=  8.30D-05    CP:  9.97D-01  1.27D+00  8.19D-01
 FoFJK:  IHMeth= 1 ICntrl=     0 DoSepK=T KAlg= 1 I1Cent= 0 FoldK=F
 E= -682.770378859737     Delta-E=       -0.000209753638 Rises=F Damp=F
 DIIS: error= 2.30D-04 at cycle   4 NSaved=   4.
 NSaved= 4 IEnMin= 4 EnMin= -682.770378859737     IErMin= 4 ErrMin= 2.30D-04
 ErrMax= 2.30D-04 EMaxC= 1.00D-01 BMatC= 1.23D-05 BMatP= 2.89D-04
 IDIUse=3 WtCom= 9.98D-01 WtEn= 2.30D-03
 Coeff-Com: -0.130D-02-0.274D-01 0.135D+00 0.894D+00
 Coeff-En:   0.000D+00 0.000D+00 0.000D+00 0.100D+01
 Coeff:     -0.130D-02-0.273D-01 0.135D+00 0.894D+00
 Gap=     0.457 Goal=   None    Shift=    0.000
 RMSDP=5.50D-05 MaxDP=8.12D-04 DE=-2.10D-04 OVMax= 1.04D-03

 Cycle   5  Pass 0  IDiag  1:
 RMSU=  2.08D-05    CP:  9.97D-01  1.28D+00  9.56D-01  1.08D+00
 FoFJK:  IHMeth= 1 ICntrl=     0 DoSepK=T KAlg= 1 I1Cent= 0 FoldK=F
 E= -682.770391144538     Delta-E=       -0.000012284801 Rises=F Damp=F
 DIIS: error= 1.04D-04 at cycle   5 NSaved=   5.
 NSaved= 5 IEnMin= 5 EnMin= -682.770391144538     IErMin= 5 ErrMin= 1.04D-04
 ErrMax= 1.04D-04 EMaxC= 1.00D-01 BMatC= 2.92D-06 BMatP= 1.23D-05
 IDIUse=3 WtCom= 9.99D-01 WtEn= 1.04D-03
 Coeff-Com:  0.936D-02-0.658D-01 0.177D-01 0.445D+00 0.594D+00
 Coeff-En:   0.000D+00 0.000D+00 0.000D+00 0.000D+00 0.100D+01
 Coeff:      0.935D-02-0.657D-01 0.177D-01 0.444D+00 0.594D+00
 Gap=     0.457 Goal=   None    Shift=    0.000
 RMSDP=1.80D-05 MaxDP=3.57D-04 DE=-1.23D-05 OVMax= 4.05D-04

 Cycle   6  Pass 0  IDiag  1:
 RMSU=  7.40D-06    CP:  9.97D-01  1.29D+00  9.78D-01  1.16D+00  7.49D-01
 FoFJK:  IHMeth= 1 ICntrl=     0 DoSepK=T KAlg= 1 I1Cent= 0 FoldK=F
[...]
 FoFJK:  IHMeth= 1 ICntrl=  2127 DoSepK=T KAlg= 1 I1Cent= 0 FoldK=F
 FoFCou: FMM=F IPFlag=           0 FMFlag=      100000 FMFlg1=         800
         NFxFlg=           0 DoJE=F BraDBF=F KetDBF=F FulRan=T
         Omega=  0.000000  0.000000  1.000000  0.000000  0.000000 ICntrl=    2527 IOpCl=  0
         NMat0=    1 NMatS0=    1 NMatT0=    0 NMatD0=    1 NMtDS0=    0 NMtDT0=    0
         I1Cent=           0 NGrid=           0.
 Symmetry not used in FoFCou.
 Leave Link  703 at Mon Sep 21 15:33:13 2020, MaxMem=13421772800 cpu:       7.1
 (Enter /opt/g09gh/gaussian/g09/l716.exe)
 Dipole        = 1.58391603D+00 1.01798287D+00-3.57381937D-01
 ***** Axes restored to original set *****
 -------------------------------------------------------------------
 Center     Atomic                   Forces (Hartrees/Bohr)
 Number     Number              X              Y              Z
 -------------------------------------------------------------------
      1        1          -0.000569768   -0.000579181   -0.000349948
      2        8           0.000232461    0.002533943   -0.000267202
      3       15           0.004093761   -0.005615580   -0.002522440
      4        8          -0.003644794    0.000058841    0.000760232
      5        8          -0.000940458    0.000725052   -0.001112783
      6        8          -0.000192239    0.002599253    0.003210509
      7        6           0.001237096    0.000447208    0.000995762
      8        1           0.000073850    0.000439059    0.000284388
      9        1          -0.000016080   -0.000445895   -0.000645956
     10        1          -0.000273829   -0.000162700   -0.000352563
 -------------------------------------------------------------------
 Cartesian Forces:  Max     0.005615580 RMS     0.001820651
 Leave Link  716 at Mon Sep 21 15:33:13 2020, MaxMem=13421772800 cpu:       0.1
 (Enter /opt/g09gh/gaussian/g09/l103.exe)

 GradGradGradGradGradGradGradGradGradGradGradGradGradGradGradGradGradGrad
 Berny optimization.
 Using GEDIIS/GDIIS optimizer.
 Internal  Forces:  Max     0.004093500 RMS     0.001188563
 Search for a local minimum.
 Step number   3 out of a maximum of    3
 All quantities printed in internal units (Hartrees-Bohrs-Radians)
 RMS Force = .11886D-02 SwitMx=.10000D-02 MixMth= 1
 Mixed Optimization -- RFO/linear search
 Update second derivatives using D2CorX and points    1    2    3
 DE= -1.37D-03 DEPred=-1.22D-03 R= 1.13D+00
 SS=  1.41D+00  RLast= 1.13D-01 DXNew= 8.4853D-01 3.4028D-01
 Trust test= 1.13D+00 RLast= 1.13D-01 DXMaxT set to 5.05D-01
 Use linear search instead of GDIIS.
     Eigenvalues ---    0.01492   0.03018   0.03239   0.10085   0.10486
     Eigenvalues ---    0.15053   0.16000   0.16006   0.16010   0.16216
     Eigenvalues ---    0.16821   0.21517   0.24206   0.24917   0.28857
     Eigenvalues ---    0.33755   0.34403   0.34500   0.36157   0.44464
     Eigenvalues ---    0.49458   0.52868   0.74788   0.767071000.00000
     Eigenvalues --- 1000.000001000.000001000.000001000.000001000.00000
     Eigenvalues --- 1000.000001000.00000
 RFO step:  Lambda=-2.38591302D-04 EMin= 1.49183938D-02
 Quartic linear search produced a step of  0.12677.
 Iteration  1 RMS(Cart)=  0.03551343 RMS(Int)=  0.00065866
 Iteration  2 RMS(Cart)=  0.00071381 RMS(Int)=  0.00004086
 Iteration  3 RMS(Cart)=  0.00000026 RMS(Int)=  0.00004086
 Variable       Old X    -DE/DX   Delta X   Delta X   Delta X     New X
                                 (Linear)    (Quad)   (Total)
    R1        1.82126   0.00043  -0.00015   0.00038   0.00024   1.82149
    R2        3.15672   0.00205   0.00306   0.00765   0.01071   3.16743
    R3        3.13170   0.00278   0.00373   0.00809   0.01182   3.14352
    R4        2.81423  -0.00146  -0.00071  -0.00259  -0.00331   2.81093
    R5        2.84632  -0.00409  -0.00075  -0.00608  -0.00683   2.83949
    R6        2.65149  -0.00104  -0.00031  -0.00296  -0.00327   2.64822
    R7        2.07921   0.00009   0.00063   0.00050   0.00113   2.08035
    R8        2.07585  -0.00047   0.00026  -0.00135  -0.00109   2.07476
    R9        2.07339   0.00033   0.00027   0.00124   0.00150   2.07490
    A1        1.80039  -0.00082   0.00193  -0.00575  -0.00382   1.79656
    A2        1.72707  -0.00073  -0.00265  -0.00350  -0.00617   1.72090
    A3        1.92729  -0.00035  -0.00268   0.00070  -0.00200   1.92529
    A4        1.83114   0.00013  -0.00448   0.00300  -0.00151   1.82964
    A5        1.84597   0.00110   0.00167   0.00217   0.00375   1.84972
    A6        1.91112  -0.00111   0.00397  -0.00866  -0.00478   1.90634
    A7        2.17131   0.00061   0.00325   0.00429   0.00740   2.17871
    A8        2.03392  -0.00174  -0.00021  -0.00836  -0.00857   2.02535
    A9        1.94944  -0.00067   0.00111  -0.00510  -0.00399   1.94545
   A10        1.87728   0.00079   0.00067   0.00490   0.00556   1.88284
   A11        1.94630   0.00047   0.00019   0.00430   0.00449   1.95078
   A12        1.89212  -0.00022  -0.00065  -0.00179  -0.00244   1.88968
   A13        1.88566   0.00006  -0.00148  -0.00012  -0.00160   1.88406
   A14        1.91229  -0.00047   0.00016  -0.00239  -0.00224   1.91005
    D1       -2.18840   0.00111   0.00060   0.01656   0.01715  -2.17125
    D2        2.16408   0.00033   0.00086   0.01553   0.01640   2.18048
    D3       -0.21516  -0.00030   0.00254   0.00687   0.00942  -0.20574
    D4        1.26357  -0.00074  -0.00286  -0.02416  -0.02702   1.23655
    D5       -3.02462  -0.00107  -0.00625  -0.02409  -0.03042  -3.05505
    D6       -0.64590  -0.00024   0.00198  -0.02343  -0.02137  -0.66727
    D7       -0.95756  -0.00058  -0.00371  -0.03590  -0.03960  -0.99716
    D8       -3.03176  -0.00042  -0.00397  -0.03383  -0.03778  -3.06955
    D9        1.15434  -0.00063  -0.00470  -0.03660  -0.04131   1.11303
         Item               Value     Threshold  Converged?
 Maximum Force            0.004093     0.002500     NO 
 RMS     Force            0.001189     0.001667     YES
 Maximum Displacement     0.090184     0.010000     NO 
 RMS     Displacement     0.035619     0.006667     NO 
 Predicted change in Energy=-1.482936D-04
 Optimization stopped.
    -- Number of steps exceeded,  NStep=   3
    -- Flag reset to prevent archiving.
                           ----------------------------
                           ! Non-Optimized Parameters !
                           ! (Angstroms and Degrees)  !
 --------------------------                            --------------------------
 ! Name  Definition              Value          Derivative Info.                !
 --------------------------------------------------------------------------------
 ! R1    R(1,2)                  0.9639         -DE/DX =    0.0004              !
 ! R2    R(2,3)                  1.6761         -DE/DX =    0.0021              !
 ! R3    R(3,4)                  1.6635         -DE/DX =    0.0028              !
 ! R4    R(3,5)                  1.4875         -DE/DX =   -0.0015              !
 ! R5    R(3,6)                  1.5026         -DE/DX =   -0.0041              !
 ! R6    R(4,7)                  1.4014         -DE/DX =   -0.001               !
 ! R7    R(7,8)                  1.1009         -DE/DX =    0.0001              !
 ! R8    R(7,9)                  1.0979         -DE/DX =   -0.0005              !
 ! R9    R(7,10)                 1.098          -DE/DX =    0.0003              !
 ! A1    A(1,2,3)              102.9354         -DE/DX =   -0.0008              !
 ! A2    A(2,3,4)               98.6002         -DE/DX =   -0.0007              !
 ! A3    A(2,3,5)              110.3108         -DE/DX =   -0.0004              !
 ! A4    A(2,3,6)              104.8304         -DE/DX =    0.0001              !
 ! A5    A(4,3,5)              105.9812         -DE/DX =    0.0011              !
 ! A6    A(4,3,6)              109.2252         -DE/DX =   -0.0011              !
 ! A7    A(5,3,6)              124.831          -DE/DX =    0.0006              !
 ! A8    A(3,4,7)              116.0441         -DE/DX =   -0.0017              !
 ! A9    A(4,7,8)              111.4661         -DE/DX =   -0.0007              !
 ! A10   A(4,7,9)              107.879          -DE/DX =    0.0008              !
 ! A11   A(4,7,10)             111.7716         -DE/DX =    0.0005              !
 ! A12   A(8,7,9)              108.2707         -DE/DX =   -0.0002              !
 ! A13   A(8,7,10)             107.9486         -DE/DX =    0.0001              !
 ! A14   A(9,7,10)             109.4378         -DE/DX =   -0.0005              !
 ! D1    D(1,2,3,4)           -124.4037         -DE/DX =    0.0011              !
 ! D2    D(1,2,3,5)            124.9321         -DE/DX =    0.0003              !
 ! D3    D(1,2,3,6)            -11.7881         -DE/DX =   -0.0003              !
 ! D4    D(2,3,4,7)             70.8489         -DE/DX =   -0.0007              !
 ! D5    D(5,3,4,7)           -175.0413         -DE/DX =   -0.0011              !
 ! D6    D(6,3,4,7)            -38.2318         -DE/DX =   -0.0002              !
 ! D7    D(3,4,7,8)            -57.1332         -DE/DX =   -0.0006              !
 ! D8    D(3,4,7,9)           -175.8721         -DE/DX =   -0.0004              !
 ! D9    D(3,4,7,10)            63.7721         -DE/DX =   -0.0006              !
 --------------------------------------------------------------------------------
 GradGradGradGradGradGradGradGradGradGradGradGradGradGradGradGradGradGrad

 Largest change from initial coordinates is atom    6       0.042 Angstoms.
 Leave Link  103 at Mon Sep 21 15:33:13 2020, MaxMem=13421772800 cpu:       0.0
 (Enter /opt/g09gh/gaussian/g09/l202.exe)
                          Input orientation:                          
 ---------------------------------------------------------------------
 Center     Atomic      Atomic             Coordinates (Angstroms)
 Number     Number       Type             X           Y           Z
 ---------------------------------------------------------------------
      1          1           0        0.450171    1.258242   -1.709092
      2          8           0        0.375678    1.461661   -0.769985
      3         15           0        0.461598   -0.041950   -0.047331
      4          8           0       -0.939038    0.016267    0.836540
      5          8           0        1.567738   -0.077215    0.949168
      6          8           0        0.302462   -1.024925   -1.177417
      7          6           0       -2.139045   -0.089794    0.117206
      8          1           0       -2.203193    0.665326   -0.680465
      9          1           0       -2.964192    0.079444    0.822312
     10          1           0       -2.246178   -1.080057   -0.342936
 ---------------------------------------------------------------------
                    Distance matrix (angstroms):
                    1          2          3          4          5
     1  H    0.000000
     2  O    0.963769   0.000000
     3  P    2.109995   1.670465   0.000000
     4  O    3.154781   2.529538   1.657226   0.000000
     5  O    3.177852   2.597042   1.489228   2.511045   0.000000
     6  O    2.348903   2.520807   1.506207   2.584845   2.649800
     7  C    3.443342   3.085118   2.606282   1.403107   3.799021
     8  H    2.906882   2.700508   2.828817   2.078622   4.174564
     9  H    4.410832   3.949768   3.536530   2.026189   4.536410
    10  H    3.821560   3.676525   2.914979   2.074056   4.149841
                    6          7          8          9         10
     6  O    0.000000
     7  C    2.917444   0.000000
     8  H    3.063040   1.100272   0.000000
     9  H    3.986172   1.098491   1.783456   0.000000
    10  H    2.682343   1.097192   1.778239   1.793820   0.000000
 Stoichiometry    CH4O4P(1-)
 Framework group  C1[X(CH4O4P)]
 Deg. of freedom    24
 Full point group                 C1      NOp   1
 Largest Abelian subgroup         C1      NOp   1
 Largest concise Abelian subgroup C1      NOp   1
                         Standard orientation:                         
 ---------------------------------------------------------------------
 Center     Atomic      Atomic             Coordinates (Angstroms)
 Number     Number       Type             X           Y           Z
 ---------------------------------------------------------------------
      1          1           0       -0.661223    1.921661   -0.554905
      2          8           0       -0.547329    1.113913   -1.068151
      3         15           0       -0.495897   -0.076403    0.102728
      4          8           0        0.945526   -0.782244   -0.310171
      5          8           0       -1.539802   -1.106281   -0.156908
      6          8           0       -0.337719    0.666011    1.403674
      7          6           0        2.107585   -0.053092   -0.015782
      8          1           0        2.078270    0.954421   -0.456979
      9          1           0        2.958455   -0.596680   -0.448465
     10          1           0        2.252028    0.054017    1.066574
 ---------------------------------------------------------------------
 Rotational constants (GHZ):      4.3811924      2.6354520      2.5308497
 Leave Link  202 at Mon Sep 21 15:33:13 2020, MaxMem=13421772800 cpu:       0.0
 (Enter /opt/g09gh/gaussian/g09/l601.exe)
 Copying SCF densities to generalized density rwf, IOpCl= 0 IROHF=0.

 **********************************************************************

            Population analysis using the SCF density.

 **********************************************************************

 Orbital symmetries:
       Occupied  (A) (A) (A) (A) (A) (A) (A) (A) (A) (A) (A) (A)
                 (A) (A) (A) (A) (A) (A) (A) (A) (A) (A) (A) (A)
                 (A) (A) (A) (A) (A)
       Virtual   (A) (A) (A) (A) (A) (A) (A) (A) (A) (A) (A) (A)
                 (A) (A) (A) (A) (A) (A) (A) (A) (A) (A) (A) (A)
                 (A) (A) (A) (A) (A) (A) (A) (A) (A) (A) (A) (A)
                 (A) (A) (A) (A) (A) (A) (A) (A) (A) (A) (A) (A)
                 (A) (A) (A) (A) (A) (A) (A) (A) (A) (A) (A) (A)
                 (A) (A) (A) (A) (A) (A) (A) (A) (A) (A) (A) (A)
                 (A)
 The electronic state is 1-A.
 Alpha  occ. eigenvalues --  -77.15092 -19.09738 -19.09449 -19.01055 -19.00697
 Alpha  occ. eigenvalues --  -10.18789  -6.55881  -4.70940  -4.70798  -4.70517
 Alpha  occ. eigenvalues --   -0.97293  -0.92620  -0.84996  -0.81445  -0.62527
 Alpha  occ. eigenvalues --   -0.47577  -0.41185  -0.37697  -0.37223  -0.34434
 Alpha  occ. eigenvalues --   -0.28961  -0.27577  -0.23411  -0.22495  -0.20198
 Alpha  occ. eigenvalues --   -0.18278  -0.16469  -0.14882  -0.13537
 Alpha virt. eigenvalues --    0.32148   0.35322   0.38007   0.38979   0.40280
 Alpha virt. eigenvalues --    0.43215   0.46198   0.48688   0.49767   0.61695
 Alpha virt. eigenvalues --    0.62420   0.65083   0.72940   0.78411   0.81266
 Alpha virt. eigenvalues --    0.88843   0.92926   0.97612   1.04087   1.07947
 Alpha virt. eigenvalues --    1.09255   1.12718   1.13025   1.17411   1.18178
 Alpha virt. eigenvalues --    1.22913   1.25406   1.28908   1.31657   1.32937
 Alpha virt. eigenvalues --    1.34041   1.38052   1.39325   1.44483   1.48686
 Alpha virt. eigenvalues --    1.49175   1.51545   1.53494   1.63095   1.70862
 Alpha virt. eigenvalues --    1.76192   1.81825   1.90091   1.95707   2.01571
 Alpha virt. eigenvalues --    2.05699   2.07850   2.11855   2.13084   2.13880
 Alpha virt. eigenvalues --    2.16796   2.25176   2.28716   2.32399   2.37458
 Alpha virt. eigenvalues --    2.41629   2.43811   2.52292   2.58271   2.63131
 Alpha virt. eigenvalues --    2.66168   2.70462   2.78025   2.90519   3.03613
 Alpha virt. eigenvalues --    3.12773   3.16862   3.80888   3.99330   4.04855
 Alpha virt. eigenvalues --    4.21155   4.27956   4.50390
          Condensed to atoms (all electrons):
              1          2          3          4          5          6
     1  H    0.358660   0.239018  -0.008339   0.001272   0.000224   0.011636
     2  O    0.239018   8.375798   0.234664  -0.033928  -0.035629  -0.047374
     3  P   -0.008339   0.234664  12.373159   0.222362   0.591987   0.530996
     4  O    0.001272  -0.033928   0.222362   8.302011  -0.040973  -0.035094
     5  O    0.000224  -0.035629   0.591987  -0.040973   8.152475  -0.030066
     6  O    0.011636  -0.047374   0.530996  -0.035094  -0.030066   8.283504
     7  C   -0.000054  -0.006831  -0.011775   0.250642   0.001137   0.002497
     8  H   -0.000656   0.012196  -0.005779  -0.038223  -0.000058  -0.001374
     9  H   -0.000006  -0.000123   0.002610  -0.040331  -0.000048   0.000364
    10  H   -0.000023  -0.000208  -0.004454  -0.038097  -0.000052   0.008158
              7          8          9         10
     1  H   -0.000054  -0.000656  -0.000006  -0.000023
     2  O   -0.006831   0.012196  -0.000123  -0.000208
     3  P   -0.011775  -0.005779   0.002610  -0.004454
     4  O    0.250642  -0.038223  -0.040331  -0.038097
     5  O    0.001137  -0.000058  -0.000048  -0.000052
     6  O    0.002497  -0.001374   0.000364   0.008158
     7  C    4.871022   0.360072   0.370335   0.371970
     8  H    0.360072   0.634286  -0.041130  -0.045339
     9  H    0.370335  -0.041130   0.635658  -0.040108
    10  H    0.371970  -0.045339  -0.040108   0.601292
 Mulliken atomic charges:
              1
     1  H    0.398268
     2  O   -0.737583
     3  P    1.074568
     4  O   -0.549640
     5  O   -0.638998
     6  O   -0.723247
     7  C   -0.209015
     8  H    0.126006
     9  H    0.112780
    10  H    0.146860
 Sum of Mulliken atomic charges =  -1.00000
 Mulliken charges with hydrogens summed into heavy atoms:
              1
     2  O   -0.339315
     3  P    1.074568
     4  O   -0.549640
     5  O   -0.638998
     6  O   -0.723247
     7  C    0.176631
 Sum of Mulliken charges with hydrogens summed into heavy atoms =  -1.00000
 Electronic spatial extent (au):  <R**2>=            606.9045
 Charge=             -1.0000 electrons
 Dipole moment (field-independent basis, Debye):
    X=              4.0259    Y=              2.5875    Z=             -0.9084  Tot=              4.8711
 Quadrupole moment (field-independent basis, Debye-Ang):
   XX=            -48.5121   YY=            -45.9424   ZZ=            -52.0467
   XY=             -3.7083   XZ=              0.2385   YZ=             -2.4902
 Traceless Quadrupole moment (field-independent basis, Debye-Ang):
   XX=              0.3216   YY=              2.8913   ZZ=             -3.2130
   XY=             -3.7083   XZ=              0.2385   YZ=             -2.4902
 Octapole moment (field-independent basis, Debye-Ang**2):
  XXX=              8.7540  YYY=             15.1190  ZZZ=             -6.1724  XYY=              0.6207
  XXY=              9.3923  XXZ=              1.4428  XZZ=              2.5844  YZZ=             -7.4245
  YYZ=             -0.9729  XYZ=              0.5897
 Hexadecapole moment (field-independent basis, Debye-Ang**3):
 XXXX=           -422.5890 YYYY=           -163.4476 ZZZZ=           -180.3878 XXXY=            -16.5797
 XXXZ=             -2.4056 YYYX=            -13.2264 YYYZ=             -6.9404 ZZZX=              2.8411
 ZZZY=             -2.5717 XXYY=           -105.7695 XXZZ=            -97.6127 YYZZ=            -63.2519
 XXYZ=             -1.0457 YYXZ=              0.2761 ZZXY=              2.6524
 N-N= 3.486406457887D+02 E-N=-2.325545195631D+03  KE= 6.786927048679D+02
 No NMR shielding tensors so no spin-rotation constants.
 Leave Link  601 at Mon Sep 21 15:33:13 2020, MaxMem=13421772800 cpu:       0.4
 (Enter /opt/g09gh/gaussian/g09/l9999.exe)


 If your ship doesn't come in, swim out to it!
                          -- Jonathan Winters
 Error termination request processed by link 9999.
 Error termination via Lnk1e in /opt/g09gh/gaussian/g09/l9999.exe at Mon Sep 21 15:33:13 2020.
 Job cpu time:  0 days  0 hours  2 minutes 19.0 seconds.
 File lengths (MBytes):  RWF=     10 Int=      0 D2E=      0 Chk=      2 Scr=      1
