MonoMethylPhosphate1H Gaussian OPT Calculation on node37.bme.utexas.edu 
FOpt      RwB97XD                                                     6-31G(d)            
Number of atoms                            I               10
Info1-9                                    I   N=           9
          21          21           0           0           0         110
           2          18        -802
Charge                                     I               -1
Multiplicity                               I                1
Number of electrons                        I               58
Number of alpha electrons                  I               29
Number of beta electrons                   I               29
Number of basis functions                  I              102
Number of independent functions            I              102
Number of point charges in /Mol/           I                0
Number of translation vectors              I                0
Atomic numbers                             I   N=          10
           1           8          15           8           8           8
           6           1           1           1
Nuclear charges                            R   N=          10
  1.00000000E+00  8.00000000E+00  1.50000000E+01  8.00000000E+00  8.00000000E+00
  8.00000000E+00  6.00000000E+00  1.00000000E+00  1.00000000E+00  1.00000000E+00
Current cartesian coordinates              R   N=          30
 -1.24952955E+00  3.63141394E+00 -1.04861926E+00 -1.03430238E+00  2.10499054E+00
 -2.01851256E+00 -9.37108758E-01 -1.44381249E-01  1.94127365E-01  1.78678560E+00
 -1.47822765E+00 -5.86138560E-01 -2.90980458E+00 -2.09056901E+00 -2.96513282E-01
 -6.38196423E-01  1.25857809E+00  2.65255899E+00  3.98275910E+00 -1.00330150E-01
 -2.98230907E-02  3.92736170E+00  1.80359521E+00 -8.63565751E-01  5.59066991E+00
 -1.12756242E+00 -8.47476135E-01  4.25571691E+00  1.02077157E-01  2.01553254E+00
Force Field                                I                0
Int Atom Types                             I   N=          10
           0           0           0           0           0           0
           0           0           0           0
MM charges                                 R   N=          10
  0.00000000E+00  0.00000000E+00  0.00000000E+00  0.00000000E+00  0.00000000E+00
  0.00000000E+00  0.00000000E+00  0.00000000E+00  0.00000000E+00  0.00000000E+00
Integer atomic weights                     I   N=          10
           1          16          31          16          16          16
          12           1           1           1
Real atomic weights                        R   N=          10
  1.00782504E+00  1.59949146E+01  3.09737634E+01  1.59949146E+01  1.59949146E+01
  1.59949146E+01  1.20000000E+01  1.00782504E+00  1.00782504E+00  1.00782504E+00
Atom fragment info                         I   N=          10
           0           0           0           0           0           0
           0           0           0           0
Atom residue num                           I   N=          10
           0           0           0           0           0           0
           0           0           0           0
Nuclear spins                              I   N=          10
           1           0           1           0           0           0
           0           1           1           1
Nuclear ZEff                               R   N=          10
 -1.00000000E+00 -5.60000000E+00 -1.29400000E+01 -5.60000000E+00 -5.60000000E+00
 -5.60000000E+00 -3.60000000E+00 -1.00000000E+00 -1.00000000E+00 -1.00000000E+00
Nuclear QMom                               R   N=          10
  0.00000000E+00  0.00000000E+00  0.00000000E+00  0.00000000E+00  0.00000000E+00
  0.00000000E+00  0.00000000E+00  0.00000000E+00  0.00000000E+00  0.00000000E+00
Nuclear GFac                               R   N=          10
  2.79284600E+00  0.00000000E+00  1.13160000E+00  0.00000000E+00  0.00000000E+00
  0.00000000E+00  0.00000000E+00  2.79284600E+00  2.79284600E+00  2.79284600E+00
MicOpt                                     I   N=          10
          -1          -1          -1          -1          -1          -1
          -1          -1          -1          -1
Number of contracted shells                I               33
Number of primitive shells                 I               88
Pure/Cartesian d shells                    I                1
Pure/Cartesian f shells                    I                0
Highest angular momentum                   I                2
Largest degree of contraction              I                6
Shell types                                I   N=          33
           0           0           0          -1          -1           2
           0          -1          -1          -1           2           0
          -1          -1           2           0          -1          -1
           2           0          -1          -1           2           0
          -1          -1           2           0           0           0
           0           0           0
Number of primitives per shell             I   N=          33
           3           1           6           3           1           1
           6           6           3           1           1           6
           3           1           1           6           3           1
           1           6           3           1           1           6
           3           1           1           3           1           3
           1           3           1
Shell to atom map                          I   N=          33
           1           1           2           2           2           2
           3           3           3           3           3           4
           4           4           4           5           5           5
           5           6           6           6           6           7
           7           7           7           8           8           9
           9          10          10
Primitive exponents                        R   N=          88
  1.87311370E+01  2.82539436E+00  6.40121692E-01  1.61277759E-01  5.48467166E+03
  8.25234946E+02  1.88046958E+02  5.29645000E+01  1.68975704E+01  5.79963534E+00
  1.55396162E+01  3.59993359E+00  1.01376175E+00  2.70005823E-01  8.00000000E-01
  1.94133000E+04  2.90942000E+03  6.61364000E+02  1.85759000E+02  5.91943000E+01
  2.00310000E+01  3.39478000E+02  8.10101000E+01  2.58780000E+01  9.45221000E+00
  3.66566000E+00  1.46746000E+00  2.15623000E+00  7.48997000E-01  2.83145000E-01
  9.98317000E-02  5.50000000E-01  5.48467166E+03  8.25234946E+02  1.88046958E+02
  5.29645000E+01  1.68975704E+01  5.79963534E+00  1.55396162E+01  3.59993359E+00
  1.01376175E+00  2.70005823E-01  8.00000000E-01  5.48467166E+03  8.25234946E+02
  1.88046958E+02  5.29645000E+01  1.68975704E+01  5.79963534E+00  1.55396162E+01
  3.59993359E+00  1.01376175E+00  2.70005823E-01  8.00000000E-01  5.48467166E+03
  8.25234946E+02  1.88046958E+02  5.29645000E+01  1.68975704E+01  5.79963534E+00
  1.55396162E+01  3.59993359E+00  1.01376175E+00  2.70005823E-01  8.00000000E-01
  3.04752488E+03  4.57369518E+02  1.03948685E+02  2.92101553E+01  9.28666296E+00
  3.16392696E+00  7.86827235E+00  1.88128854E+00  5.44249258E-01  1.68714478E-01
  8.00000000E-01  1.87311370E+01  2.82539436E+00  6.40121692E-01  1.61277759E-01
  1.87311370E+01  2.82539436E+00  6.40121692E-01  1.61277759E-01  1.87311370E+01
  2.82539436E+00  6.40121692E-01  1.61277759E-01
Contraction coefficients                   R   N=          88
  3.34946043E-02  2.34726953E-01  8.13757326E-01  1.00000000E+00  1.83107443E-03
  1.39501722E-02  6.84450781E-02  2.32714336E-01  4.70192898E-01  3.58520853E-01
 -1.10777550E-01 -1.48026263E-01  1.13076702E+00  1.00000000E+00  1.00000000E+00
  1.85159892E-03  1.42061917E-02  6.99994593E-02  2.40078860E-01  4.84761718E-01
  3.35199805E-01 -2.78217010E-03 -3.60499014E-02 -1.16631004E-01  9.68328036E-02
  6.14418023E-01  4.03798015E-01 -2.52924114E-01  3.28518447E-02  1.08125476E+00
  1.00000000E+00  1.00000000E+00  1.83107443E-03  1.39501722E-02  6.84450781E-02
  2.32714336E-01  4.70192898E-01  3.58520853E-01 -1.10777550E-01 -1.48026263E-01
  1.13076702E+00  1.00000000E+00  1.00000000E+00  1.83107443E-03  1.39501722E-02
  6.84450781E-02  2.32714336E-01  4.70192898E-01  3.58520853E-01 -1.10777550E-01
 -1.48026263E-01  1.13076702E+00  1.00000000E+00  1.00000000E+00  1.83107443E-03
  1.39501722E-02  6.84450781E-02  2.32714336E-01  4.70192898E-01  3.58520853E-01
 -1.10777550E-01 -1.48026263E-01  1.13076702E+00  1.00000000E+00  1.00000000E+00
  1.83473713E-03  1.40373228E-02  6.88426223E-02  2.32184443E-01  4.67941348E-01
  3.62311985E-01 -1.19332420E-01 -1.60854152E-01  1.14345644E+00  1.00000000E+00
  1.00000000E+00  3.34946043E-02  2.34726953E-01  8.13757326E-01  1.00000000E+00
  3.34946043E-02  2.34726953E-01  8.13757326E-01  1.00000000E+00  3.34946043E-02
  2.34726953E-01  8.13757326E-01  1.00000000E+00
P(S=P) Contraction coefficients            R   N=          88
  0.00000000E+00  0.00000000E+00  0.00000000E+00  0.00000000E+00  0.00000000E+00
  0.00000000E+00  0.00000000E+00  0.00000000E+00  0.00000000E+00  0.00000000E+00
  7.08742682E-02  3.39752839E-01  7.27158577E-01  1.00000000E+00  0.00000000E+00
  0.00000000E+00  0.00000000E+00  0.00000000E+00  0.00000000E+00  0.00000000E+00
  0.00000000E+00  4.56461619E-03  3.36935719E-02  1.39754883E-01  3.39361717E-01
  4.50920624E-01  2.38585801E-01 -1.77653127E-02  2.74058196E-01  7.85421563E-01
  1.00000000E+00  0.00000000E+00  0.00000000E+00  0.00000000E+00  0.00000000E+00
  0.00000000E+00  0.00000000E+00  0.00000000E+00  7.08742682E-02  3.39752839E-01
  7.27158577E-01  1.00000000E+00  0.00000000E+00  0.00000000E+00  0.00000000E+00
  0.00000000E+00  0.00000000E+00  0.00000000E+00  0.00000000E+00  7.08742682E-02
  3.39752839E-01  7.27158577E-01  1.00000000E+00  0.00000000E+00  0.00000000E+00
  0.00000000E+00  0.00000000E+00  0.00000000E+00  0.00000000E+00  0.00000000E+00
  7.08742682E-02  3.39752839E-01  7.27158577E-01  1.00000000E+00  0.00000000E+00
  0.00000000E+00  0.00000000E+00  0.00000000E+00  0.00000000E+00  0.00000000E+00
  0.00000000E+00  6.89990666E-02  3.16423961E-01  7.44308291E-01  1.00000000E+00
  0.00000000E+00  0.00000000E+00  0.00000000E+00  0.00000000E+00  0.00000000E+00
  0.00000000E+00  0.00000000E+00  0.00000000E+00  0.00000000E+00  0.00000000E+00
  0.00000000E+00  0.00000000E+00  0.00000000E+00
Coordinates of each shell                  R   N=          99
 -1.24952955E+00  3.63141394E+00 -1.04861926E+00 -1.24952955E+00  3.63141394E+00
 -1.04861926E+00 -1.03430238E+00  2.10499054E+00 -2.01851256E+00 -1.03430238E+00
  2.10499054E+00 -2.01851256E+00 -1.03430238E+00  2.10499054E+00 -2.01851256E+00
 -1.03430238E+00  2.10499054E+00 -2.01851256E+00 -9.37108758E-01 -1.44381249E-01
  1.94127365E-01 -9.37108758E-01 -1.44381249E-01  1.94127365E-01 -9.37108758E-01
 -1.44381249E-01  1.94127365E-01 -9.37108758E-01 -1.44381249E-01  1.94127365E-01
 -9.37108758E-01 -1.44381249E-01  1.94127365E-01  1.78678560E+00 -1.47822765E+00
 -5.86138560E-01  1.78678560E+00 -1.47822765E+00 -5.86138560E-01  1.78678560E+00
 -1.47822765E+00 -5.86138560E-01  1.78678560E+00 -1.47822765E+00 -5.86138560E-01
 -2.90980458E+00 -2.09056901E+00 -2.96513282E-01 -2.90980458E+00 -2.09056901E+00
 -2.96513282E-01 -2.90980458E+00 -2.09056901E+00 -2.96513282E-01 -2.90980458E+00
 -2.09056901E+00 -2.96513282E-01 -6.38196423E-01  1.25857809E+00  2.65255899E+00
 -6.38196423E-01  1.25857809E+00  2.65255899E+00 -6.38196423E-01  1.25857809E+00
  2.65255899E+00 -6.38196423E-01  1.25857809E+00  2.65255899E+00  3.98275910E+00
 -1.00330150E-01 -2.98230907E-02  3.98275910E+00 -1.00330150E-01 -2.98230907E-02
  3.98275910E+00 -1.00330150E-01 -2.98230907E-02  3.98275910E+00 -1.00330150E-01
 -2.98230907E-02  3.92736170E+00  1.80359521E+00 -8.63565751E-01  3.92736170E+00
  1.80359521E+00 -8.63565751E-01  5.59066991E+00 -1.12756242E+00 -8.47476135E-01
  5.59066991E+00 -1.12756242E+00 -8.47476135E-01  4.25571691E+00  1.02077157E-01
  2.01553254E+00  4.25571691E+00  1.02077157E-01  2.01553254E+00
Constraint Structure                       R   N=          30
 -1.20284057E+00  3.35412275E+00 -1.37695330E+00 -1.03030175E+00  1.71929110E+00
 -2.20098779E+00 -8.90226931E-01 -1.55545855E-01  1.96423474E-01  1.76394790E+00
 -1.54607007E+00 -4.05202846E-01 -3.07871600E+00 -1.94651624E+00  4.22012561E-02
 -5.47661848E-01  1.66632795E+00  2.35460158E+00  3.98747070E+00 -1.35539892E-01
 -2.01364842E-02  3.88828241E+00  1.68309445E+00 -9.96644157E-01  5.58656936E+00
 -1.20169934E+00 -7.77716736E-01  4.29842205E+00  1.66647310E-01  2.00088338E+00
Num ILSW                                   I              100
ILSW                                       I   N=         100
           0           1           0           0           2           0
           0           0           0           0        4639 20132659200
           0           0           0           0           0           0
           0           0           0           0           1           0
           0           0           1           0           0           0
           0           0      100000           0          -1           0
           0           0           0           0           0           0
           0           0           0           1           0           0
           0           0           1           0           0           0
           0           0           2          40           0           0
           0           0          58           0           0           0
           0           0           0           0           0           0
           0           0           0           0           0           0
           0           0           0           0           0           0
           0           0           0           0           0           0
           0           0           0           0           0           0
           0           0           0           0
Num RLSW                                   I               40
RLSW                                       R   N=          40
  1.00000000E+00  1.00000000E+00  1.00000000E+00  1.00000000E+00  1.00000000E+00
  0.00000000E+00  2.00000000E-01  2.22036000E-01  0.00000000E+00  7.77964000E-01
  0.00000000E+00  2.00000000E-01  0.00000000E+00  0.00000000E+00  1.00000000E+00
  0.00000000E+00  0.00000000E+00  1.00000000E+00  0.00000000E+00  0.00000000E+00
  0.00000000E+00  0.00000000E+00  1.00000000E+00  0.00000000E+00  0.00000000E+00
  0.00000000E+00  0.00000000E+00  1.00000000E+00  0.00000000E+00  0.00000000E+00
  0.00000000E+00  0.00000000E+00  0.00000000E+00  0.00000000E+00  0.00000000E+00
  0.00000000E+00  0.00000000E+00  0.00000000E+00  1.00000000E+00  1.00000000E+00
MxBond                                     I                4
NBond                                      I   N=          10
           1           2           4           2           1           1
           4           1           1           1
IBond                                      I   N=          40
           2           0           0           0           1           3
           0           0           2           4           5           6
           3           7           0           0           3           0
           0           0           3           0           0           0
           4           8           9          10           7           0
           0           0           7           0           0           0
           7           0           0           0
RBond                                      R   N=          40
  1.00000000E+00  0.00000000E+00  0.00000000E+00  0.00000000E+00  1.00000000E+00
  1.00000000E+00  0.00000000E+00  0.00000000E+00  1.00000000E+00  1.00000000E+00
  2.00000000E+00  2.00000000E+00  1.00000000E+00  1.00000000E+00  0.00000000E+00
  0.00000000E+00  2.00000000E+00  0.00000000E+00  0.00000000E+00  0.00000000E+00
  2.00000000E+00  0.00000000E+00  0.00000000E+00  0.00000000E+00  1.00000000E+00
  1.00000000E+00  1.00000000E+00  1.00000000E+00  1.00000000E+00  0.00000000E+00
  0.00000000E+00  0.00000000E+00  1.00000000E+00  0.00000000E+00  0.00000000E+00
  0.00000000E+00  1.00000000E+00  0.00000000E+00  0.00000000E+00  0.00000000E+00
Virial Ratio                               R      2.006007528230090E+00
SCF Energy                                 R     -6.827699704519076E+02
Total Energy                               R     -6.827699704519076E+02
RMS Force                                  R      1.820651418383194E-03
RMS Density                                R      8.607359089730588E-09
External E-field                           R   N=          35
  0.00000000E+00  0.00000000E+00  0.00000000E+00  0.00000000E+00  0.00000000E+00
  0.00000000E+00  0.00000000E+00  0.00000000E+00  0.00000000E+00  0.00000000E+00
  0.00000000E+00  0.00000000E+00  0.00000000E+00  0.00000000E+00  0.00000000E+00
  0.00000000E+00  0.00000000E+00  0.00000000E+00  0.00000000E+00  0.00000000E+00
  0.00000000E+00  0.00000000E+00  0.00000000E+00  0.00000000E+00  0.00000000E+00
  0.00000000E+00  0.00000000E+00  0.00000000E+00  0.00000000E+00  0.00000000E+00
  0.00000000E+00  0.00000000E+00  0.00000000E+00  0.00000000E+00  0.00000000E+00
IOpCl                                      I                0
IROHF                                      I                0
Alpha Orbital Energies                     R   N=         102
 -7.71509184E+01 -1.90973835E+01 -1.90944852E+01 -1.90105454E+01 -1.90069657E+01
 -1.01878937E+01 -6.55880530E+00 -4.70940407E+00 -4.70798054E+00 -4.70517154E+00
 -9.72933125E-01 -9.26195841E-01 -8.49961067E-01 -8.14452342E-01 -6.25267334E-01
 -4.75768862E-01 -4.11850750E-01 -3.76966858E-01 -3.72232133E-01 -3.44335863E-01
 -2.89613881E-01 -2.75766359E-01 -2.34112933E-01 -2.24948962E-01 -2.01984275E-01
 -1.82778733E-01 -1.64690517E-01 -1.48819600E-01 -1.35370778E-01  3.21478831E-01
  3.53221915E-01  3.80068121E-01  3.89788168E-01  4.02795411E-01  4.32149035E-01
  4.61978092E-01  4.86884216E-01  4.97674576E-01  6.16954327E-01  6.24202543E-01
  6.50833788E-01  7.29397646E-01  7.84108254E-01  8.12660106E-01  8.88428847E-01
  9.29259250E-01  9.76121790E-01  1.04087195E+00  1.07947416E+00  1.09254761E+00
  1.12718221E+00  1.13025187E+00  1.17410810E+00  1.18178241E+00  1.22913015E+00
  1.25405529E+00  1.28907622E+00  1.31656958E+00  1.32937246E+00  1.34041146E+00
  1.38052024E+00  1.39325035E+00  1.44483081E+00  1.48686383E+00  1.49175310E+00
  1.51545374E+00  1.53493721E+00  1.63095395E+00  1.70862498E+00  1.76192177E+00
  1.81825150E+00  1.90091453E+00  1.95707231E+00  2.01571328E+00  2.05699481E+00
  2.07849743E+00  2.11854517E+00  2.13084481E+00  2.13879561E+00  2.16796266E+00
  2.25176078E+00  2.28716052E+00  2.32398630E+00  2.37458139E+00  2.41629373E+00
  2.43811004E+00  2.52291878E+00  2.58270796E+00  2.63131010E+00  2.66168444E+00
  2.70462090E+00  2.78024823E+00  2.90518932E+00  3.03613032E+00  3.12773024E+00
  3.16861823E+00  3.80888102E+00  3.99330223E+00  4.04855125E+00  4.21155480E+00
  4.27956336E+00  4.50390408E+00
Alpha MO coefficients                      R   N=       10404
 -8.20335279E-05 -2.69689867E-04 -2.45583187E-05 -9.58073269E-05  7.37237906E-06
  2.50122794E-05 -5.64423645E-05  9.73378656E-04 -2.72173768E-05 -1.86299227E-04
  3.79767867E-04 -8.56881911E-05 -1.28868853E-04 -1.66209932E-04 -3.36687687E-07
 -1.15092806E-05  1.45699387E-04  9.96282074E-01  1.40563864E-02  3.78064101E-05
  1.68056954E-05 -3.38248572E-05 -2.66928467E-02 -6.88221776E-05 -3.61739507E-05
  4.80887543E-05  2.44678831E-03  8.38790229E-05  1.72162792E-04  1.38078165E-04
  9.24718083E-03  9.24761200E-03  9.28949995E-03 -1.55124879E-05 -3.72119568E-07
  2.30613888E-06 -2.39098181E-05 -1.00290300E-04  4.87618482E-05 -4.80207965E-05
 -2.71912543E-05  9.67535982E-04 -2.99606781E-04  2.72795709E-04  1.40315586E-04
 -1.97383772E-04 -9.70739937E-05 -8.75037489E-05  1.16849195E-04  6.61863662E-05
 -1.56944401E-05 -1.25412661E-05 -1.41366768E-04 -1.38542849E-04 -1.36007113E-04
 -3.25452792E-05  9.58640200E-04  3.72081213E-04  3.54341440E-04  6.96205421E-05
 -1.25056633E-04 -1.22141611E-04 -2.34071779E-05 -1.21612004E-04 -3.22926282E-05
 -3.34928251E-05  1.01338105E-05 -4.80960056E-05  2.25888636E-05  9.28464403E-05
  1.52516365E-04  5.04731119E-04 -5.57425831E-05 -2.34544196E-04 -3.89676785E-04
  4.84347730E-05 -7.04918086E-06 -1.20127413E-04 -1.53363143E-05 -2.44471783E-05
 -1.12742833E-04 -1.40994291E-05 -8.15759137E-05  4.68693413E-05 -6.98828042E-06
 -1.17326206E-05  1.08478570E-04  1.19353919E-04  9.58359944E-05  6.09916492E-05
 -2.09748751E-05  7.77796100E-07 -3.08524037E-05 -2.03578832E-05 -8.19130525E-06
  2.09162113E-05  7.00500725E-06 -1.82588116E-04 -1.96054759E-05  1.38135493E-05
  1.68399594E-05 -2.10723857E-04 -2.36196068E-06 -8.84103535E-07  8.15515213E-05
 -1.35500223E-04 -1.39528738E-06  1.55529025E-05  1.49226779E-05  8.30217547E-04
  3.20913607E-05 -2.01371811E-04  4.41694044E-05 -1.38248858E-04 -1.01274295E-04
 -8.41299534E-05  6.34349435E-05 -4.10229379E-07  2.06953899E-06  5.50818966E-06
 -2.69497482E-05 -7.21781143E-05  3.98562761E-05  2.11614375E-05 -3.65459685E-06
  2.08525623E-04 -1.15666979E-04 -7.12333556E-05 -2.08603855E-03 -7.83008612E-04
  5.74009939E-04  5.90522492E-04  2.89672012E-04  2.34588435E-05 -1.90715609E-05
 -1.91900015E-04 -1.30726008E-04  1.63204052E-05  9.92929625E-01  2.54911145E-02
  1.90341415E-04  7.99422730E-04  3.79701507E-04  1.11334249E-02 -2.30563551E-04
 -9.97808267E-05 -9.00838734E-05 -7.81325240E-03 -7.74079608E-03 -7.66194098E-03
 -6.12611872E-05 -1.33792365E-05 -5.34433356E-05 -3.57956848E-05 -1.28932478E-04
  1.11210129E-05  1.78029507E-05  2.08245592E-05  8.76409041E-04  1.67146153E-04
  6.04935497E-05 -8.29465521E-05 -1.57489881E-04 -7.37113169E-05 -5.46164785E-05
  3.47980956E-05  1.32306654E-05 -2.86702227E-05 -2.99336792E-05 -4.30062851E-05
 -2.81808995E-05  6.99300626E-06 -1.34444185E-05  3.04702176E-04  1.30006921E-04
 -1.26060167E-04 -1.31744254E-04 -5.30649979E-05  3.34180891E-07  1.90920089E-05
  2.50764826E-05  7.72210548E-07  2.61860399E-06 -2.04611866E-06  2.24953540E-04
 -3.25759867E-04 -2.63755665E-04 -1.11253320E-04 -1.15955116E-03  2.76733858E-04
  5.09374151E-04  2.60795615E-04  2.01577459E-04  7.84001955E-05  8.94334053E-07
  1.65659137E-04  7.45744528E-05  2.93823162E-05 -5.91488478E-07  1.07362506E-04
  9.35915863E-05  1.36597325E-04  2.02499866E-05  2.48306532E-05  4.02110990E-04
 -6.48741689E-04  9.92955357E-01  2.55393980E-02 -8.83435976E-05  3.76696949E-04
  8.78309019E-04  1.06868284E-02  1.26216890E-04 -5.05302485E-04 -1.37639185E-05
 -7.57764695E-03 -7.64382808E-03 -7.65790550E-03  2.11908328E-06  1.26985301E-05
  1.69989327E-06  6.30279844E-06 -6.50789996E-06 -4.67759915E-06 -5.67739475E-05
  4.97162699E-05  7.94689745E-05  7.26054723E-05  1.43668187E-04 -1.25066285E-04
 -2.37236293E-03 -4.72711125E-04 -4.45334489E-04  1.12190500E-03 -3.81114919E-06
  1.45163388E-04  1.36060350E-04 -3.04818703E-05 -1.64299255E-05 -2.60481647E-04
 -1.43571410E-04 -9.34906689E-05  3.01001043E-05  4.64447670E-05  2.33046168E-05
  6.62081269E-04 -3.97769767E-04 -1.28703314E-04 -1.17355616E-04 -5.43194895E-05
 -1.20989952E-04 -4.42870551E-05  4.54550581E-06 -1.90947652E-05  3.09738928E-05
 -3.72921007E-05 -1.06898923E-04 -1.63643103E-06  2.17835332E-05  4.33402203E-05
  6.69552391E-04  1.99678374E-04  1.07743796E-04 -2.09360700E-04 -1.24404660E-05
 -6.80323623E-05 -7.56694742E-05  1.23050434E-05 -3.08534532E-05  2.01783070E-05
 -4.53780752E-05 -7.58386545E-05 -1.56345085E-05 -4.16389424E-05  2.04132633E-05
  4.95435419E-04  8.06468454E-05  7.92139722E-05 -2.56818985E-04 -4.21380717E-05
 -6.21379659E-05 -5.78205807E-05 -9.16308964E-06 -1.12525348E-05  4.01523562E-05
 -1.37879739E-05 -1.01917314E-04 -3.26646223E-05 -3.29287405E-05 -2.74082974E-05
  5.85567899E-04 -3.12380540E-04  8.08091503E-05  6.68267682E-05  3.72055412E-05
 -1.64529369E-05 -6.52161559E-06  3.91077260E-07  1.29171982E-05  8.43335695E-07
  3.35094176E-06 -7.51190559E-05 -1.11288930E-05  9.81089274E-05 -4.60297700E-05
 -6.35188094E-05 -6.55489885E-05  3.34622717E-04 -1.58983768E-05 -1.73539012E-04
 -2.70435509E-05  7.98899623E-06 -3.36110893E-05  9.62560202E-04  1.65406272E-04
 -1.42077535E-04  3.08853605E-04 -8.81261339E-05 -1.10031643E-04 -1.42738087E-04
 -1.92965201E-05  8.75322567E-06 -2.21583423E-05  1.76275522E-05 -4.84532978E-05
 -7.39166242E-06 -8.72066961E-06 -9.71085640E-06  9.23964153E-04  9.70684621E-05
  1.55345323E-04  2.19510424E-04 -2.93501571E-03 -9.04507872E-04 -1.35145993E-03
 -1.07836404E-03 -2.71068029E-04 -2.36182217E-04 -1.14009137E-04 -1.22211481E-05
  3.88796043E-05  1.16509442E-04 -5.63291313E-07 -1.04696075E-04 -2.28521044E-07
 -1.49640053E-05 -2.55379376E-05  5.55290516E-04 -1.81388051E-04  1.65984968E-04
  1.48798374E-04 -4.69179013E-05 -4.78721658E-05 -7.47231241E-05 -2.27819000E-05
 -1.14169930E-05 -3.03742768E-05 -1.17829219E-03  2.68093245E-05  1.64748844E-05
 -9.80640520E-06 -3.95377244E-05 -3.27248521E-04  4.72624621E-05  1.63613565E-04
  2.14640198E-04  9.65383910E-05  1.08789584E-04  6.03616390E-05  2.18720431E-05
  2.66778620E-05  7.47830078E-06  9.92966605E-01  2.53182472E-02 -9.48544781E-05
 -4.11120811E-04 -7.47651598E-04  1.11079334E-02  1.09282741E-04 -5.09296324E-05
 -2.97934657E-04 -7.60127021E-03 -7.61755713E-03 -7.61059043E-03 -9.91813574E-06
 -1.89151461E-05 -2.24825046E-05 -1.66563261E-05 -8.97126684E-05  3.61751244E-05
  1.67304735E-05 -4.28574078E-06  2.94125229E-04 -3.68647128E-04 -2.15723310E-05
  1.13602539E-04  5.04909976E-06 -1.52207818E-05 -3.39847120E-05 -1.33196806E-05
  3.92938586E-06  3.75035331E-06 -5.12686797E-05  2.97249381E-04  1.41609523E-05
  1.12016387E-04  2.48924120E-05 -4.34019080E-05  3.97111658E-05 -2.61455651E-04
  2.16716423E-05  3.79077910E-05  5.01737685E-05 -4.36154497E-06  3.96704719E-05
 -1.22602132E-04 -2.56586288E-04 -3.97191515E-05 -1.79808952E-04  1.60970137E-05
  3.35795404E-05  7.96586432E-06 -1.58442611E-05 -2.42600364E-05  6.64268311E-07
  1.00759204E-05 -1.31375005E-04  2.30638211E-06 -2.95037636E-06  5.97384492E-06
  4.90288359E-04 -2.31884374E-04 -1.51030582E-04 -7.65332824E-05 -8.76920573E-04
  1.54514131E-03  1.58312678E-03  4.90003522E-04 -2.05686941E-04 -1.63998109E-04
 -2.91030673E-04  9.91781046E-05  3.64921734E-05  1.10984346E-05 -2.34338325E-05
 -7.85979522E-05 -2.05995504E-06  1.42863162E-05  5.23223760E-06  5.39831025E-04
 -1.71063388E-05 -3.43258090E-05  4.05578229E-06 -1.15064549E-04 -6.78348651E-05
 -5.65250005E-05 -2.03516470E-05  7.12696077E-06  1.76903219E-06  9.92975813E-01
  2.53902919E-02  6.51186676E-04  6.39102681E-04  1.54281804E-04  1.08002975E-02
  9.09751006E-05  8.06005989E-05  3.42829366E-06 -7.58472544E-03 -7.58315485E-03
 -7.57328975E-03 -8.87212481E-06 -4.87812091E-06 -3.91887785E-06  1.24204094E-03
  1.90125286E-04  4.63417537E-05  2.99436985E-05 -4.06578879E-05 -8.40016878E-04
 -2.65762915E-04 -2.02495090E-04  1.33292984E-04  1.17133982E-04  1.37576894E-04
  1.25345051E-04 -2.58299674E-06  2.92120379E-05  3.59103617E-05  2.40600059E-05
  1.04327399E-04 -6.83686041E-05  2.59982105E-05  1.92012101E-05 -4.43040665E-04
  5.60987464E-04 -1.48438645E-04 -1.55878139E-04  2.01991067E-05  4.59264028E-05
  4.17408238E-05  9.25225465E-06 -2.14141386E-06  1.68699773E-05  8.82214247E-05
 -1.52178327E-04 -3.03353176E-05 -2.36271607E-04  5.75266458E-05 -1.39445658E-05
  1.08240247E-04 -6.03642294E-04  3.52567173E-05  1.73052729E-04  2.93008207E-05
 -2.32225615E-05  1.77085020E-05 -8.68685050E-04 -2.62382742E-04  2.12114476E-04
 -2.25555903E-04  9.83120067E-05  1.12099652E-04  5.25226383E-05  1.10182710E-05
 -2.61436710E-05 -2.38621908E-05 -8.46885258E-06 -1.16734608E-04 -3.02549162E-05
 -1.14689131E-05  6.10672748E-06 -6.82269133E-04  5.06056778E-05  6.41802946E-05
 -3.91247559E-05  2.04998596E-03  1.40119414E-03  1.18887858E-03  7.98386243E-05
  1.68027879E-04 -3.62620410E-05 -3.35846442E-05  4.77333716E-05 -1.04950406E-06
 -2.30450940E-05 -9.65501799E-05 -7.00710014E-05 -9.65087392E-05 -3.98175337E-06
 -6.77776981E-06  1.59480243E-03  2.00633012E-04 -2.26647946E-04 -4.32374519E-05
 -5.54223471E-04 -2.26376086E-04 -1.72160945E-05 -3.44803412E-04 -1.39977557E-04
 -1.22528667E-04 -3.80911295E-05 -1.47586171E-04  4.47349650E-05 -2.96412172E-06
 -1.75948533E-05  8.44107866E-04 -9.00641508E-05  1.16271170E-05  7.29912645E-05
 -1.12521863E-04 -1.21638276E-04 -9.84255511E-05 -5.07176089E-06  6.91425679E-06
 -2.93212945E-06  4.56539785E-05  1.95571793E-04 -1.82459578E-05  3.63221606E-05
  1.86445350E-05 -1.22661110E-03 -9.26678682E-05 -1.34233363E-04  1.07668448E-04
  1.42314300E-04  1.10712566E-04  1.15136154E-04  1.22608255E-05 -1.10101954E-06
  6.34578797E-05  9.93338309E-01  4.64326165E-02 -5.78071684E-04 -2.66018297E-04
 -1.40615052E-04 -1.47633989E-02  4.44893845E-04 -4.79244198E-04 -2.73419217E-04
 -7.74659460E-03 -7.85858106E-03 -7.91959651E-03  1.14862936E-04  3.23575374E-05
  5.71762644E-05 -2.47854431E-05  2.64762227E-03 -2.28158762E-04  2.42706214E-03
 -3.58564237E-05  2.72917065E-03  4.08437484E-04  1.41964507E-03  5.33747022E-05
  6.96097413E-04 -5.45264066E-05 -8.49879280E-05  2.23910821E-04 -3.81578432E-03
  2.45032939E-04  9.24580750E-04 -1.84186991E-03  5.33020809E-04  2.50470526E-04
  4.63655885E-04  3.20998477E-05  1.99134394E-05 -1.22680465E-04 -2.74447524E-01
  1.02496417E+00  4.02869201E-03  1.38444929E-03 -4.53143670E-03  6.51781410E-02
  1.00851603E-03  2.96047288E-04 -7.09203627E-04 -8.24967124E-03 -1.28784503E-03
 -1.45468496E-03 -3.79021072E-04 -1.39973738E-02 -1.39605202E-02 -1.43000928E-02
  1.79941622E-05 -3.90366619E-05  4.79600849E-05  8.29857783E-05  8.93365072E-04
 -2.32137144E-04  2.26185529E-04  1.36102059E-04 -4.71522220E-03  1.71156934E-03
 -1.62992210E-03 -9.00029941E-04  4.64274530E-04  4.69674274E-04  6.19032521E-04
 -1.38539254E-04 -8.16473504E-05 -8.39589800E-05 -8.74674230E-05  1.06539987E-03